%VERSION  VERSION_STAMP = V0001.000  DATE = 04/30/26  06:32:20
%FLAG TITLE
%FORMAT(20a4)
PFO 
%FLAG POINTERS
%FORMAT(10I8)
      25       6       0      24       0      45       0      91       0       0
     131       1      24      45      91       4       7      11       6       0
       0       0       0       0       0       0       0       0      25       0
       0
%FLAG ATOM_NAME
%FORMAT(20a4)
F   F1  F2  F3  F4  F5  F6  F7  F8  F9  F10 F11 F12 F13 F14 O   O1  C   C1  C2  
C3  C4  C5  C6  C7  
%FLAG CHARGE
%FORMAT(5E16.8)
 -3.01876088E+00 -3.01883377E+00 -3.71128117E+00 -3.71128117E+00 -3.54728047E+00
 -3.54728047E+00 -4.11217177E+00 -4.11217177E+00 -3.37416862E+00 -3.37416862E+00
 -4.31261707E+00 -4.31261707E+00 -3.89046105E+00 -3.89046105E+00 -3.89046105E+00
 -1.38635258E+01 -1.38635258E+01  7.62785478E+00  6.88074048E+00  5.84206938E+00
  6.00607008E+00  6.42518298E+00  4.45717458E+00  1.08768909E+01  1.72127846E+01
%FLAG ATOMIC_NUMBER
%FORMAT(10I8)
       9       9       9       9       9       9       9       9       9       9
       9       9       9       9       9       8       8       6       6       6
       6       6       6       6       6
%FLAG MASS
%FORMAT(5E16.8)
  1.90000000E+01  1.90000000E+01  1.90000000E+01  1.90000000E+01  1.90000000E+01
  1.90000000E+01  1.90000000E+01  1.90000000E+01  1.90000000E+01  1.90000000E+01
  1.90000000E+01  1.90000000E+01  1.90000000E+01  1.90000000E+01  1.90000000E+01
  1.60000000E+01  1.60000000E+01  1.20100000E+01  1.20100000E+01  1.20100000E+01
  1.20100000E+01  1.20100000E+01  1.20100000E+01  1.20100000E+01  1.20100000E+01
%FLAG ATOM_TYPE_INDEX
%FORMAT(10I8)
       1       1       1       1       1       1       1       1       1       1
       1       1       1       1       1       2       2       3       3       3
       3       3       3       3       4
%FLAG NUMBER_EXCLUDED_ATOMS
%FORMAT(10I8)
      10       9       8       7       8       7       8       7       8       7
       7       6       5       4       3       4       3       6       5       3
       2       1       1       1       1
%FLAG NONBONDED_PARM_INDEX
%FORMAT(10I8)
       1       2       4       7      11      16       2       3       5       8
      12      17       4       5       6       9      13      18       7       8
       9      10      14      19      11      12      13      14      15      20
      16      17      18      19      20      21
%FLAG RESIDUE_LABEL
%FORMAT(20a4)
PFO 
%FLAG RESIDUE_POINTER
%FORMAT(10I8)
       1
%FLAG BOND_FORCE_CONSTANT
%FORMAT(5E16.8)
  3.34280000E+02  5.90600000E+02  2.28890000E+02  2.34850000E+02
%FLAG BOND_EQUIL_VALUE
%FORMAT(5E16.8)
  1.35120000E+00  1.21900000E+00  1.53540000E+00  1.52700000E+00
%FLAG ANGLE_FORCE_CONSTANT
%FORMAT(5E16.8)
  1.06880000E+02  7.93600000E+01  7.93400000E+01  1.04940000E+02  7.64500000E+01
  5.98700000E+01  6.03600000E+01
%FLAG ANGLE_EQUIL_VALUE
%FORMAT(5E16.8)
  1.87396082E+00  1.91078728E+00  1.92579712E+00  2.27172153E+00  2.14501057E+00
  1.96576518E+00  1.94482122E+00
%FLAG DIHEDRAL_FORCE_CONSTANT
%FORMAT(5E16.8)
  1.81000000E+00  1.55555556E-01  0.00000000E+00  6.80000000E-01  2.00000000E-01
  4.40000000E-01  5.20000000E-01  4.60000000E-01  4.00000000E-02  0.00000000E+00
  1.10000000E+00
%FLAG DIHEDRAL_PERIODICITY
%FORMAT(5E16.8)
  2.00000000E+00  3.00000000E+00  2.00000000E+00  1.00000000E+00  2.00000000E+00
  3.00000000E+00  3.00000000E+00  1.00000000E+00  2.00000000E+00  3.00000000E+00
  2.00000000E+00
%FLAG DIHEDRAL_PHASE
%FORMAT(5E16.8)
  0.00000000E+00  0.00000000E+00  3.14159400E+00  0.00000000E+00  3.14159400E+00
  3.14159400E+00  0.00000000E+00  3.14159400E+00  0.00000000E+00  0.00000000E+00
  3.14159400E+00
%FLAG SCEE_SCALE_FACTOR
%FORMAT(5E16.8)
  1.20000000E+00  1.20000000E+00  1.20000000E+00  1.20000000E+00  1.20000000E+00
  1.20000000E+00  1.20000000E+00  1.20000000E+00  1.20000000E+00  1.20000000E+00
  0.00000000E+00
%FLAG SCNB_SCALE_FACTOR
%FORMAT(5E16.8)
  2.00000000E+00  2.00000000E+00  2.00000000E+00  2.00000000E+00  2.00000000E+00
  2.00000000E+00  2.00000000E+00  2.00000000E+00  2.00000000E+00  2.00000000E+00
  0.00000000E+00
%FLAG SOLTY
%FORMAT(5E16.8)
  0.00000000E+00  0.00000000E+00  0.00000000E+00  0.00000000E+00  0.00000000E+00
  0.00000000E+00
%FLAG LENNARD_JONES_ACOEF
%FORMAT(5E16.8)
  2.02652992E+05  2.76207447E+05  3.76435470E+05  4.63627012E+05  6.30925504E+05
  1.02073671E+06  3.80155513E+05  5.17507491E+05  8.43969952E+05  6.96551276E+05
  3.44143129E+05  4.68810254E+05  7.77325489E+05  6.39146293E+05  5.81935564E+05
  0.00000000E+00  0.00000000E+00  0.00000000E+00  0.00000000E+00  0.00000000E+00
  0.00000000E+00
%FLAG LENNARD_JONES_BCOEF
%FORMAT(5E16.8)
  2.59697739E+02  3.49131956E+02  4.69350655E+02  4.19082844E+02  5.62969425E+02
  6.63431737E+02  3.71304925E+02  4.98871431E+02  5.90251928E+02  5.24668528E+02
  3.93451564E+02  5.28811054E+02  6.30880403E+02  5.59732167E+02  5.94825035E+02
  0.00000000E+00  0.00000000E+00  0.00000000E+00  0.00000000E+00  0.00000000E+00
  0.00000000E+00
%FLAG BONDS_INC_HYDROGEN
%FORMAT(10I8)

%FLAG BONDS_WITHOUT_HYDROGEN
%FORMAT(10I8)
       0      51       1       3      51       1       6      54       1       9
      54       1      12      57       1      15      57       1      18      60
       1      21      60       1      24      63       1      27      63       1
      30      66       1      33      66       1      36      69       1      39
      69       1      42      69       1      45      72       2      48      72
       2      51      54       3      51      57       3      54      60       3
      57      63       3      60      66       3      63      69       3      66
      72       4
%FLAG ANGLES_INC_HYDROGEN
%FORMAT(10I8)

%FLAG ANGLES_WITHOUT_HYDROGEN
%FORMAT(10I8)
       0      51       3       1       0      51      54       2       0      51
      57       2       3      51      54       2       3      51      57       2
       6      54       9       1       6      54      51       2       6      54
      60       2       9      54      51       2       9      54      60       2
      12      57      15       1      12      57      51       2      12      57
      63       2      15      57      51       2      15      57      63       2
      18      60      21       1      18      60      54       2      18      60
      66       2      21      60      54       2      21      60      66       2
      24      63      27       1      24      63      57       2      24      63
      69       2      27      63      57       2      27      63      69       2
      30      66      33       1      30      66      60       2      30      66
      72       3      33      66      60       2      33      66      72       3
      36      69      39       1      36      69      42       1      36      69
      63       2      39      69      42       1      39      69      63       2
      42      69      63       2      45      72      48       4      45      72
      66       5      48      72      66       5      51      54      60       6
      51      57      63       6      54      51      57       6      54      60
      66       6      57      63      69       6      60      66      72       7
%FLAG DIHEDRALS_INC_HYDROGEN
%FORMAT(10I8)

%FLAG DIHEDRALS_WITHOUT_HYDROGEN
%FORMAT(10I8)
       0      51      54       6       1       0      51      54       9       1
       0      51      54      60       2       0      51      57      12       1
       0      51     -57      12       2       0      51      57      15       1
       0      51     -57      15       2       0      51      57      63       2
       3      51      54       6       1       3      51     -54       6       2
       3      51      54       9       1       3      51     -54       9       2
       3      51      54      60       2       3      51      57      12       1
       3      51     -57      12       2       3      51      57      15       1
       3      51     -57      15       2       3      51      57      63       2
       6      54      51      57       2       6      54      60      18       1
       6      54     -60      18       2       6      54      60      21       1
       6      54     -60      21       2       6      54      60      66       2
       9      54      51      57       2       9      54      60      18       1
       9      54     -60      18       2       9      54      60      21       1
       9      54     -60      21       2       9      54      60      66       2
      12      57      51      54       2      12      57      63      24       1
      12      57     -63      24       2      12      57      63      27       1
      12      57     -63      27       2      12      57      63      69       2
      15      57      51      54       2      15      57      63      24       1
      15      57     -63      24       2      15      57      63      27       1
      15      57     -63      27       2      15      57      63      69       2
      18      60      54      51       2      18      60      66      30       1
      18      60     -66      30       2      18      60      66      33       1
      18      60     -66      33       2      18      60      66      72       2
      21      60      54      51       2      21      60      66      30       1
      21      60     -66      30       2      21      60      66      33       1
      21      60     -66      33       2      21      60      66      72       2
      24      63      57      51       2      24      63      69      36       1
      24      63     -69      36       2      24      63      69      39       1
      24      63     -69      39       2      24      63      69      42       1
      24      63     -69      42       2      27      63      57      51       2
      27      63      69      36       1      27      63     -69      36       2
      27      63      69      39       1      27      63     -69      39       2
      27      63      69      42       1      27      63     -69      42       2
      30      66      60      54       2      30      66      72      45       3
      30      66      72      48       3      33      66      60      54       2
      33      66      72      45       3      33      66      72      48       3
      36      69      63      57       2      39      69      63      57       2
      42      69      63      57       2      45      72      66      60       4
      45      72     -66      60       5      45      72     -66      60       6
      48      72      66      60       4      48      72     -66      60       5
      48      72     -66      60       6      51      54      60      66       7
      51      57      63      69       7      54      51      57      63       7
      54      60      66      72       8      54      60     -66      72       9
      54      60     -66      72      10      57      51      54      60       7
      66      45     -72     -48      11
%FLAG EXCLUDED_ATOMS_LIST
%FORMAT(10I8)
       2       3       4       5       6      18      19      20      21      22
       3       4       5       6      18      19      20      21      22       4
       7       8      18      19      20      21      23       7       8      18
      19      20      21      23       6       9      10      18      19      20
      22      24       9      10      18      19      20      22      24       8
      11      12      18      19      21      23      25      11      12      18
      19      21      23      25      10      13      14      15      18      20
      22      24      13      14      15      18      20      22      24      12
      16      17      19      21      23      25      16      17      19      21
      23      25      14      15      20      22      24      15      20      22
      24      20      22      24      17      21      23      25      21      23
      25      19      20      21      22      23      24      20      21      22
      23      25      21      22      24      23      25      24      25       0
       0
%FLAG HBOND_ACOEF
%FORMAT(5E16.8)

%FLAG HBOND_BCOEF
%FORMAT(5E16.8)

%FLAG HBCUT
%FORMAT(5E16.8)

%FLAG AMBER_ATOM_TYPE
%FORMAT(20a4)
f   f   f   f   f   f   f   f   f   f   f   f   f   f   f   o   o   c3  c3  c3  
c3  c3  c3  c3  c   
%FLAG TREE_CHAIN_CLASSIFICATION
%FORMAT(20a4)
BLA BLA BLA BLA BLA BLA BLA BLA BLA BLA BLA BLA BLA BLA BLA BLA BLA BLA BLA BLA 
BLA BLA BLA BLA BLA 
%FLAG JOIN_ARRAY
%FORMAT(10I8)
       0       0       0       0       0       0       0       0       0       0
       0       0       0       0       0       0       0       0       0       0
       0       0       0       0       0
%FLAG IROTAT
%FORMAT(10I8)
       0       0       0       0       0       0       0       0       0       0
       0       0       0       0       0       0       0       0       0       0
       0       0       0       0       0
%FLAG RADIUS_SET
%FORMAT(1a80)
H(N)-modified Bondi radii (mbondi2)                                             
%FLAG RADII
%FORMAT(5E16.8)
  1.50000000E+00  1.50000000E+00  1.50000000E+00  1.50000000E+00  1.50000000E+00
  1.50000000E+00  1.50000000E+00  1.50000000E+00  1.50000000E+00  1.50000000E+00
  1.50000000E+00  1.50000000E+00  1.50000000E+00  1.50000000E+00  1.50000000E+00
  1.50000000E+00  1.50000000E+00  1.70000000E+00  1.70000000E+00  1.70000000E+00
  1.70000000E+00  1.70000000E+00  1.70000000E+00  1.70000000E+00  1.70000000E+00
%FLAG SCREEN
%FORMAT(5E16.8)
  8.80000000E-01  8.80000000E-01  8.80000000E-01  8.80000000E-01  8.80000000E-01
  8.80000000E-01  8.80000000E-01  8.80000000E-01  8.80000000E-01  8.80000000E-01
  8.80000000E-01  8.80000000E-01  8.80000000E-01  8.80000000E-01  8.80000000E-01
  8.50000000E-01  8.50000000E-01  7.20000000E-01  7.20000000E-01  7.20000000E-01
  7.20000000E-01  7.20000000E-01  7.20000000E-01  7.20000000E-01  7.20000000E-01
%FLAG IPOL
%FORMAT(1I8)
       0
