R48
  1692
   4.9770000   8.1820000   8.1190000   4.7560000   6.7240000   7.6960000
   5.1400000   5.7100000   8.8020000   4.2970000   5.8160000  10.0800000
   4.6860000   4.8680000  11.2480000   6.1890000   4.9890000  11.6220000
   6.5610000   6.3450000  12.2500000   8.0540000   6.4870000  12.6170000
   8.9660000   6.2930000  11.3700000   8.8020000   7.3160000  10.2190000
   9.3090000   8.7660000  10.4630000  10.8190000   8.8230000  10.7930000
  11.6880000   8.5740000   9.5680000  13.1800000   8.3430000   9.8560000
  13.3920000   7.2160000  10.9020000  12.7650000   5.8510000  10.5420000
  13.4820000   4.9980000   9.4540000  14.9290000   4.6190000   9.8740000
  14.8830000   3.5700000  10.9760000  16.1510000   3.2730000  11.7740000
  16.7620000   4.5740000  12.3610000  15.8520000   5.4230000  13.2850000
  15.5250000   4.8580000  14.6940000  16.7960000   4.6560000  15.5520000
  17.3850000   5.9870000  16.0210000  18.7720000   5.8990000  16.6740000
  19.7730000   5.1430000  15.7650000  19.9210000   5.6830000  14.3250000
  20.6790000   7.0250000  14.1080000  22.1470000   6.9420000  14.5850000
  22.9620000   6.0750000  13.6290000  24.3740000   5.6920000  14.0660000
  24.3510000   5.0940000  15.4880000  23.3920000   3.8960000  15.7130000
  23.7930000   2.5450000  15.0850000  25.2230000   2.1690000  15.4980000
  25.3150000   1.9350000  17.0020000  26.7160000   1.5980000  17.5520000
  27.6790000   2.7960000  17.2360000  27.3720000   4.1630000  17.8560000
  27.5620000   4.2120000  19.3670000  28.9370000   3.6290000  19.7600000
  30.1940000   4.3620000  19.1950000  30.6700000   5.6590000  19.9130000
  30.5530000   5.3290000  21.4440000  31.2300000   4.0270000  22.0070000
  32.7310000   4.0990000  21.8330000  33.1710000   5.5300000  22.2230000
  32.7470000   5.8810000  23.6430000  33.6780000   5.2730000  24.6710000
  35.1070000   5.7420000  24.3030000  35.2230000   7.2830000  24.1410000
  35.0840000   7.9680000  25.5040000  36.1260000   7.3060000  26.4420000
  37.5440000   7.2660000  25.8280000  38.1570000   8.6670000  25.7660000
  38.0930000   9.2510000  27.1980000  38.6780000   8.3010000  28.2640000
  40.2000000   8.2140000  28.1510000  40.7630000   9.6520000  28.2760000
  40.2040000  10.4250000  29.4860000  40.6940000   9.8340000  30.8120000
  42.2420000   9.8400000  30.8010000  42.8570000  11.2040000  30.4490000
  42.6800000  12.2440000  31.5660000  43.3190000  11.7170000  32.8710000
  44.7550000  11.2150000  32.7050000  45.8020000  12.3190000  32.4320000
  45.8220000  13.3610000  33.5860000  46.2660000  12.6880000  34.8740000
  46.1900000  13.4990000  36.1700000  44.7590000  13.8640000  36.5660000
  46.8560000  12.5980000  37.2020000  48.1170000  12.9430000  37.6910000
  48.8460000  12.0310000  38.4480000  48.3340000  10.7540000  38.7190000
  49.1600000   9.7630000  39.4960000  48.8810000   9.6850000  40.9870000
  47.4600000   9.2490000  41.2940000  49.8450000   8.6640000  41.6000000
  49.1490000  11.0450000  41.6470000  47.0530000  10.4210000  38.2640000
  46.3180000  11.3380000  37.5230000  47.1920000  11.7700000  32.1250000
  47.5050000  10.4090000  32.2110000  48.8140000   9.9700000  32.0420000
  49.8420000  10.8810000  31.7730000  51.2730000  10.4120000  31.6970000
  51.6970000   9.7970000  30.3480000  53.0970000   9.2000000  30.5560000
  50.7730000   8.7040000  29.8800000  51.7890000  10.8920000  29.2930000
  49.5280000  12.2360000  31.6280000  48.2150000  12.6730000  31.7960000
  43.1080000  13.6500000  31.2030000  43.7570000  13.9690000  30.0040000
  44.2550000  15.2480000  29.7910000  44.1030000  16.2410000  30.7660000
  44.6980000  17.6110000  30.5580000  43.7520000  18.6270000  29.9110000
  42.5640000  18.9290000  30.8140000  44.5520000  19.9310000  29.7270000
  43.2680000  18.1620000  28.5570000  43.3890000  15.9500000  31.9320000
  42.8800000  14.6720000  32.1370000  40.0680000  10.4220000  32.0620000
  39.2160000  11.5330000  32.0360000  38.8450000  12.1600000  33.2210000
  39.2980000  11.6780000  34.4560000  39.0050000  12.4430000  35.7240000
  37.6700000  12.1170000  36.3910000  37.4920000  13.1200000  37.5510000
  36.4970000  12.2730000  35.4500000  37.6890000  10.7140000  36.9770000
  40.0530000  10.5030000  34.4920000  40.4150000   9.8710000  33.3060000
  40.8650000   7.1610000  29.0210000  40.1760000   6.4260000  29.9950000
  40.8650000   5.5930000  30.8720000  42.2570000   5.4600000  30.7820000
  43.0030000   4.6170000  31.7830000  43.2060000   3.1540000  31.3610000
  44.0800000   3.0530000  30.1260000  43.9250000   2.4440000  32.5230000
  41.8800000   2.4620000  31.1250000  42.9370000   6.1230000  29.7530000
  42.2440000   6.9460000  28.8710000  39.5080000   8.7650000  25.0750000
  40.2330000   7.6450000  24.6450000  41.5530000   7.7790000  24.2210000
  42.1700000   9.0370000  24.1940000  43.6360000   9.1660000  23.8620000
  43.9630000   9.2980000  22.3710000  45.4940000   9.2550000  22.2370000
  43.3710000   8.1840000  21.5530000  43.4790000  10.6500000  21.8430000
  41.4150000  10.1690000  24.5110000  40.0930000  10.0330000  24.9270000
  35.0660000   9.4870000  25.5190000  35.3510000  10.2790000  24.4000000
  35.4950000  11.6620000  24.5310000  35.3350000  12.2870000  25.7760000
  35.5590000  13.7750000  25.9330000  34.3120000  14.6360000  25.7570000
  33.2760000  14.3610000  26.8380000  34.7440000  16.1160000  25.8990000
  33.6940000  14.4600000  24.3890000  34.9580000  11.5090000  26.8750000
  34.8030000  10.1320000  26.7410000  33.1870000   5.4900000  26.0920000
  32.0940000   6.3180000  26.3970000  31.7630000   6.6140000  27.7110000
  32.4870000   6.0490000  28.7660000  32.1350000   6.4070000  30.1900000
  30.9400000   5.6520000  30.7660000  30.6510000   6.2480000  32.1600000
  29.6770000   5.7940000  29.9390000  31.2760000   4.1780000  30.9360000
  33.5260000   5.1640000  28.4740000  33.8610000   4.8720000  27.1530000
  33.6920000   3.0490000  22.3460000  33.3360000   2.0420000  23.2400000
  34.3230000   1.2110000  23.7780000  35.6720000   1.3590000  23.4250000
  36.7320000   0.4680000  24.0270000  37.1920000  -0.6860000  23.1120000
  37.9370000  -0.1900000  21.8880000  38.1530000  -1.5630000  23.9300000
  36.0010000  -1.5240000  22.6920000  36.0210000   2.3360000  22.4870000
  35.0380000   3.1450000  21.9360000  31.9420000   6.4260000  19.3210000
  33.2470000   5.9200000  19.2990000  34.3910000   6.5410000  18.7540000
  34.3160000   7.7620000  18.1110000  35.6150000   8.3290000  17.5260000
  35.7620000   8.4570000  16.0010000  35.3210000   7.2480000  15.2360000
  34.9930000   9.6860000  15.5050000  37.2550000   8.6910000  15.6520000
  33.0390000   8.3500000  18.1270000  31.8830000   7.6990000  18.7130000
  27.3280000   5.5580000  20.0210000  27.1220000   5.5790000  21.4100000
  27.1770000   6.7780000  22.1170000  27.4250000   7.9820000  21.4490000
  27.6940000   9.2520000  22.2240000  29.1340000   9.3560000  22.8030000
  29.4000000   8.2840000  23.8460000  30.1610000   9.2980000  21.7090000
  29.2480000  10.7110000  23.5150000  27.4940000   7.9760000  20.0500000
  27.4280000   6.7740000  19.3400000  26.5910000   1.1940000  19.0660000
  25.3700000   1.3270000  19.7590000  25.1430000   0.6810000  20.9680000
  26.1200000  -0.1400000  21.5280000  25.7410000  -1.0280000  22.6900000
  25.0490000  -2.3460000  22.2570000  23.7780000  -2.1080000  21.4530000
  25.9930000  -3.1710000  21.4310000  24.6620000  -3.1170000  23.5240000
  27.3760000  -0.2140000  20.9100000  27.6110000   0.4520000  19.7010000
  27.1630000   0.3370000  16.7840000  28.0470000   0.3640000  15.7030000
  28.4010000  -0.8070000  15.0540000  27.9600000  -2.0470000  15.5230000
  28.3690000  -3.3950000  14.9070000  29.3810000  -3.2120000  13.7210000
  30.7750000  -2.7260000  14.1490000  31.7290000  -2.5980000  12.9770000
  33.0140000  -1.9850000  13.5120000  33.9900000  -1.7190000  12.3750000
  35.1970000  -0.9580000  12.8840000  36.0640000  -0.4610000  11.7200000
  37.2320000   0.4380000  12.1810000  38.1750000  -0.2050000  13.2310000
  38.5390000  -1.6300000  12.7520000  39.0970000  -1.6520000  11.3160000
  40.4420000  -0.9750000  11.2010000  41.4260000  -1.6280000  12.2200000
  41.4640000  -3.1620000  12.0840000  42.0690000  -3.6280000  10.7070000
  43.4630000  -2.9870000  10.5710000  44.3950000  -3.2150000  11.7730000
  44.7600000  -4.6920000  11.9350000  45.3960000  -5.2010000  10.6200000
  46.5540000  -4.3310000  10.1090000  47.7850000  -4.3990000  11.0220000
  48.2570000  -5.8730000  11.1420000  48.4030000  -6.6090000   9.7980000
  49.5240000  -6.0320000   8.9200000  50.8790000  -6.1200000   9.6640000
  51.2260000  -7.5150000  10.1990000  51.4790000  -8.5550000   9.0930000
  52.6480000  -8.1150000   8.1780000  53.9350000  -7.7090000   8.9050000
  54.6560000  -8.8450000   9.6670000  55.0590000 -10.0030000   8.7220000
  56.1140000  -9.5690000   7.7130000  56.4040000 -10.5810000   6.5950000
  55.2250000 -10.7620000   5.6350000  57.6340000 -10.1100000   5.8380000
  58.7140000 -10.9800000   5.6790000  59.8880000 -10.5470000   5.0630000
  60.0120000  -9.2260000   4.6020000  61.3060000  -8.7830000   3.9590000
  61.2810000  -8.6340000   2.4350000  60.8160000  -9.9310000   1.7780000
  60.4100000  -7.4860000   1.9700000  62.7210000  -8.3530000   1.9720000
  58.9240000  -8.3570000   4.7500000  57.7420000  -8.8010000   5.3400000
  55.8000000  -8.3770000  10.5540000  56.2720000  -7.0590000  10.5520000
  57.3370000  -6.6830000  11.3650000  57.9650000  -7.6180000  12.1980000
  59.1380000  -7.2000000  13.0480000  58.7680000  -6.7450000  14.4770000
  58.2330000  -7.9080000  15.2950000  60.0630000  -6.2490000  15.1390000
  57.7710000  -5.6140000  14.4590000  57.4840000  -8.9320000  12.2220000
  56.4110000  -9.3030000  11.4150000  51.5950000  -9.9880000   9.5820000
  51.7580000 -10.3150000  10.9310000  52.0190000 -11.6270000  11.3090000
  52.0510000 -12.6590000  10.3630000  52.3770000 -14.0790000  10.7610000
  51.2920000 -14.8030000  11.5890000  51.0140000 -14.1240000  12.9120000
  50.0160000 -14.9260000  10.7840000  51.8340000 -16.2110000  11.8910000
  51.8220000 -12.3440000   9.0190000  51.5960000 -11.0240000   8.6350000
  49.5440000  -6.5100000   7.4790000  48.7490000  -7.5590000   7.0090000
  48.8810000  -8.0140000   5.7000000  49.8010000  -7.4200000   4.8240000
  49.9670000  -7.9540000   3.4200000  49.0980000  -7.2650000   2.3610000
  49.5480000  -5.8280000   2.1270000  49.2890000  -8.0390000   1.0410000
  47.6330000  -7.2940000   2.7270000  50.5540000  -6.3300000   5.2700000
  50.4120000  -5.8710000   6.5770000  48.8840000  -3.4040000  10.6940000
  48.9190000  -2.6880000   9.4930000  50.0350000  -1.9290000   9.1560000
  51.1100000  -1.7900000  10.0410000  52.3440000  -1.0050000   9.6550000
  52.1650000   0.5140000   9.5340000  51.1780000   0.9160000   8.4550000
  51.7540000   1.1150000  10.8620000  53.5360000   1.1000000   9.1310000
  51.0430000  -2.4410000  11.2790000  49.9440000  -3.2370000  11.6000000
  45.4980000  -5.0590000  13.2100000  46.0050000  -4.1070000  14.1020000
  46.7790000  -4.5020000  15.1900000  47.0470000  -5.8580000  15.4220000
  47.9340000  -6.2710000  16.5690000  47.2000000  -6.5080000  17.8990000
  46.3060000  -7.7330000  17.8100000  48.2740000  -6.7670000  18.9690000
  46.3880000  -5.3010000  18.3130000  46.4820000  -6.8170000  14.5760000
  45.7030000  -6.4200000  13.4930000  41.9420000  -5.0910000  10.4300000
  41.6450000  -6.0430000  11.4060000  41.7250000  -7.4010000  11.1110000
  42.0160000  -7.8420000   9.8130000  42.1430000  -9.3130000   9.4910000
  40.8320000 -10.1270000   9.5530000  40.2050000 -10.1280000  10.9230000
  39.8510000  -9.6020000   8.5180000  41.1940000 -11.5810000   9.1980000
  42.2340000  -6.8880000   8.8140000  42.1970000  -5.5290000   9.1200000
  40.9410000  -0.7800000   9.7860000  40.3020000  -1.3610000   8.6770000
  40.8630000  -1.2620000   7.4070000  42.0530000  -0.5570000   7.2110000
  42.6710000  -0.4890000   5.8360000  42.1430000   0.6210000   4.9380000
  42.5440000   1.9900000   5.4690000  42.7790000   0.4350000   3.5490000
  40.6320000   0.5680000   4.7690000  42.6490000   0.0940000   8.2960000
  42.0840000  -0.0030000   9.5660000  39.3290000   0.7060000  13.6750000
  39.6490000   1.8770000  12.9740000  40.8130000   2.5900000  13.2480000
  41.6620000   2.2270000  14.2960000  42.9510000   2.9870000  14.5410000
  42.8000000   4.4370000  15.0450000  42.0760000   5.3400000  14.0520000
  42.1020000   4.4690000  16.3790000  44.2220000   5.0210000  15.2050000
  41.3110000   1.1050000  15.0610000  40.1600000   0.3560000  14.7540000
  34.7950000   0.2630000  13.6550000  34.0090000   1.2300000  12.9960000
  33.8720000   2.4380000  13.5690000  34.5290000   2.7070000  14.7520000
  34.1760000   3.9390000  15.4570000  33.1170000   3.6850000  16.5200000
  33.7960000   3.2530000  17.8080000  32.3700000   4.9850000  16.5700000
  32.0870000   2.5980000  16.1980000  35.3040000   1.7450000  15.4340000
  35.3780000   0.4850000  14.8920000  31.9960000  -3.9500000  12.3660000
  31.6790000  -4.1710000  11.0250000  31.9490000  -5.4040000  10.4490000
  32.5410000  -6.4250000  11.2090000  32.9490000  -7.7210000  10.5690000
  34.3530000  -7.7180000   9.9530000  35.4120000  -7.3060000  10.9710000
  34.6500000  -9.1280000   9.4670000  34.4190000  -6.7560000   8.7650000
  32.8370000  -6.2050000  12.5590000  32.5740000  -4.9760000  13.1290000
  29.1960000  -4.1640000  16.0230000  28.6400000  -4.5790000  17.3820000
  27.5130000  -5.5920000  17.3160000  27.9480000  -6.8720000  16.5640000
  29.2110000  -7.6320000  17.0200000  29.0990000  -8.2550000  18.4100000
  27.7840000  -9.0600000  18.5400000  27.4570000 -10.0460000  17.4060000
  28.4360000 -11.2120000  17.2400000  28.6600000 -11.8650000  18.6220000
  27.3920000 -12.3000000  19.3690000  26.7150000 -13.5230000  18.7530000
  27.7790000 -14.6320000  18.5980000  28.4960000 -15.0360000  19.9020000
  27.6170000 -15.8830000  20.8320000  27.0260000 -17.0420000  20.0000000
  28.0790000 -17.8880000  19.2560000  28.8420000 -18.8360000  20.1860000
  27.7930000 -19.6600000  20.9730000  26.7460000 -20.3590000  20.0750000
  27.3540000 -21.5200000  19.2810000  28.0470000 -22.4680000  20.2880000
  27.1370000 -22.9210000  21.4420000  26.0910000 -23.9430000  20.9880000
  26.8340000 -25.1330000  20.3320000  27.9770000 -25.7090000  21.1900000
  27.4640000 -26.4400000  22.4380000  26.4740000 -27.5450000  21.9860000
  27.0290000 -28.4880000  20.9050000  28.0980000 -29.4570000  21.4360000
  27.5200000 -30.2930000  22.5990000  26.1800000 -30.9610000  22.2890000
  26.2410000 -32.1310000  21.2790000  27.2070000 -33.2430000  21.7770000
  26.6820000 -33.8420000  23.0730000  27.5810000 -34.8270000  23.8250000
  28.8630000 -34.1830000  24.3530000  26.6990000 -35.3460000  24.9530000
  26.2290000 -36.6600000  24.9010000  25.2430000 -37.0860000  25.7870000
  24.7000000 -36.2040000  26.7320000  23.5920000 -36.6640000  27.6450000
  24.0260000 -37.1830000  29.0080000  24.7340000 -36.1260000  29.8320000
  22.7680000 -37.6280000  29.7650000  24.9420000 -38.4000000  28.8520000
  25.1990000 -34.8990000  26.8140000  26.1950000 -34.4780000  25.9400000
  24.8610000 -32.6810000  20.9260000  23.6880000 -32.2340000  21.5480000
  22.4670000 -32.8460000  21.2880000  22.3810000 -33.9150000  20.3900000
  21.0680000 -34.6320000  20.1950000  20.0760000 -33.9550000  19.2340000
  18.7370000 -34.6970000  19.3770000  19.8450000 -32.4950000  19.5420000
  20.5620000 -34.1100000  17.7990000  23.5360000 -34.3320000  19.7220000
  24.7610000 -33.7170000  19.9840000  28.7940000 -30.2880000  20.3780000
  28.3960000 -30.3080000  19.0350000  28.9970000 -31.1820000  18.1360000
  30.0170000 -32.0450000  18.5540000  30.6310000 -33.0220000  17.5850000
  31.8660000 -32.4900000  16.8390000  33.0190000 -32.2430000  17.8000000
  32.2950000 -33.5850000  15.8470000  31.5530000 -31.2320000  16.0650000
  30.4610000 -31.9840000  19.8790000  29.8680000 -31.1020000  20.7740000
  28.5370000 -26.9250000  23.3980000  29.9050000 -26.8730000  23.1040000
  30.8240000 -27.5430000  23.9100000  30.3980000 -28.2590000  25.0370000
  31.3720000 -29.1130000  25.8120000  32.1540000 -28.3960000  26.9130000
  33.2110000 -29.3870000  27.4350000  32.8630000 -27.1610000  26.4100000
  31.2310000 -28.0320000  28.0700000  29.0500000 -28.2090000  25.4020000
  28.1350000 -27.5310000  24.6000000  25.0590000 -24.3150000  22.0410000
  25.1470000 -23.9040000  23.3780000  24.2560000 -24.3910000  24.3310000
  23.2410000 -25.2840000  23.9680000  22.3130000 -25.8470000  25.0170000
  21.0720000 -24.9980000  25.3030000  20.1460000 -24.9700000  24.0960000
  20.3180000 -25.6630000  26.4710000  21.4270000 -23.5860000  25.7150000
  23.0980000 -25.6360000  22.6220000  23.9850000 -25.1410000  21.6680000
  26.4270000 -22.2110000  18.2920000  25.0560000 -21.9420000  18.2100000
  24.2230000 -22.7440000  17.4290000  24.7440000 -23.8190000  16.6930000
  23.8250000 -24.7600000  15.9500000  23.4260000 -24.3250000  14.5400000
  22.3630000 -25.3220000  14.0340000  22.8190000 -22.9380000  14.5140000
  24.6190000 -24.3890000  13.5990000  26.1260000 -24.0250000  16.6900000
  26.9570000 -23.2170000  17.4650000  29.9510000 -19.6410000  19.5180000
  30.1430000 -19.6730000  18.1290000  31.0440000 -20.5670000  17.5520000
  31.8010000 -21.4350000  18.3500000  32.7230000 -22.4520000  17.7130000
  34.1310000 -21.9380000  17.3930000  34.8960000 -21.6430000  18.6770000
  34.8750000 -23.0570000  16.6400000  34.1050000 -20.7110000  16.5100000
  31.6840000 -21.3450000  19.7400000  30.7850000 -20.4440000  20.3150000
  28.2750000 -16.3220000  22.1350000  29.6450000 -16.1830000  22.3850000
  30.2360000 -16.7600000  23.5090000  29.4640000 -17.4780000  24.4300000
  30.1160000 -18.1430000  25.6220000  30.2160000 -17.2700000  26.8720000
  28.8340000 -16.9540000  27.4330000  30.9850000 -18.0690000  27.9460000
  30.9710000 -15.9850000  26.6160000  28.0810000 -17.5560000  24.2290000
  27.4940000 -16.9680000  23.1070000  25.4240000 -13.9390000  19.4500000
  25.0130000 -13.4090000  20.6820000  23.8870000 -13.9060000  21.3410000
  23.1350000 -14.9520000  20.7930000  21.9540000 -15.5100000  21.5650000
  20.5700000 -15.1920000  20.9990000  20.2690000 -15.9850000  19.7290000
  19.5210000 -15.6180000  22.0530000  20.4000000 -13.7130000  20.7340000
  23.5180000 -15.4580000  19.5450000  24.6230000 -14.9320000  18.8680000
  28.0640000 -12.1720000  16.1090000  26.8380000 -12.1070000  15.4270000
  26.4740000 -13.0860000  14.4990000  27.3260000 -14.1500000  14.2020000
  26.8820000 -15.2390000  13.2470000  27.1460000 -14.9770000  11.7660000
  26.5910000 -13.6460000  11.2990000  28.6340000 -15.0520000  11.4610000
  26.4410000 -16.0880000  10.9520000  28.5850000 -14.1830000  14.8170000
  28.9530000 -13.1950000  15.7410000  30.3130000  -8.9950000  18.9570000
  30.3520000  -9.2420000  20.3440000  31.3480000 -10.0320000  20.9150000
  32.3660000 -10.5740000  20.1230000  33.4120000 -11.4610000  20.7700000
  33.3030000 -12.9650000  20.4810000  33.6050000 -13.2960000  19.0290000
  34.3420000 -13.6930000  21.3550000  31.9290000 -13.4900000  20.8430000
  32.3700000 -10.2750000  18.7510000  31.3560000  -9.4950000  18.1740000
  26.8520000  -5.8390000  18.6650000  25.5260000  -6.2960000  18.6810000
  24.9210000  -6.6780000  19.8760000  25.6330000  -6.6260000  21.0830000
  25.0030000  -7.1040000  22.3700000  25.1070000  -8.6020000  22.6120000
  24.3550000  -8.9140000  23.9240000  24.4650000  -9.4090000  21.4990000
  26.5570000  -9.0250000  22.7860000  26.9480000  -6.1440000  21.0770000
  27.5320000  -5.7140000  19.8870000  27.1310000  -4.1340000  14.3010000
  25.8370000  -3.5760000  14.3200000  24.7190000  -4.2770000  13.8860000
  24.8460000  -5.5530000  13.3460000  23.6170000  -6.2720000  12.8570000
  23.1960000  -5.9540000  11.4270000  21.8340000  -6.6180000  11.1620000
  23.0670000  -4.4660000  11.1510000  24.2050000  -6.5440000  10.4380000
  26.1260000  -6.0940000  13.2210000  27.2480000  -5.3860000  13.6750000
  27.0440000  -2.0550000  16.5830000  26.6130000  -0.8930000  17.1630000
  22.8520000   1.3730000  15.3680000  21.6760000   1.4880000  16.1180000
  20.8780000   0.3690000  16.3680000  21.2550000  -0.8920000  15.8920000
  20.3650000  -2.0910000  16.0730000  19.6590000  -2.5750000  14.7900000
  20.5940000  -3.0620000  13.7130000  18.7570000  -3.7520000  15.1650000
  18.8450000  -1.4250000  14.2030000  22.4490000  -1.0120000  15.1830000
  23.2090000   0.1050000  14.8840000  25.0320000   4.7530000  13.0440000
  24.3090000   4.1950000  11.9800000  24.8630000   3.2180000  11.1660000
  26.1810000   2.8040000  11.3570000  26.7620000   1.7810000  10.4220000
  27.2380000   2.3090000   9.0770000  28.4130000   3.2590000   9.2610000
  27.6720000   1.1290000   8.2120000  26.1360000   3.0550000   8.3070000
  26.9380000   3.3950000  12.3760000  26.3710000   4.3720000  13.2010000
  20.6420000   7.5490000  12.6800000  20.0840000   6.8530000  11.6040000
  20.1520000   7.3610000  10.3070000  20.8040000   8.5750000  10.0540000
  20.8320000   9.1670000   8.6660000  19.8790000  10.3410000   8.4380000
  20.1980000  11.5460000   9.3410000  20.0510000  10.8200000   6.9890000
  18.4390000   9.9240000   8.6580000  21.3890000   9.2640000  11.1200000
  21.2770000   8.7830000  12.4170000  19.3350000   7.2660000  17.0450000
  18.7150000   8.4600000  16.6510000  19.3780000   9.6740000  16.7630000
  20.6520000   9.7380000  17.3310000  21.3680000  11.0590000  17.4320000
  20.8820000  11.9930000  18.5250000  21.0270000  11.3520000  19.8950000
  21.7300000  13.2690000  18.4700000  19.4220000  12.4170000  18.3340000
  21.2400000   8.5640000  17.8160000  20.5820000   7.3430000  17.6830000
  14.4970000   5.6270000  15.5070000  13.9870000   6.8720000  15.1320000
  13.0990000   7.5460000  15.9690000  12.7060000   6.9950000  17.1990000
  11.7020000   7.6960000  18.0810000  10.3120000   7.0510000  18.1470000
   9.4220000   7.9200000  19.0510000   9.6690000   6.9760000  16.7770000
  10.3330000   5.6540000  18.7470000  13.2460000   5.7690000  17.5840000
  14.0980000   5.0790000  16.7370000  15.8620000   2.2310000  12.8640000
  14.5570000   1.7620000  13.1090000  14.2520000   1.0340000  14.2480000
  15.2490000   0.6980000  15.1580000  14.8940000  -0.1100000  16.3800000
  14.5850000  -1.5910000  16.1070000  13.2620000  -1.7810000  15.3430000
  15.6700000  -2.2400000  15.3230000  14.4300000  -2.2950000  17.4580000
  16.5640000   1.1100000  14.8980000  16.8740000   1.8370000  13.7450000
  12.7300000   3.7420000   9.0140000  11.5430000   3.3110000   9.6180000
  10.9130000   2.1420000   9.1820000  11.4860000   1.3530000   8.1790000
  10.7580000   0.1430000   7.6430000  10.0460000   0.3400000   6.3080000
   9.4210000  -1.0040000   5.8940000   8.9220000   1.3650000   6.4430000
  10.9710000   0.7730000   5.1750000  12.6950000   1.7580000   7.6050000
  13.2800000   2.9610000   7.9900000  13.9690000   8.0460000   8.5840000
  13.3340000   7.8610000   7.3450000  14.0270000   7.3460000   6.2590000
  15.3840000   7.0470000   6.3670000  16.1270000   6.5140000   5.1710000
  16.5330000   7.5610000   4.1510000  15.3160000   8.2480000   3.5070000
  17.4240000   8.6160000   4.7680000  17.3050000   6.8590000   3.0260000
  16.0430000   7.2890000   7.5790000  15.3470000   7.8070000   8.6690000
   9.0120000   9.7810000   9.3770000   8.4910000   9.4390000   8.1270000
   8.2620000  10.4230000   7.1650000   8.5960000  11.7580000   7.4190000
   8.3150000  12.8280000   6.3870000   7.1910000  13.8010000   6.7310000
   7.4560000  14.6320000   7.9760000   7.0490000  14.7810000   5.5520000
   5.8690000  13.0570000   6.8980000   9.1660000  12.0900000   8.6510000
   9.3300000  11.1240000   9.6310000   8.4090000   7.7800000  13.3560000
   7.4990000   8.8360000  13.5240000   7.9390000  10.1020000  13.9230000
   9.2940000  10.3410000  14.1770000   9.7940000  11.7310000  14.4840000
   9.7300000  12.1440000  15.9520000  10.3000000  13.5670000  16.0740000
   8.2710000  12.1970000  16.4360000  10.5200000  11.2280000  16.8320000
  10.1850000   9.2670000  14.1080000   9.7420000   7.9970000  13.7350000
   3.8140000   5.0630000  12.4940000   2.7400000   5.9650000  12.5300000
   2.0230000   6.1930000  13.7070000   2.3660000   5.5320000  14.8880000
   1.5860000   5.8040000  16.1530000   0.6460000   4.6960000  16.6210000
  -0.4350000   4.4480000  15.5630000   1.3490000   3.3910000  16.9250000
  -0.0460000   5.1750000  17.9070000   3.4290000   4.6200000  14.8580000
   4.1150000   4.3620000  13.6730000   3.3730000   6.4740000   7.1330000
   3.2220000   5.5820000   6.0630000   1.9690000   5.3650000   5.4850000
   0.8380000   6.0350000   5.9680000  -0.5150000   5.8340000   5.3220000
  -1.4070000   4.7750000   5.9820000  -0.7880000   3.3960000   5.8740000
  -1.7040000   5.0960000   7.4360000  -2.7480000   4.7640000   5.2200000
   0.9830000   6.9030000   7.0570000   2.2320000   7.1150000   7.6360000
   6.0040000   8.3280000   8.4540000   4.3270000   8.4990000   8.9390000
   4.7980000   8.8600000   7.2760000   5.4680000   6.5590000   6.8730000
   6.1950000   5.8820000   9.0340000   5.0690000   4.6890000   8.4090000
   3.2550000   5.6050000   9.8120000   4.3330000   6.8500000  10.4370000
   4.5170000   3.8390000  10.9000000   6.7830000   4.7910000  10.7270000
   6.4760000   4.1920000  12.3190000   5.9760000   6.4810000  13.1690000
   6.2660000   7.1540000  11.5750000   8.2840000   5.6740000  13.3230000
   8.7780000   5.2970000  10.9520000  10.0120000   6.2310000  11.6800000
   7.7460000   7.3520000   9.9370000   9.3180000   6.8970000   9.3470000
   8.7560000   9.1560000  11.3120000  11.0340000   8.0820000  11.5540000
  11.0970000   9.7870000  11.2370000  11.5980000   9.4270000   8.8830000
  11.2840000   7.7070000   9.0390000  13.5870000   9.2740000  10.2750000
  12.9570000   7.5400000  11.8570000  14.4510000   7.1090000  11.1440000
  11.7300000   6.0100000  10.2320000  12.6810000   5.2810000  11.4740000
  13.5360000   5.5850000   8.5440000  15.4580000   5.5140000  10.1940000
  15.5050000   4.2320000   9.0250000  14.5380000   2.6270000  10.5330000
  14.1210000   3.8850000  11.6910000  16.8890000   2.8260000  11.0900000
  17.0590000   5.2180000  11.5220000  17.7080000   4.3440000  12.8530000
  14.9110000   5.6180000  12.7650000  16.3260000   6.4060000  13.3850000
  15.0490000   3.8910000  14.5530000  17.5210000   4.1000000  14.9640000
  16.5960000   4.0250000  16.4270000  16.6980000   6.4590000  16.7340000
  17.4390000   6.6550000  15.1580000  18.6640000   5.3340000  17.6100000
  19.4440000   4.0960000  15.6920000  20.7410000   5.0640000  16.2600000
  18.9250000   5.7910000  13.8930000  20.3910000   4.8870000  13.7370000
  20.1740000   7.7960000  14.6830000  22.1630000   6.5470000  15.5990000
  22.6090000   7.9330000  14.6570000  23.0360000   6.5720000  12.6550000
  22.3970000   5.1530000  13.4670000  24.9810000   6.6090000  14.0920000
  24.0510000   5.8830000  16.1890000  25.3660000   4.8550000  15.8020000
  22.3980000   4.1480000  15.3510000  23.2710000   3.7840000  16.7970000
  23.7660000   2.6480000  13.9990000  25.9080000   2.9540000  15.2070000
  25.5640000   1.2930000  14.9400000  24.6200000   1.1240000  17.2540000
  24.9530000   2.8250000  17.5230000  27.6860000   2.9970000  16.1590000
  28.7180000   2.5040000  17.4250000  26.3610000   4.4920000  17.6100000
  28.0350000   4.8880000  17.3660000  26.7820000   3.5770000  19.7950000
  29.0210000   2.6040000  19.3960000  28.9490000   3.4690000  20.8400000
  30.0060000   4.5600000  18.1420000  31.0120000   3.6360000  19.2350000
  29.8920000   6.4000000  19.7370000  29.5080000   5.2010000  21.7060000
  30.7930000   6.2260000  22.0120000  30.8680000   3.1140000  21.5220000
  30.9500000   3.8920000  23.0570000  32.8100000   3.8710000  20.7810000
  32.6960000   6.3090000  21.6290000  34.2140000   5.7260000  21.9740000
  31.7200000   5.5750000  23.8510000  32.6940000   6.9730000  23.7340000
  33.6550000   4.1890000  24.5770000  35.4390000   5.3140000  23.3570000
  35.8360000   5.2940000  24.9800000  34.5020000   7.6890000  23.4270000
  36.1750000   7.5320000  23.6580000  34.0930000   7.7480000  25.8880000
  35.8700000   6.2680000  26.6450000  36.0730000   7.7260000  27.4460000
  37.5590000   6.8000000  24.8410000  38.1680000   6.5750000  26.4060000
  37.5370000   9.2830000  25.1180000  37.0650000   9.4250000  27.5030000
  38.4960000  10.2650000  27.2290000  38.2300000   7.3060000  28.2180000
  38.3640000   8.6360000  29.2600000  40.4460000   7.8460000  27.1580000
  40.4900000  10.2460000  27.4050000  41.8540000   9.6600000  28.2190000
  39.1110000  10.4630000  29.4640000  40.4700000  11.4830000  29.3910000
  40.3590000   8.7990000  30.8660000  42.6140000   9.1540000  30.0410000
  42.6520000   9.4110000  31.7190000  42.4500000  11.5830000  29.5070000
  43.9160000  11.0620000  30.2060000  41.6130000  12.3710000  31.7400000
  42.7520000  10.8530000  33.2250000  43.2220000  12.4250000  33.6960000
  44.7950000  10.4620000  31.9120000  45.0070000  10.6320000  33.5970000
  45.5230000  12.8310000  31.5120000  44.8350000  13.7990000  33.7220000
  46.4830000  14.2020000  33.3520000  47.2970000  12.3410000  34.7340000
  45.6580000  11.7950000  35.0250000  46.7640000  14.4250000  36.0500000
  44.1170000  12.9810000  36.6540000  44.3010000  14.5300000  35.8270000
  44.7460000  14.3800000  37.5320000  48.5670000  13.9080000  37.4560000
  49.8310000  12.3260000  38.8100000  50.2270000   9.9970000  39.3700000
  49.0070000   8.7610000  39.0750000  47.2740000   8.2960000  40.7880000
  46.7610000  10.0090000  40.9340000  47.3480000   9.1340000  42.3740000
  49.6490000   7.6950000  41.1310000  49.6600000   8.6130000  42.6760000
  50.8680000   8.9880000  41.3910000  48.4200000  11.7670000  41.2670000
  50.1670000  11.3540000  41.4010000  49.0260000  10.9290000  42.7270000
  46.6230000   9.4450000  38.4740000  45.3460000  11.0350000  37.1440000
  46.7630000   9.6640000  32.4760000  49.0290000   8.9130000  32.1750000
  51.4350000   9.6500000  32.4700000  51.9600000  11.2410000  31.9060000
  53.0150000   8.4040000  31.3030000  53.7640000   9.9950000  30.9020000
  53.4350000   8.7890000  29.6010000  50.6820000   7.9480000  30.6680000
  51.1850000   8.2530000  28.9730000  49.7950000   9.1310000  29.6410000
  52.4740000  11.6670000  29.6450000  50.7890000  11.3010000  29.1270000
  52.1550000  10.4400000  28.3650000  50.3060000  12.9770000  31.4440000
  48.0170000  13.7430000  31.7350000  43.9610000  13.2190000  29.2460000
  44.8030000  15.4570000  28.8740000  45.5760000  17.5240000  29.9060000
  45.0400000  18.0240000  31.5150000  42.9360000  19.2300000  31.7980000
  41.9460000  18.0320000  30.8940000  41.9730000  19.7270000  30.3560000
  44.8950000  20.2600000  30.7120000  43.8910000  20.6710000  29.2710000
  45.3990000  19.7130000  29.0700000  42.6390000  17.2780000  28.6870000
  44.1350000  17.9180000  27.9350000  42.6750000  18.9570000  28.0990000
  43.2520000  16.7000000  32.7090000  42.3730000  14.4680000  33.0800000
  38.9040000  11.9980000  31.1060000  38.2450000  13.0680000  33.1700000
  39.0140000  13.5170000  35.4990000  39.7980000  12.2620000  36.4620000
  37.4650000  14.1260000  37.1200000  38.3430000  13.0090000  38.2280000
  36.5500000  12.8900000  38.0550000  36.5270000  13.2720000  35.0070000
  35.5690000  12.1240000  36.0070000  36.5650000  11.5090000  34.6670000
  38.5410000  10.6260000  37.6560000  37.7810000   9.9960000  36.1570000
  36.7460000  10.5430000  37.5040000  40.4220000  10.1050000  35.4370000
  41.0690000   9.0020000  33.3670000  39.1100000   6.5530000  30.1600000
  40.3110000   5.0880000  31.6620000  42.4590000   4.6090000  32.7360000
  43.9940000   5.0490000  31.9750000  45.0180000   3.5870000  30.3090000
  43.5490000   3.4930000  29.2780000  44.2680000   1.9970000  29.9150000
  44.8810000   2.9490000  32.6880000  44.0790000   1.4010000  32.2360000
  43.2860000   2.5130000  33.4080000  41.3920000   2.9130000  30.2560000
  41.2550000   2.5770000  32.0160000  42.0660000   1.4050000  30.9150000
  44.0190000   6.0450000  29.6600000  42.8110000   7.5000000  28.1250000
  39.8280000   6.6420000  24.7320000  42.1160000   6.8820000  23.9730000
  44.1610000   8.2760000  24.2330000  44.0690000  10.0330000  24.3780000
  45.8340000   8.2820000  22.6050000  45.9160000  10.0660000  22.8360000
  45.7460000   9.3700000  21.1790000  43.6940000   7.2240000  21.9740000
  43.7090000   8.2770000  20.5200000  42.2780000   8.2550000  21.5770000
  43.9190000  11.4430000  22.4510000  42.3880000  10.6740000  21.9020000
  43.7860000  10.7370000  20.7970000  41.8630000  11.1630000  24.5040000
  39.5590000  10.9310000  25.2440000  35.5540000   9.8390000  23.4290000
  35.7770000  12.2520000  23.6590000  36.2970000  14.1080000  25.1920000
  35.9790000  13.9870000  26.9250000  33.7490000  14.4790000  27.8190000
  32.9120000  13.3340000  26.7150000  32.4420000  15.0510000  26.7140000
  35.1830000  16.2450000  26.8920000  33.8560000  16.7410000  25.7750000
  35.4810000  16.3250000  25.1170000  33.3190000  13.4350000  24.3030000
  34.4630000  14.6400000  23.6270000  32.8620000  15.1550000  24.2770000
  34.8210000  11.9620000  27.8580000  34.5690000   9.5550000  27.6360000
  31.5120000   6.8170000  25.6320000  30.9420000   7.3040000  27.9050000
  31.9200000   7.4820000  30.2500000  32.9950000   6.2130000  30.8450000
  30.3910000   7.3020000  32.0230000  31.5570000   6.1480000  32.7630000
  29.8170000   5.6950000  32.5990000  29.4760000   6.8580000  29.7790000
  28.8470000   5.3170000  30.4640000  29.8210000   5.2850000  28.9790000
  32.1780000   4.0920000  31.5480000  31.4500000   3.7460000  29.9460000
  30.4270000   3.6770000  31.4090000  34.1070000   4.7130000  29.2800000
  34.7080000   4.2160000  26.9640000  32.3130000   1.9410000  23.5970000
  34.0280000   0.4650000  24.5190000  36.3450000   0.0090000  24.9460000
  37.6190000   1.0540000  24.3000000  38.7580000   0.4590000  22.2090000
  37.2460000   0.3520000  21.2400000  38.3210000  -1.0540000  21.3370000
  39.0110000  -0.9490000  24.2180000  38.4700000  -2.3960000  23.2950000
  37.6170000  -1.9300000  24.8090000  35.3490000  -0.9230000  22.0540000
  35.4640000  -1.8500000  23.5910000  36.3630000  -2.3840000  22.1230000
  37.0570000   2.5010000  22.2010000  35.3530000   3.9270000  21.2460000
  33.4830000   4.9630000  19.6960000  35.3440000   6.0160000  18.8290000
  36.4240000   7.6480000  17.8110000  35.8640000   9.2960000  17.9830000
  34.2600000   7.0830000  15.4160000  35.9090000   6.3930000  15.5780000
  35.4850000   7.4050000  14.1630000  33.9300000   9.4960000  15.6630000
  35.1920000   9.8080000  14.4370000  35.3300000  10.5520000  16.0780000
  37.8110000   7.7930000  15.9460000  37.6130000   9.5610000  16.2060000
  37.3400000   8.8350000  14.5710000  32.8980000   9.3440000  17.6990000
  30.9340000   8.2370000  18.6640000  27.0270000   4.6490000  21.9730000
  27.0960000   6.7440000  23.2020000  26.9810000   9.3570000  23.0510000
  27.5740000  10.1200000  21.5610000  29.4030000   7.3010000  23.3610000
  28.6400000   8.3270000  24.6240000  30.4000000   8.4520000  24.2670000
  30.1010000   8.3240000  21.2200000  31.1620000   9.4030000  22.1520000
  29.9670000  10.0950000  20.9920000  28.5090000  10.7470000  24.3210000
  29.0710000  11.4970000  22.7740000  30.2630000  10.7890000  23.9180000
  27.6490000   8.8990000  19.4960000  27.5450000   6.8160000  18.2600000
  24.5210000   1.8730000  19.3520000  24.1540000   0.7640000  21.4220000
  25.0560000  -0.5060000  23.3690000  26.6360000  -1.3090000  23.2590000
  24.0420000  -1.6740000  20.4860000  23.1120000  -1.4540000  22.0220000
  23.3010000  -3.0770000  21.2680000  26.2760000  -2.6370000  20.5210000
  25.4420000  -4.0590000  21.1380000  26.8740000  -3.4150000  22.0310000
  23.9390000  -2.5190000  24.0880000  25.5690000  -3.3030000  24.1050000
  24.2160000  -4.0670000  23.2140000  28.1580000  -0.8520000  21.3180000
  28.5620000   0.2870000  19.1960000  28.4490000   1.2900000  15.3050000
  29.0310000  -0.7030000  14.1770000  28.9630000  -2.5540000  12.9470000
  29.5270000  -4.1770000  13.2260000  31.2330000  -3.4230000  14.8550000
  30.7270000  -1.7740000  14.6820000  31.2930000  -1.9150000  12.2370000
  33.4930000  -2.6060000  14.2840000  32.7380000  -1.0540000  14.0210000
  33.4750000  -1.1590000  11.5850000  34.3290000  -2.6590000  11.9220000
  35.7610000  -1.6330000  13.5370000  35.4640000   0.1210000  11.0080000
  36.3990000  -1.3300000  11.1420000  36.8540000   1.3870000  12.5810000
  37.7820000   0.7300000  11.2800000  37.6310000  -0.3610000  14.1610000
  37.6480000  -2.2650000  12.7560000  39.1910000  -2.1300000  13.4750000
  38.3910000  -1.1870000  10.6210000  39.1280000  -2.6980000  10.9730000
  40.3250000   0.0600000  11.4880000  41.1210000  -1.4320000  13.2330000
  42.4070000  -1.1680000  12.1620000  40.4840000  -3.6110000  12.2330000
  42.0500000  -3.5500000  12.9660000  41.4110000  -3.1930000   9.9630000
  43.3860000  -1.9020000  10.4830000  43.9060000  -3.2690000   9.6150000
  43.9470000  -2.8280000  12.6930000  45.2890000  -2.5920000  11.6560000
  43.8320000  -5.2360000  12.0840000  44.6540000  -5.1950000   9.8200000
  45.6600000  -6.2590000  10.6910000  46.2320000  -3.2920000   9.9790000
  46.7990000  -4.6410000   9.0860000  47.4780000  -4.0650000  12.0120000
  47.5170000  -6.4460000  11.7040000  49.1550000  -5.9530000  11.7590000
  47.4530000  -6.5930000   9.2570000  48.5620000  -7.6760000   9.9910000
  49.3020000  -4.9800000   8.7750000  50.8530000  -5.4680000  10.5400000
  51.6910000  -5.7010000   9.0630000  50.4340000  -7.8620000  10.8720000
  52.1000000  -7.4240000  10.8550000  50.5770000  -8.6010000   8.4830000
  52.3400000  -7.2250000   7.6220000  52.8460000  -8.8500000   7.3920000
  53.7070000  -6.8910000   9.5960000  54.6040000  -7.2490000   8.1690000
  53.9450000  -9.2390000  10.3920000  54.1760000 -10.3640000   8.1930000
  55.4230000 -10.8650000   9.2920000  57.0420000  -9.3580000   8.2600000
  55.8040000  -8.6290000   7.2510000  56.6150000 -11.5530000   7.0600000
  54.9350000  -9.8150000   5.1660000  54.3470000 -11.1660000   6.1460000
  55.4850000 -11.4620000   4.8330000  58.6710000 -12.0050000   6.0470000
  60.7120000 -11.2490000   4.9620000  62.0930000  -9.5130000   4.1910000
  61.6240000  -7.8230000   4.3860000  59.7700000 -10.1060000   2.0530000
  61.4470000 -10.7480000   2.1360000  60.8940000  -9.8190000   0.6940000
  59.3660000  -7.7150000   2.1890000  60.5250000  -7.3680000   0.8890000
  60.7220000  -6.5750000   2.4930000  63.3510000  -9.1910000   2.2840000
  63.0500000  -7.4240000   2.4460000  62.7170000  -8.2530000   0.8840000
  58.9860000  -7.3260000   4.4120000  56.9220000  -8.0950000   5.4310000
  55.8570000  -6.3030000   9.8930000  57.6980000  -5.6570000  11.3160000
  59.6490000  -6.3550000  12.5690000  59.8630000  -8.0190000  13.1340000
  58.9610000  -8.7240000  15.2750000  57.2780000  -8.2300000  14.8710000
  58.0640000  -7.5620000  16.3180000  60.7820000  -7.0720000  15.1480000
  59.8200000  -5.9310000  16.1570000  60.4390000  -5.4030000  14.5550000
  56.8180000  -5.9790000  14.0570000  58.1590000  -4.8030000  13.8360000
  57.6080000  -5.2690000  15.4820000  57.9600000  -9.6890000  12.8450000
  56.0830000 -10.3420000  11.4380000  51.7880000  -9.5520000  11.7030000
  52.2440000 -11.8150000  12.3550000  53.3080000 -14.0930000  11.3410000
  52.5360000 -14.6910000   9.8630000  50.4660000 -13.1950000  12.7290000
  51.9600000 -13.9310000  13.4220000  50.3750000 -14.7740000  13.5180000
  49.6300000 -13.9310000  10.5710000  49.2840000 -15.4760000  11.3830000
  50.2310000 -15.4600000   9.8500000  52.7570000 -16.1000000  12.4680000
  52.0180000 -16.7180000  10.9410000  51.0770000 -16.7420000  12.4750000
  51.8780000 -13.1100000   8.2450000  51.4970000 -10.8030000   7.5720000
  48.0630000  -8.0910000   7.6620000  48.2830000  -8.8630000   5.3730000
  49.7000000  -9.0180000   3.4120000  51.0140000  -7.8770000   3.1030000
  50.6140000  -5.8280000   1.8790000  49.3650000  -5.2510000   3.0370000
  48.9540000  -5.4060000   1.3120000  50.3500000  -8.0130000   0.7820000
  48.6820000  -7.5520000   0.2730000  48.9500000  -9.0660000   1.2040000
  47.4740000  -6.6800000   3.6180000  47.3380000  -8.3290000   2.9240000
  47.0500000  -6.8790000   1.9000000  51.2810000  -5.8480000   4.6180000
  51.0470000  -5.0480000   6.9040000  48.1360000  -2.7820000   8.7440000
  50.0600000  -1.4840000   8.1640000  52.7300000  -1.3800000   8.6990000
  53.1280000  -1.1650000  10.4080000  50.1640000   0.6770000   8.8000000
  51.4160000   0.3720000   7.5370000  51.2360000   1.9940000   8.2980000
  50.7820000   0.7020000  11.1490000  51.6680000   2.1990000  10.7440000
  52.5060000   0.8620000  11.6150000  53.8210000   0.6550000   8.1730000
  54.2570000   0.8430000   9.9120000  53.4270000   2.1840000   9.0420000
  51.8720000  -2.3820000  11.9840000  49.9570000  -3.7890000  12.5390000
  45.8790000  -3.0420000  13.9280000  47.2060000  -3.7340000  15.8340000
  48.6870000  -5.4920000  16.7440000  48.4710000  -7.1950000  16.3190000
  46.9100000  -8.5910000  17.5030000  45.5140000  -7.5410000  17.0830000
  45.8560000  -7.9050000  18.7920000  48.8580000  -7.6380000  18.6620000
  47.7650000  -6.9510000  19.9190000  48.9030000  -5.8750000  19.0370000
  45.5680000  -5.1580000  17.6040000  47.0410000  -4.4220000  18.3290000
  45.9660000  -5.4840000  19.3060000  46.6790000  -7.8780000  14.7210000
  45.3260000  -7.1860000  12.8160000  41.4500000  -5.7570000  12.4350000
  41.6000000  -8.1000000  11.9310000  42.8560000  -9.7750000  10.1840000
  42.5400000  -9.4410000   8.4750000  39.7690000  -9.1440000  11.1190000
  40.9630000 -10.3810000  11.6670000  39.3920000 -10.8610000  10.9410000
  39.5940000  -8.5700000   8.7680000  38.9480000 -10.2190000   8.5640000
  40.3130000  -9.6580000   7.5270000  41.9070000 -11.9390000   9.9460000
  41.6320000 -11.5930000   8.1960000  40.2750000 -12.1710000   9.2310000
  42.4930000  -7.1840000   7.7960000  42.4430000  -4.8100000   8.3360000
  39.3960000  -1.9510000   8.7700000  40.3650000  -1.7560000   6.5720000
  42.5050000  -1.4460000   5.3240000  43.7580000  -0.3580000   5.9240000
  43.6340000   2.0100000   5.5880000  42.0590000   2.1480000   6.4340000
  42.2120000   2.7530000   4.7600000  43.8660000   0.4710000   3.6710000
  42.4260000   1.2400000   2.9000000  42.4680000  -0.5410000   3.1670000
  40.1590000   0.7900000   5.7290000  40.3520000  -0.4330000   4.4290000
  40.3300000   1.3250000   4.0380000  43.5720000   0.6600000   8.1680000
  42.5940000   0.4810000  10.3970000  39.0700000   2.2110000  12.1160000
  41.0600000   3.4100000  12.5750000  43.5470000   3.0110000  13.6210000
  43.5440000   2.4630000  15.3020000  41.0120000   5.0740000  14.0550000
  42.5180000   5.2000000  13.0600000  42.1650000   6.3740000  14.3810000
  41.0950000   4.0510000  16.2630000  42.0250000   5.5060000  16.7130000
  42.6730000   3.8730000  17.0960000  44.7120000   4.9930000  14.2290000
  44.7580000   4.4070000  15.9340000  44.1250000   6.0480000  15.5660000
  41.9640000   0.7600000  15.8620000  39.9730000  -0.5580000  15.3160000
  33.5660000   1.0340000  12.0200000  33.2420000   3.1920000  13.0800000
  33.7850000   4.6630000  14.7280000  35.0540000   4.3970000  15.9230000
  34.6370000   3.9130000  18.0250000  34.1710000   2.2310000  17.7120000
  33.0570000   3.2360000  18.6050000  33.0870000   5.7930000  16.6540000
  31.7080000   4.9350000  17.4030000  31.7930000   5.1120000  15.6510000
  32.5760000   1.6220000  16.1450000  31.5800000   2.8470000  15.2630000
  31.3660000   2.5720000  17.0210000  35.8240000   1.9550000  16.3620000
  35.9710000  -0.2680000  15.4000000  31.2480000  -3.3820000  10.4110000
  31.7330000  -5.5440000   9.3900000  32.2350000  -8.0020000   9.7840000
  32.9290000  -8.5120000  11.3270000  35.3290000  -7.9610000  11.8440000
  35.2600000  -6.2630000  11.2600000  36.3990000  -7.4110000  10.5100000
  34.6200000  -9.7980000  10.3300000  35.6480000  -9.1320000   9.0180000
  33.8860000  -9.4050000   8.7350000  34.3130000  -5.7550000   9.0710000
  33.6180000  -7.0390000   8.0540000  35.4010000  -6.8630000   8.2960000
  33.3150000  -6.9730000  13.1630000  32.8450000  -4.8170000  14.1700000
  30.0100000  -3.5010000  16.3430000  29.6810000  -5.0340000  15.5640000
  28.3540000  -3.7010000  17.9720000  29.4790000  -5.0020000  17.9500000
  26.7150000  -5.1430000  16.7140000  28.1760000  -6.6140000  15.5350000
  27.0760000  -7.5230000  16.4720000  30.0890000  -6.9780000  16.9710000
  29.4030000  -8.4180000  16.2780000  29.0450000  -7.4120000  19.0960000
  26.9420000  -8.3760000  18.5390000  27.7100000  -9.5240000  19.5260000
  27.3750000  -9.5310000  16.4460000  26.4440000 -10.4240000  17.6010000
  29.3920000 -10.7900000  16.9150000  29.1190000 -11.1510000  19.2950000
  29.4300000 -12.6390000  18.5680000  26.6720000 -11.4800000  19.4470000
  27.6740000 -12.5000000  20.4110000  26.3750000 -13.2430000  17.7540000
  28.5790000 -14.3030000  17.9380000  27.3760000 -15.4720000  18.0280000
  28.8840000 -14.1660000  20.4390000  29.4030000 -15.5860000  19.6260000
  26.7940000 -15.2540000  21.1750000  26.3720000 -16.6580000  19.2190000
  26.3160000 -17.6200000  20.5930000  28.7800000 -17.2660000  18.6930000
  27.5690000 -18.4510000  18.4650000  29.3990000 -18.2340000  20.9030000
  27.2200000 -19.0160000  21.6400000  28.2770000 -20.3260000  21.6910000
  26.2550000 -19.6540000  19.4000000  25.9140000 -20.6990000  20.7030000
  28.1160000 -21.1110000  18.6210000  28.8840000 -21.9690000  20.7710000
  28.5540000 -23.2870000  19.7740000  26.6560000 -22.0700000  21.9320000
  27.7620000 -23.3290000  22.2450000  25.4700000 -23.4760000  20.2250000
  27.3040000 -24.8160000  19.4010000  26.1310000 -25.8920000  19.9800000
  28.6930000 -24.9310000  21.4710000  28.5850000 -26.3730000  20.5650000
  26.9180000 -25.7220000  23.0480000  25.5890000 -27.0880000  21.5410000
  26.0550000 -28.0770000  22.8410000  27.4170000 -27.9210000  20.0560000
  26.1910000 -29.0390000  20.4610000  28.9190000 -28.8590000  21.8280000
  27.3220000 -29.6340000  23.4470000  28.2490000 -30.9980000  23.0050000
  25.4650000 -30.2090000  21.9420000  25.7470000 -31.2790000  23.2440000
  26.6200000 -31.7430000  20.3330000  28.2040000 -32.8350000  21.9380000
  27.3330000 -34.0260000  21.0230000  25.7250000 -34.3310000  22.8530000
  26.4590000 -33.0270000  23.7640000  27.8570000 -35.6480000  23.1520000
  28.6580000 -33.3200000  24.9960000  29.5010000 -33.8370000  23.5340000
  29.4420000 -34.9040000  24.9430000  26.5900000 -37.3550000  24.1440000
  24.8880000 -38.1140000  25.7140000  23.0160000 -37.4590000  27.1530000
  22.8980000 -35.8300000  27.8140000  24.0800000 -35.2490000  29.9090000
  25.6710000 -35.8530000  29.3370000  24.9510000 -36.5300000  30.8210000
  22.1200000 -36.7540000  29.8840000  23.0710000 -38.0170000  30.7410000
  22.2660000 -38.3970000  29.1730000  25.8710000 -38.0780000  28.3720000
  24.4260000 -39.1410000  28.2360000  25.1620000 -38.7980000  29.8460000
  24.8060000 -34.1980000  27.5460000  26.5240000 -33.4450000  25.9940000
  23.6920000 -31.4470000  22.2940000  21.5890000 -32.5070000  21.8330000
  20.5720000 -34.7230000  21.1690000  21.2400000 -35.6500000  19.8230000
  18.3870000 -34.5610000  20.4050000  18.9050000 -35.7550000  19.1590000
  18.0270000 -34.2550000  18.6720000  19.5310000 -32.3960000  20.5850000
  19.0660000 -32.1100000  18.8760000  20.7660000 -31.9360000  19.3600000
  20.7050000 -35.1720000  17.5870000  21.5050000 -33.5650000  17.6910000
  19.8110000 -33.6750000  17.1330000  23.5110000 -35.1760000  19.0330000
  25.6480000 -34.1060000  19.4850000  27.5680000 -29.7060000  18.6740000
  28.6340000 -31.2120000  17.1100000  29.8860000 -33.2930000  16.8240000
  30.9220000 -33.9410000  18.1040000  33.2090000 -33.1580000  18.3690000
  32.7510000 -31.4220000  18.4690000  33.8980000 -31.9530000  17.2200000
  32.5220000 -34.4910000  16.4150000  33.1780000 -33.2260000  15.3110000
  31.4670000 -33.7530000  15.1530000  31.3210000 -30.4260000  16.7680000
  30.6980000 -31.4210000  15.4080000  32.4320000 -30.9470000  15.4800000
  31.2480000 -32.6480000  20.2370000  30.2060000 -31.1140000  21.8100000
  30.2770000 -26.4120000  22.1960000  31.8700000 -27.5570000  23.6110000
  32.1030000 -29.5360000  25.1100000  30.8470000 -29.9590000  26.2740000
  33.8770000 -29.6340000  26.6040000  32.6930000 -30.2800000  27.7950000
  33.7660000 -28.8990000  28.2410000  33.4890000 -27.4370000  25.5550000
  33.4770000 -26.7500000  27.2160000  32.1200000 -26.4160000  26.1130000
  30.7320000 -28.9390000  28.4210000  30.4970000 -27.3040000  27.7140000
  31.8340000 -27.5830000  28.8650000  28.6840000 -28.7580000  26.2690000
  27.0790000 -27.5860000  24.8680000  25.9490000 -23.2620000  23.7280000
  24.3840000 -24.0930000  25.3710000  22.8620000 -25.9590000  25.9620000
  21.9730000 -26.8480000  24.7210000  19.9070000 -25.9980000  23.8110000
  20.6540000 -24.4540000  23.2770000  19.2410000 -24.4160000  24.3630000
  20.0590000 -26.6820000  26.1710000  19.4210000 -25.0730000  26.6740000
  20.9830000 -25.6690000  27.3390000  21.8910000 -23.0720000  24.8660000
  22.1250000 -23.6280000  26.5590000  20.5160000 -23.0550000  25.9940000
  22.3190000 -26.3300000  22.3070000  23.8790000 -25.4810000  20.6390000
  24.5870000 -21.1740000  18.8180000  23.1510000 -22.5560000  17.4430000
  22.9030000 -24.8900000  16.5320000  24.2920000 -25.7500000  15.8660000
  21.5010000 -25.2620000  14.7050000  22.8010000 -26.3230000  14.0550000
  22.0820000 -25.0340000  13.0180000  21.9880000 -22.9030000  15.2220000
  22.4700000 -22.7240000  13.4990000  23.5850000 -22.2100000  14.7840000
  25.0340000 -25.4000000  13.6260000  25.3650000 -23.6620000  13.9320000
  24.2830000 -24.1300000  12.5910000  26.5650000 -24.8540000  16.1360000
  28.0200000 -23.4550000  17.4960000  29.5340000 -19.0780000  17.4550000
  31.1180000 -20.6120000  16.4670000  32.2790000 -22.8040000  16.7730000
  32.8310000 -23.3260000  18.3670000  34.9040000 -22.5440000  19.2960000
  34.3970000 -20.8230000  19.2000000  35.9120000 -21.3370000  18.4130000
  34.8960000 -23.9430000  17.2790000  35.8860000 -22.7040000  16.4220000
  34.3300000 -23.2570000  15.7130000  33.6550000 -19.8810000  17.0630000
  33.5180000 -20.9340000  15.6120000  35.1300000 -20.4420000  16.2430000
  32.2520000 -22.0100000  20.3910000  30.6710000 -20.4540000  21.3990000
  30.2990000 -15.7090000  21.6680000  31.3130000 -16.6820000  23.6450000
  31.1370000 -18.4420000  25.3510000  29.5740000 -19.0580000  25.8910000
  28.3020000 -17.8980000  27.6030000  28.2960000 -16.3400000  26.7050000
  28.9510000 -16.3930000  28.3610000  30.4350000 -18.9940000  28.1400000
  31.0510000 -17.4510000  28.8460000  31.9830000 -18.2850000  27.5520000
  30.4010000 -15.3730000  25.9090000  31.9510000 -16.2340000  26.1860000
  31.0860000 -15.4400000  27.5510000  27.4490000 -18.1070000  24.9270000
  26.4220000 -17.1050000  22.9590000  25.5930000 -12.6510000  21.1950000
  23.6270000 -13.5000000  22.3190000  21.9720000 -15.0880000  22.5780000
  22.0460000 -16.5980000  21.6710000  20.4940000 -17.0360000  19.9140000
  20.8920000 -15.5910000  18.9200000  19.2210000 -15.8410000  19.4650000
  19.6510000 -16.6870000  22.2440000  18.5280000 -15.4040000  21.6510000
  19.7020000 -15.0360000  22.9610000  21.1040000 -13.4090000  19.9520000
  20.6100000 -13.1640000  21.6560000  19.3780000 -13.5260000  20.3940000
  22.9860000 -16.2910000  19.0880000  24.8980000 -15.3760000  17.9100000
  26.1020000 -11.3370000  15.6370000  25.4930000 -13.0200000  14.0270000
  25.7970000 -15.3880000  13.3660000  27.3610000 -16.1890000  13.5090000
  27.1340000 -12.8410000  11.8030000  25.5260000 -13.6020000  11.5480000
  26.7400000 -13.5550000  10.2200000  29.1400000 -14.2520000  12.0100000
  28.7810000 -14.9090000  10.3870000  29.0090000 -16.0270000  11.7820000
  25.3680000 -16.0210000  11.1530000  26.8380000 -17.0520000  11.2830000
  26.6490000 -15.9180000   9.8930000  29.2790000 -14.9990000  14.6130000
  29.9210000 -13.2870000  16.2330000  29.5600000  -8.8670000  20.9890000
  31.3100000 -10.2310000  21.9860000  33.3400000 -11.3570000  21.8610000
  34.4170000 -11.1300000  20.4810000  34.5600000 -12.8390000  18.7580000
  32.7960000 -12.9160000  18.4040000  33.6500000 -14.3830000  18.9200000
  35.3330000 -13.3140000  21.0920000  34.2670000 -14.7650000  21.1510000
  34.1090000 -13.4870000  22.4040000  31.1820000 -12.9970000  20.2190000
  31.7380000 -13.2870000  21.9010000  31.9160000 -14.5640000  20.6430000
  33.1530000 -10.6620000  18.1010000  31.3820000  -9.3320000  17.0980000
  24.9790000  -6.4270000  17.7470000  23.9040000  -7.0660000  19.8440000
  23.9420000  -6.8240000  22.3820000  25.4770000  -6.5960000  23.2200000
  23.3120000  -8.6140000  23.7900000  24.8260000  -8.3420000  24.7280000
  24.4330000  -9.9880000  24.1070000  23.4420000  -9.0510000  21.3490000
  24.4740000 -10.4620000  21.7760000  25.0550000  -9.2800000  20.5810000
  27.0040000  -8.4360000  23.5880000  27.0880000  -8.8430000  21.8450000
  26.5860000 -10.0920000  23.0140000  27.5260000  -6.0820000  22.0000000
  28.5590000  -5.3520000  19.9300000  25.6410000  -2.5720000  14.6870000
  23.7480000  -3.8010000  13.9560000  22.7750000  -6.0030000  13.5100000
  23.7480000  -7.3590000  12.9450000  21.1110000  -6.1740000  11.8550000
  21.9340000  -7.6890000  11.3510000  21.5450000  -6.4160000  10.1280000
  22.3740000  -4.0440000  11.8790000  22.6870000  -4.3180000  10.1370000
  24.0490000  -3.9910000  11.2480000  24.2970000  -7.6140000  10.6410000
  25.1660000  -6.0430000  10.5850000  23.8430000  -6.3610000   9.4230000
  26.2730000  -7.0730000  12.7660000  28.2220000  -5.8580000  13.5490000
  26.5880000  -2.9740000  16.9350000  25.8640000  -0.9690000  17.9490000
  21.3560000   2.4450000  16.5280000  19.9590000   0.5080000  16.9380000
  19.5750000  -1.8580000  16.8000000  20.9420000  -2.9320000  16.4740000
  21.2700000  -3.8020000  14.1510000  21.1540000  -2.2220000  13.2960000
  20.0060000  -3.5160000  12.9100000  19.3980000  -4.6020000  15.4200000
  18.1230000  -3.9870000  14.3060000  18.1620000  -3.4740000  16.0350000
  19.5250000  -0.6500000  13.8370000  18.2290000  -1.0280000  15.0050000
  18.2350000  -1.8070000  13.3810000  22.7920000  -1.9710000  14.8190000
  24.1050000  -0.0330000  14.2840000  23.2790000   4.4690000  11.7580000
  24.2470000   2.8090000  10.3660000  26.0200000   0.9940000  10.2390000
  27.6210000   1.2930000  10.9030000  29.1980000   2.7230000   9.8030000
  28.0830000   4.1240000   9.8430000  28.7690000   3.5760000   8.2780000
  28.4620000   0.5930000   8.7450000  28.0390000   1.5110000   7.2550000
  26.8060000   0.4760000   8.0680000  25.8810000   3.9690000   8.8490000
  25.2700000   2.3920000   8.2240000  26.5190000   3.3180000   7.3180000
  27.9720000   3.1050000  12.5390000  26.9650000   4.8010000  14.0040000
  19.5940000   5.8950000  11.7470000  19.6900000   6.7990000   9.4980000
  20.5540000   8.3910000   7.9390000  21.8500000   9.4900000   8.4180000
  21.2500000  11.7740000   9.2540000  19.9220000  11.2810000  10.3700000
  19.5690000  12.3840000   9.0250000  21.0880000  11.1360000   6.8550000
  19.3560000  11.6460000   6.8160000  19.8180000   9.9790000   6.3300000
  18.3110000   9.5960000   9.6930000  18.2270000   9.0970000   7.9760000
  17.7830000  10.7730000   8.4490000  21.9190000  10.2010000  10.9640000
  21.7240000   9.3680000  13.2170000  17.7380000   8.4850000  16.1710000
  18.8820000  10.5650000  16.3810000  21.3120000  11.5840000  16.4700000
  22.4340000  10.8710000  17.6250000  22.0750000  11.0560000  20.0230000
  20.3840000  10.4680000  19.9460000  20.7350000  12.0750000  20.6590000
  22.7760000  12.9830000  18.6210000  21.3960000  13.9430000  19.2640000
  21.5990000  13.7220000  17.4830000  18.7770000  11.5500000  18.5070000
  19.3030000  12.7910000  17.3110000  19.1810000  13.1900000  19.0640000
  22.2260000   8.5840000  18.2740000  21.0850000   6.4400000  18.0190000
  14.2770000   7.3490000  14.1980000  12.7270000   8.5170000  15.6550000
  11.5570000   8.7160000  17.7120000  12.0930000   7.7760000  19.1020000
   9.3810000   8.9250000  18.6220000   9.8730000   7.9450000  20.0450000
   8.4240000   7.4760000  19.0750000   9.5740000   8.0000000  16.4090000
   8.6940000   6.5080000  16.8590000  10.3130000   6.3840000  16.1160000
  10.8900000   5.6890000  19.6880000  10.8050000   4.9700000  18.0370000
   9.3050000   5.3230000  18.9120000  13.0020000   5.3250000  18.5460000
  14.4750000   4.1160000  17.0710000  13.7070000   2.0140000  12.4750000
  13.2070000   0.7700000  14.4130000  14.0550000   0.3340000  16.9210000
  15.7630000  -0.1030000  17.0560000  13.4030000  -1.4480000  14.3120000
  12.4840000  -1.2080000  15.8510000  13.0290000  -2.8510000  15.3290000
  15.7710000  -1.7640000  14.3410000  15.4680000  -3.3040000  15.2010000
  16.5910000  -2.0960000  15.8940000  13.6140000  -1.8200000  18.0050000
  15.3770000  -2.1850000  17.9980000  14.2330000  -3.3540000  17.2710000
  17.3530000   0.9210000  15.6180000  17.8900000   2.1990000  13.5970000
  11.0620000   3.8750000  10.4140000   9.9770000   1.8490000   9.6530000
  10.0000000  -0.1840000   8.3680000  11.4730000  -0.6830000   7.5280000
   8.7380000  -1.3190000   6.6880000  10.2340000  -1.7270000   5.7790000
   8.8900000  -0.8620000   4.9500000   8.2440000   1.0280000   7.2320000
   8.4030000   1.4460000   5.4850000   9.3630000   2.3300000   6.7110000
  11.8150000   0.0780000   5.1340000  11.3170000   1.7920000   5.3700000
  10.4160000   0.7620000   4.2340000  13.1550000   1.1850000   6.8060000
  14.1850000   3.2780000   7.4720000  12.2680000   8.0400000   7.1940000
  13.4760000   7.1820000   5.3320000  15.5370000   5.7380000   4.6700000
  17.0510000   6.0320000   5.5230000  14.8210000   8.8630000   4.2630000
  14.6470000   7.4700000   3.1310000  15.6690000   8.8940000   2.6990000
  16.8470000   9.1660000   5.5310000  17.7480000   9.3100000   3.9910000
  18.2770000   8.1300000   5.2300000  16.6430000   6.1070000   2.5830000
  18.1800000   6.3800000   3.4720000  17.6070000   7.6080000   2.2930000
  17.0960000   7.0520000   7.6870000  15.8630000   7.9440000   9.6150000
   8.2350000   8.4150000   7.8750000   7.8130000  10.1320000   6.2150000
   8.0480000  12.3540000   5.4330000   9.2310000  13.4070000   6.2170000
   8.4600000  15.0640000   7.9000000   7.3780000  13.9880000   8.8570000
   6.7010000  15.4170000   8.0540000   8.0010000  15.3120000   5.4460000
   6.2390000  15.4780000   5.7820000   6.8280000  14.2010000   4.6530000
   5.9570000  12.3770000   7.7500000   5.6700000  12.4930000   5.9830000
   5.0800000  13.7900000   7.0920000   9.4630000  13.1100000   8.8780000
   9.7340000  11.4350000  10.5910000   6.4480000   8.7410000  13.2470000
   7.2060000  10.9120000  13.9670000   9.2590000  12.4780000  13.8880000
  10.8540000  11.7930000  14.1930000   9.7140000  14.2280000  15.4320000
  11.3450000  13.5340000  15.7420000  10.2480000  13.8710000  17.1230000
   7.7090000  12.8460000  15.7580000   8.2610000  12.5810000  17.4590000
   7.8690000  11.1800000  16.4300000  11.5530000  11.1850000  16.4710000
  10.0780000  10.2320000  16.7870000  10.4940000  11.5870000  17.8660000
  11.2430000   9.4280000  14.2770000  10.4740000   7.2000000  13.6240000
   2.4280000   6.5320000  11.6550000   1.1930000   6.9020000  13.6800000
   0.9770000   6.7090000  16.0260000   2.2940000   6.0100000  16.9670000
   0.0480000   4.0830000  14.6530000  -0.9520000   5.3920000  15.3700000
  -1.1240000   3.6910000  15.9480000   1.7220000   2.9570000  15.9920000
   0.6410000   2.6970000  17.3800000   2.1800000   3.5970000  17.6100000
  -0.5760000   6.1050000  17.6890000   0.7300000   5.3420000  18.6600000
  -0.7370000   4.3940000  18.2360000   3.7260000   4.0820000  15.7530000
   4.9080000   3.6210000  13.6950000   4.0810000   5.0670000   5.6390000
   1.8860000   4.6880000   4.6360000  -0.3810000   5.5350000   4.2750000
  -1.0670000   6.7830000   5.3210000   0.1400000   3.3800000   6.4550000
  -0.5800000   3.1830000   4.8220000  -1.4850000   2.6620000   6.2890000
  -0.7740000   5.0300000   8.0090000  -2.4120000   4.3640000   7.8240000
  -2.1170000   6.1100000   7.4950000  -2.5400000   4.5240000   4.1730000
  -3.1970000   5.7560000   5.3120000  -3.3890000   4.0030000   5.6730000
   0.1200000   7.4360000   7.4590000   2.2830000   7.8070000   8.4730000
  48.0110000   5.2560000  38.8380000  51.3960000   6.2030000  33.8110000
  47.6520000  17.6330000  26.9460000  37.6090000  16.7310000  34.4650000
  43.8670000  -1.6080000  29.9880000  45.5450000   4.8810000  24.0990000
  30.2250000  17.4580000  25.1800000  29.8370000  10.4960000  30.2060000
  41.1210000   2.0760000  24.5010000  36.2390000   8.8760000  11.0420000
  25.7130000   9.5500000  26.4440000  21.9050000   0.4030000  25.0060000
  62.8040000  -4.3860000   4.5860000  60.5290000  -2.9170000  11.7870000
  55.5070000 -14.3950000  14.2470000  47.6210000 -11.9800000   3.1270000
  53.5240000  -1.4690000   5.1500000  50.1410000  -2.4750000  18.1910000
  44.0620000 -11.8510000  12.9590000  40.8270000  -3.8770000   3.1940000
  45.1180000   4.3310000  10.6160000  30.8830000   5.1060000  12.2780000
  34.1360000 -10.8610000  13.8350000  21.0350000 -33.2080000  29.5190000
  18.4800000 -33.4460000  23.9450000  28.0760000 -33.3010000  13.6790000
  35.1790000 -29.5900000  23.1160000  24.1140000 -25.0910000  29.2700000
  19.5040000 -24.1150000  17.6340000  31.6190000 -22.9040000  13.1800000
  34.7490000 -18.3050000  25.0340000  16.0430000 -14.1520000  19.1490000
  22.2540000 -14.7330000  12.7690000  37.8380000 -11.2310000  19.2880000
  20.3390000  -7.2110000  22.0420000  21.8180000  -4.9090000   6.7350000
  17.3680000  -4.1450000  10.6320000  23.3790000  -0.8130000   8.4750000
  24.6310000  11.7170000   7.7120000  20.4050000  14.1030000  14.0180000
  12.4370000   7.3010000  22.6670000  10.9370000   0.5880000  18.7420000
  13.7240000  -3.0180000   5.8660000  13.5880000   4.0720000   2.1120000
  11.5240000  16.2360000   6.1860000  14.4730000  11.9750000  14.3770000
   4.1750000   5.5050000  20.0700000  -3.4490000   9.3250000   6.3370000
