R48
 63990
  27.1665367  65.1028408  25.5006269  26.9455367  63.6448408  25.0776269
  27.3295367  62.6308408  26.1836269  26.4865367  62.7368408  27.4616269
  26.8755367  61.7888408  28.6296269  28.3785367  61.9098408  29.0036269
  28.7505367  63.2658408  29.6316269  30.2435367  63.4078408  29.9986269
  31.1555367  63.2138408  28.7516269  30.9915367  64.2368408  27.6006269
  31.4985367  65.6868408  27.8446269  33.0085367  65.7438408  28.1746269
  33.8775367  65.4948408  26.9496269  35.3695367  65.2638408  27.2376269
  35.5815367  64.1368408  28.2836269  34.9545367  62.7718408  27.9236269
  35.6715367  61.9188408  26.8356269  37.1185367  61.5398408  27.2556269
  37.0725367  60.4908408  28.3576269  38.3405367  60.1938408  29.1556269
  38.9515367  61.4948408  29.7426269  38.0415367  62.3438408  30.6666269
  37.7145367  61.7788408  32.0756269  38.9855367  61.5768408  32.9336269
  39.5745367  62.9078408  33.4026269  40.9615367  62.8198408  34.0556269
  41.9625367  62.0638408  33.1466269  42.1105367  62.6038408  31.7066269
  42.8685367  63.9458408  31.4896269  44.3365367  63.8628408  31.9666269
  45.1515367  62.9958408  31.0106269  46.5635367  62.6128408  31.4476269
  46.5405367  62.0148408  32.8696269  45.5815367  60.8168408  33.0946269
  45.9825367  59.4658408  32.4666269  47.4125367  59.0898408  32.8796269
  47.5045367  58.8558408  34.3836269  48.9055367  58.5188408  34.9336269
  49.8685367  59.7168408  34.6176269  49.5615367  61.0838408  35.2376269
  49.7515367  61.1328408  36.7486269  51.1265367  60.5498408  37.1416269
  52.3835367  61.2828408  36.5766269  52.8595367  62.5798408  37.2946269
  52.7425367  62.2498408  38.8256269  53.4195367  60.9478408  39.3886269
  54.9205367  61.0198408  39.2146269  55.3605367  62.4508408  39.6046269
  54.9365367  62.8018408  41.0246269  55.8675367  62.1938408  42.0526269
  57.2965367  62.6628408  41.6846269  57.4125367  64.2038408  41.5226269
  57.2735367  64.8888408  42.8856269  58.3155367  64.2268408  43.8236269
  59.7335367  64.1868408  43.2096269  60.3465367  65.5878408  43.1476269
  60.2825367  66.1718408  44.5796269  60.8675367  65.2218408  45.6456269
  62.3895367  65.1348408  45.5326269  62.9525367  66.5728408  45.6576269
  62.3935367  67.3458408  46.8676269  62.8835367  66.7548408  48.1936269
  64.4315367  66.7608408  48.1826269  65.0465367  68.1248408  47.8306269
  64.8695367  69.1648408  48.9476269  65.5085367  68.6378408  50.2526269
  66.9445367  68.1358408  50.0866269  67.9915367  69.2398408  49.8136269
  68.0115367  70.2818408  50.9676269  68.4555367  69.6088408  52.2556269
  68.3795367  70.4198408  53.5516269  66.9485367  70.7848408  53.9476269
  69.0455367  69.5188408  54.5836269  70.3065367  69.8638408  55.0726269
  71.0355367  68.9518408  55.8296269  70.5235367  67.6748408  56.1006269
  71.3495367  66.6838408  56.8776269  71.0705367  66.6058408  58.3686269
  69.6495367  66.1698408  58.6756269  72.0345367  65.5848408  58.9816269
  71.3385367  67.9658408  59.0286269  69.2425367  67.3418408  55.6456269
  68.5075367  68.2588408  54.9046269  69.3815367  68.6908408  49.5066269
  69.6945367  67.3298408  49.5926269  71.0035367  66.8908408  49.4236269
  72.0315367  67.8018408  49.1546269  73.4625367  67.3328408  49.0786269
  73.8865367  66.7178408  47.7296269  75.2865367  66.1208408  47.9376269
  72.9625367  65.6248408  47.2616269  73.9785367  67.8128408  46.6746269
  71.7175367  69.1568408  49.0096269  70.4045367  69.5938408  49.1776269
  65.2975367  70.5708408  48.5846269  65.9465367  70.8898408  47.3856269
  66.4445367  72.1688408  47.1726269  66.2925367  73.1618408  48.1476269
  66.8875367  74.5318408  47.9396269  65.9415367  75.5478408  47.2926269
  64.7535367  75.8498408  48.1956269  66.7415367  76.8518408  47.1086269
  65.4575367  75.0828408  45.9386269  65.5785367  72.8708408  49.3136269
  65.0695367  71.5928408  49.5186269  62.2575367  67.3428408  49.4436269
  61.4055367  68.4538408  49.4176269  61.0345367  69.0808408  50.6026269
  61.4875367  68.5988408  51.8376269  61.1945367  69.3638408  53.1056269
  59.8595367  69.0378408  53.7726269  59.6815367  70.0408408  54.9326269
  58.6865367  69.1938408  52.8316269  59.8785367  67.6348408  54.3586269
  62.2425367  67.4238408  51.8736269  62.6045367  66.7918408  50.6876269
  63.0545367  64.0818408  46.4026269  62.3655367  63.3468408  47.3766269
  63.0545367  62.5138408  48.2536269  64.4465367  62.3808408  48.1636269
  65.1925367  61.5378408  49.1646269  65.3955367  60.0748408  48.7426269
  66.2695367  59.9738408  47.5076269  66.1145367  59.3648408  49.9046269
  64.0695367  59.3828408  48.5066269  65.1265367  63.0438408  47.1346269
  64.4335367  63.8668408  46.2526269  61.6975367  65.6858408  42.4566269
  62.4225367  64.5658408  42.0266269  63.7425367  64.6998408  41.6026269
  64.3595367  65.9578408  41.5756269  65.8255367  66.0868408  41.2436269
  66.1525367  66.2188408  39.7526269  67.6835367  66.1758408  39.6186269
  65.5605367  65.1048408  38.9346269  65.6685367  67.5708408  39.2246269
  63.6045367  67.0898408  41.8926269  62.2825367  66.9538408  42.3086269
  57.2555367  66.4078408  42.9006269  57.5405367  67.1998408  41.7816269
  57.6845367  68.5828408  41.9126269  57.5245367  69.2078408  43.1576269
  57.7485367  70.6958408  43.3146269  56.5015367  71.5568408  43.1386269
  55.4655367  71.2818408  44.2196269  56.9335367  73.0368408  43.2806269
  55.8835367  71.3808408  41.7706269  57.1475367  68.4298408  44.2566269
  56.9925367  67.0528408  44.1226269  55.3765367  62.4108408  43.4736269
  54.2835367  63.2388408  43.7786269  53.9525367  63.5348408  45.0926269
  54.6765367  62.9698408  46.1476269  54.3245367  63.3278408  47.5716269
  53.1295367  62.5728408  48.1476269  52.8405367  63.1688408  49.5416269
  51.8665367  62.7148408  47.3206269  53.4655367  61.0988408  48.3176269
  55.7155367  62.0848408  45.8556269  56.0505367  61.7928408  44.5346269
  55.8815367  59.9698408  39.7276269  55.5255367  58.9628408  40.6216269
  56.5125367  58.1318408  41.1596269  57.8615367  58.2798408  40.8066269
  58.9215367  57.3888408  41.4086269  59.3815367  56.2348408  40.4936269
  60.1265367  56.7308408  39.2696269  60.3425367  55.3578408  41.3116269
  58.1905367  55.3968408  40.0736269  58.2105367  59.2568408  39.8686269
  57.2275367  60.0658408  39.3176269  54.1315367  63.3468408  36.7026269
  55.4365367  62.8408408  36.6806269  56.5805367  63.4618408  36.1356269
  56.5055367  64.6828408  35.4926269  57.8045367  65.2498408  34.9076269
  57.9515367  65.3778408  33.3826269  57.5105367  64.1688408  32.6176269
  57.1825367  66.6068408  32.8866269  59.4445367  65.6118408  33.0336269
  55.2285367  65.2708408  35.5086269  54.0725367  64.6198408  36.0946269
  49.5175367  62.4788408  37.4026269  49.3115367  62.4998408  38.7916269
  49.3665367  63.6988408  39.4986269  49.6145367  64.9028408  38.8306269
  49.8835367  66.1728408  39.6056269  51.3235367  66.2768408  40.1846269
  51.5895367  65.2048408  41.2276269  52.3505367  66.2188408  39.0906269
  51.4375367  67.6318408  40.8966269  49.6835367  64.8968408  37.4316269
  49.6175367  63.6948408  36.7216269  48.7805367  58.1148408  36.4476269
  47.5595367  58.2478408  37.1406269  47.3325367  57.6018408  38.3496269
  48.3095367  56.7808408  38.9096269  47.9305367  55.8928408  40.0716269
  47.2385367  54.5748408  39.6386269  45.9675367  54.8128408  38.8346269
  48.1825367  53.7498408  38.8126269  46.8515367  53.8038408  40.9056269
  49.5655367  56.7068408  38.2916269  49.8005367  57.3728408  37.0826269
  49.3525367  57.2578408  34.1656269  50.2365367  57.2848408  33.0846269
  50.5905367  56.1138408  32.4356269  50.1495367  54.8738408  32.9046269
  50.5585367  53.5258408  32.2886269  51.5705367  53.7088408  31.1026269
  52.9645367  54.1948408  31.5306269  53.9185367  54.3228408  30.3586269
  55.2035367  54.9358408  30.8936269  56.1795367  55.2018408  29.7566269
  57.3865367  55.9628408  30.2656269  58.2535367  56.4598408  29.1016269
  59.4215367  57.3588408  29.5626269  60.3645367  56.7158408  30.6126269
  60.7285367  55.2908408  30.1336269  61.2865367  55.2688408  28.6976269
  62.6315367  55.9458408  28.5826269  63.6155367  55.2928408  29.6016269
  63.6535367  53.7588408  29.4656269  64.2585367  53.2928408  28.0886269
  65.6525367  53.9338408  27.9526269  66.5845367  53.7058408  29.1546269
  66.9495367  52.2288408  29.3166269  67.5855367  51.7198408  28.0016269
  68.7435367  52.5898408  27.4906269  69.9745367  52.5218408  28.4036269
  70.4465367  51.0478408  28.5236269  70.5925367  50.3118408  27.1796269
  71.7135367  50.8888408  26.3016269  73.0685367  50.8008408  27.0456269
  73.4155367  49.4058408  27.5806269  73.6685367  48.3658408  26.4746269
  74.8375367  48.8058408  25.5596269  76.1245367  49.2118408  26.2866269
  76.8455367  48.0758408  27.0486269  77.2485367  46.9178408  26.1036269
  78.3035367  47.3518408  25.0946269  78.5935367  46.3398408  23.9766269
  77.4145367  46.1588408  23.0166269  79.8235367  46.8108408  23.2196269
  80.9035367  45.9408408  23.0606269  82.0775367  46.3738408  22.4446269
  82.2015367  47.6948408  21.9836269  83.4955367  48.1378408  21.3406269
  83.4705367  48.2868408  19.8166269  83.0055367  46.9898408  19.1596269
  82.5995367  49.4348408  19.3516269  84.9105367  48.5678408  19.3536269
  81.1135367  48.5638408  22.1316269  79.9315367  48.1198408  22.7216269
  77.9895367  48.5438408  27.9356269  78.4615367  49.8618408  27.9336269
  79.5265367  50.2378408  28.7466269  80.1545367  49.3028408  29.5796269
  81.3275367  49.7208408  30.4296269  80.9575367  50.1758408  31.8586269
  80.4225367  49.0128408  32.6766269  82.2525367  50.6718408  32.5206269
  79.9605367  51.3068408  31.8406269  79.6735367  47.9888408  29.6036269
  78.6005367  47.6178408  28.7966269  73.7845367  46.9328408  26.9636269
  73.9475367  46.6058408  28.3126269  74.2085367  45.2938408  28.6906269
  74.2405367  44.2618408  27.7446269  74.5665367  42.8418408  28.1426269
  73.4815367  42.1178408  28.9706269  73.2035367  42.7968408  30.2936269
  72.2055367  41.9948408  28.1656269  74.0235367  40.7098408  29.2726269
  74.0115367  44.5768408  26.4006269  73.7855367  45.8968408  26.0166269
  71.7335367  50.4108408  24.8606269  70.9385367  49.3618408  24.3906269
  71.0705367  48.9068408  23.0816269  71.9905367  49.5008408  22.2056269
  72.1565367  48.9668408  20.8016269  71.2875367  49.6558408  19.7426269
  71.7375367  51.0928408  19.5086269  71.4785367  48.8818408  18.4226269
  69.8225367  49.6268408  20.1086269  72.7435367  50.5908408  22.6516269
  72.6015367  51.0498408  23.9586269  71.0735367  53.5168408  28.0756269
  71.1085367  54.2328408  26.8746269  72.2245367  54.9918408  26.5376269
  73.2995367  55.1308408  27.4226269  74.5335367  55.9158408  27.0366269
  74.3545367  57.4348408  26.9156269  73.3675367  57.8368408  25.8366269
  73.9435367  58.0358408  28.2436269  75.7255367  58.0208408  26.5126269
  73.2325367  54.4798408  28.6606269  72.1335367  53.6838408  28.9816269
  67.6875367  51.8618408  30.5916269  68.1945367  52.8138408  31.4836269
  68.9685367  52.4188408  32.5716269  69.2365367  51.0628408  32.8036269
  70.1235367  50.6498408  33.9506269  69.3895367  50.4128408  35.2806269
  68.4955367  49.1878408  35.1916269  70.4635367  50.1538408  36.3506269
  68.5775367  51.6198408  35.6946269  68.6715367  50.1038408  31.9576269
  67.8925367  50.5008408  30.8746269  64.1315367  51.8298408  27.8116269
  63.8345367  50.8778408  28.7876269  63.9145367  49.5198408  28.4926269
  64.2055367  49.0788408  27.1946269  64.3325367  47.6078408  26.8726269
  63.0215367  46.7938408  26.9346269  62.3945367  46.7928408  28.3046269
  62.0405367  47.3188408  25.8996269  63.3835367  45.3398408  26.5796269
  64.4235367  50.0328408  26.1956269  64.3865367  51.3918408  26.5016269
  63.1305367  56.1408408  27.1676269  62.4915367  55.5598408  26.0586269
  63.0525367  55.6588408  24.7886269  64.2425367  56.3638408  24.5926269
  64.8605367  56.4318408  23.2176269  64.3325367  57.5418408  22.3196269
  64.7335367  58.9108408  22.8506269  64.9685367  57.3558408  20.9306269
  62.8215367  57.4888408  22.1506269  64.8385367  57.0148408  25.6776269
  64.2735367  56.9178408  26.9476269  61.5185367  57.6268408  31.0566269
  61.8385367  58.7978408  30.3556269  63.0025367  59.5108408  30.6296269
  63.8515367  59.1478408  31.6776269  65.1405367  59.9078408  31.9226269
  64.9895367  61.3578408  32.4266269  64.2655367  62.2608408  31.4336269
  64.2915367  61.3898408  33.7606269  66.4115367  61.9418408  32.5866269
  63.5005367  58.0258408  32.4426269  62.3495367  57.2768408  32.1356269
  56.9845367  57.1838408  31.0366269  56.1985367  58.1508408  30.3776269
  56.0615367  59.3588408  30.9506269  56.7185367  59.6278408  32.1336269
  56.3655367  60.8598408  32.8386269  55.3065367  60.6058408  33.9016269
  55.9855367  60.1738408  35.1896269  54.5595367  61.9058408  33.9516269
  54.2765367  59.5188408  33.5796269  57.4935367  58.6658408  32.8156269
  57.5675367  57.4058408  32.2736269  54.1855367  52.9708408  29.7476269
  53.8685367  52.7498408  28.4066269  54.1385367  51.5168408  27.8306269
  54.7305367  50.4958408  28.5906269  55.1385367  49.1998408  27.9506269
  56.5425367  49.2028408  27.3346269  57.6015367  49.6148408  28.3526269
  56.8395367  47.7928408  26.8486269  56.6085367  50.1648408  26.1466269
  55.0265367  50.7158408  29.9406269  54.7635367  51.9448408  30.5106269
  51.3855367  52.7568408  33.4046269  50.8295367  52.3418408  34.7636269
  49.7025367  51.3288408  34.6976269  50.1375367  50.0488408  33.9456269
  51.4005367  49.2888408  34.4016269  51.2885367  48.6658408  35.7916269
  49.9735367  47.8608408  35.9216269  49.6465367  46.8748408  34.7876269
  50.6255367  45.7088408  34.6216269  50.8495367  45.0558408  36.0036269
  49.5815367  44.6208408  36.7506269  48.9045367  43.3978408  36.1346269
  49.9685367  42.2888408  35.9796269  50.6855367  41.8848408  37.2836269
  49.8065367  41.0378408  38.2136269  49.2155367  39.8788408  37.3816269
  50.2685367  39.0328408  36.6376269  51.0315367  38.0848408  37.5676269
  49.9825367  37.2608408  38.3546269  48.9355367  36.5618408  37.4566269
  49.5435367  35.4008408  36.6626269  50.2365367  34.4528408  37.6696269
  49.3265367  33.9998408  38.8236269  48.2805367  32.9778408  38.3696269
  49.0235367  31.7878408  37.7136269  50.1665367  31.2118408  38.5716269
  49.6535367  30.4808408  39.8196269  48.6635367  29.3758408  39.3676269
  49.2185367  28.4328408  38.2866269  50.2875367  27.4638408  38.8176269
  49.7095367  26.6278408  39.9806269  48.3695367  25.9598408  39.6706269
  48.4305367  24.7898408  38.6606269  49.3965367  23.6778408  39.1586269
  48.8715367  23.0788408  40.4546269  49.7705367  22.0938408  41.2066269
  51.0525367  22.7378408  41.7346269  48.8885367  21.5748408  42.3346269
  48.4185367  20.2608408  42.2826269  47.4325367  19.8348408  43.1686269
  46.8895367  20.7168408  44.1136269  45.7815367  20.2568408  45.0266269
  46.2155367  19.7378408  46.3896269  46.9235367  20.7948408  47.2136269
  44.9575367  19.2928408  47.1466269  47.1315367  18.5208408  46.2336269
  47.3885367  22.0218408  44.1956269  48.3845367  22.4428408  43.3216269
  47.0505367  24.2398408  38.3076269  45.8775367  24.6868408  38.9296269
  44.6565367  24.0748408  38.6696269  44.5705367  23.0058408  37.7716269
  43.2575367  22.2888408  37.5766269  42.2655367  22.9658408  36.6156269
  40.9265367  22.2238408  36.7586269  42.0345367  24.4258408  36.9236269
  42.7515367  22.8108408  35.1806269  45.7255367  22.5888408  37.1036269
  46.9505367  23.2038408  37.3656269  50.9835367  26.6328408  37.7596269
  50.5855367  26.6128408  36.4166269  51.1865367  25.7388408  35.5176269
  52.2065367  24.8758408  35.9356269  52.8205367  23.8988408  34.9666269
  54.0555367  24.4308408  34.2206269  55.2085367  24.6778408  35.1816269
  54.4845367  23.3358408  33.2286269  53.7425367  25.6888408  33.4466269
  52.6505367  24.9368408  37.2606269  52.0575367  25.8188408  38.1556269
  50.7265367  29.9958408  40.7796269  52.0945367  30.0478408  40.4856269
  53.0135367  29.3778408  41.2916269  52.5875367  28.6618408  42.4186269
  53.5615367  27.8078408  43.1936269  54.3435367  28.5248408  44.2946269
  55.4005367  27.5338408  44.8166269  55.0525367  29.7598408  43.7916269
  53.4205367  28.8888408  45.4516269  51.2395367  28.7118408  42.7836269
  50.3245367  29.3898408  41.9816269  47.2485367  32.6058408  39.4226269
  47.3365367  33.0168408  40.7596269  46.4455367  32.5298408  41.7126269
  45.4305367  31.6368408  41.3496269  44.5025367  31.0738408  42.3986269
  43.2615367  31.9228408  42.6846269  42.3355367  31.9508408  41.4776269
  42.5075367  31.2578408  43.8526269  43.6165367  33.3348408  43.0966269
  45.2875367  31.2848408  40.0036269  46.1745367  31.7798408  39.0496269
  48.6165367  34.7098408  35.6736269  47.2455367  34.9788408  35.5916269
  46.4125367  34.1768408  34.8106269  46.9335367  33.1018408  34.0746269
  46.0145367  32.1608408  33.3316269  45.6155367  32.5958408  31.9216269
  44.5525367  31.5988408  31.4156269  45.0085367  33.9828408  31.8956269
  46.8085367  32.5318408  30.9806269  48.3155367  32.8958408  34.0716269
  49.1465367  33.7038408  34.8466269  52.1405367  37.2798408  36.8996269
  52.3325367  37.2478408  35.5106269  53.2335367  36.3538408  34.9336269
  53.9905367  35.4858408  35.7316269  54.9125367  34.4688408  35.0946269
  56.3205367  34.9828408  34.7746269  57.0855367  35.2778408  36.0586269
  57.0645367  33.8638408  34.0216269  56.2945367  36.2098408  33.8916269
  53.8735367  35.5758408  37.1216269  52.9745367  36.4768408  37.6966269
  50.4645367  40.5988408  39.5166269  51.8345367  40.7378408  39.7666269
  52.4255367  40.1608408  40.8906269  51.6535367  39.4428408  41.8116269
  52.3055367  38.7778408  43.0036269  52.4055367  39.6508408  44.2536269
  51.0235367  39.9668408  44.8146269  53.1745367  38.8518408  45.3276269
  53.1605367  40.9358408  43.9976269  50.2705367  39.3648408  41.6106269
  49.6835367  39.9528408  40.4886269  47.6135367  42.9818408  36.8316269
  47.2025367  43.5118408  38.0636269  46.0765367  43.0148408  38.7226269
  45.3245367  41.9688408  38.1746269  44.1435367  41.4108408  38.9466269
  42.7595367  41.7288408  38.3806269  42.4585367  40.9358408  37.1106269
  41.7105367  41.3028408  39.4346269  42.5895367  43.2078408  38.1156269
  45.7075367  41.4628408  36.9266269  46.8125367  41.9888408  36.2496269
  50.2535367  44.7488408  33.4906269  49.0275367  44.8138408  32.8086269
  48.6635367  43.8348408  31.8806269  49.5155367  42.7708408  31.5836269
  49.0715367  41.6818408  30.6286269  49.3355367  41.9438408  29.1476269
  48.7805367  43.2748408  28.6806269  50.8235367  41.8688408  28.8426269
  48.6305367  40.8328408  28.3336269  50.7745367  42.7378408  32.1986269
  51.1425367  43.7258408  33.1226269  52.5025367  47.9258408  36.3386269
  52.5415367  47.6788408  37.7256269  53.5375367  46.8888408  38.2966269
  54.5555367  46.3468408  37.5046269  55.6015367  45.4598408  38.1516269
  55.4925367  43.9558408  37.8626269  55.7945367  43.6248408  36.4106269
  56.5315367  43.2278408  38.7366269  54.1185367  43.4308408  38.2246269
  54.5595367  46.6458408  36.1326269  53.5455367  47.4258408  35.5556269
  49.0415367  51.0818408  36.0466269  47.7155367  50.6248408  36.0626269
  47.1105367  50.2428408  37.2576269  47.8225367  50.2948408  38.4646269
  47.1925367  49.8168408  39.7516269  47.2965367  48.3188408  39.9936269
  46.5445367  48.0068408  41.3056269  46.6545367  47.5118408  38.8806269
  48.7465367  47.8958408  40.1676269  49.1375367  50.7768408  38.4586269
  49.7215367  51.2068408  37.2686269  49.3205367  52.7868408  31.6826269
  48.0265367  53.3448408  31.7016269  46.9085367  52.6438408  31.2676269
  47.0355367  51.3678408  30.7276269  45.8065367  50.6488408  30.2386269
  45.3855367  50.9668408  28.8086269  44.0235367  50.3028408  28.5436269
  45.2565367  52.4548408  28.5326269  46.3945367  50.3768408  27.8196269
  48.3155367  50.8268408  30.6026269  49.4375367  51.5348408  31.0566269
  49.2335367  54.8658408  33.9646269  48.8025367  56.0278408  34.5446269
  45.0415367  58.2938408  32.7496269  43.8655367  58.4088408  33.4996269
  43.0675367  57.2898408  33.7496269  43.4445367  56.0288408  33.2736269
  42.5545367  54.8298408  33.4546269  41.8485367  54.3458408  32.1716269
  42.7835367  53.8588408  31.0946269  40.9465367  53.1688408  32.5466269
  41.0345367  55.4958408  31.5846269  44.6385367  55.9088408  32.5646269
  45.3985367  57.0258408  32.2656269  47.2215367  61.6738408  30.4256269
  46.4985367  61.1158408  29.3616269  47.0525367  60.1388408  28.5476269
  48.3705367  59.7248408  28.7386269  48.9515367  58.7018408  27.8036269
  49.4275367  59.2298408  26.4586269  50.6025367  60.1798408  26.6426269
  49.8615367  58.0498408  25.5936269  48.3255367  59.9758408  25.6886269
  49.1275367  60.3158408  29.7576269  48.5605367  61.2928408  30.5826269
  42.8315367  64.4698408  30.0616269  42.2735367  63.7738408  28.9856269
  42.3415367  64.2818408  27.6886269  42.9935367  65.4958408  27.4356269
  43.0215367  66.0878408  26.0476269  42.0685367  67.2618408  25.8196269
  42.3875367  68.4668408  26.7226269  42.2405367  67.7408408  24.3706269
  40.6285367  66.8448408  26.0396269  43.5785367  66.1848408  28.5016269
  43.4665367  65.7038408  29.7986269  41.5245367  64.1868408  34.4266269
  40.9045367  65.3808408  34.0326269  41.5675367  66.5948408  34.1446269
  42.8415367  66.6588408  34.7126269  43.5575367  67.9798408  34.8136269
  43.0715367  68.9138408  35.9066269  43.2165367  68.2728408  37.2766269
  43.9195367  70.1898408  35.8516269  41.6115367  69.3378408  35.7156269
  43.4295367  65.4848408  35.1976269  42.7715367  64.2638408  35.0646269
  36.6865367  62.5478408  32.8886269  36.1765367  63.7928408  32.5136269
  35.2885367  64.4668408  33.3506269  34.8955367  63.9158408  34.5806269
  33.8915367  64.6168408  35.4626269  32.5015367  63.9718408  35.5286269
  31.6115367  64.8408408  36.4326269  31.8585367  63.8968408  34.1586269
  32.5225367  62.5748408  36.1286269  35.4355367  62.6898408  34.9656269
  36.2875367  61.9998408  34.1186269  38.0515367  59.1518408  30.2456269
  36.7465367  58.6828408  30.4906269  36.4415367  57.9548408  31.6296269
  37.4385367  57.6188408  32.5396269  37.0835367  56.8108408  33.7616269
  36.7745367  55.3298408  33.4886269  35.4515367  55.1398408  32.7246269
  37.8595367  54.6808408  32.7046269  36.6195367  54.6258408  34.8396269
  38.7535367  58.0308408  32.2796269  39.0635367  58.7578408  31.1266269
  34.9195367  60.6628408  26.3956269  33.7325367  60.2318408  26.9996269
  33.1025367  59.0628408  26.5636269  33.6755367  58.2738408  25.5606269
  32.9475367  57.0638408  25.0246269  32.2355367  57.2608408  23.6896269
  31.6105367  55.9168408  23.2756269  31.1115367  58.2858408  23.8246269
  33.1605367  57.6938408  22.5566269  34.8845367  58.6788408  24.9866269
  35.4695367  59.8818408  25.3716269  36.1585367  64.9668408  25.9656269
  35.5235367  64.7818408  24.7266269  36.2165367  64.2668408  23.6406269
  37.5735367  63.9678408  23.7486269  38.3165367  63.4348408  22.5526269
  38.7225367  64.4818408  21.5326269  37.5055367  65.1688408  20.8886269
  39.6135367  65.5368408  22.1496269  39.4945367  63.7798408  20.4076269
  38.2325367  64.2098408  24.9606269  37.5365367  64.7278408  26.0506269
  31.2015367  66.7018408  26.7586269  30.6805367  66.3598408  25.5086269
  30.4515367  67.3438408  24.5466269  30.7855367  68.6788408  24.8006269
  30.5045367  69.7488408  23.7686269  29.3805367  70.7218408  24.1126269
  29.6455367  71.5528408  25.3576269  29.2385367  71.7018408  22.9336269
  28.0585367  69.9778408  24.2796269  31.3555367  69.0108408  26.0326269
  31.5195367  68.0448408  27.0126269  30.5985367  64.7008408  30.7376269
  29.6885367  65.7568408  30.9056269  30.1285367  67.0228408  31.3046269
  31.4835367  67.2618408  31.5586269  31.9835367  68.6518408  31.8656269
  31.9195367  69.0648408  33.3336269  32.4895367  70.4878408  33.4556269
  30.4605367  69.1178408  33.8176269  32.7095367  68.1488408  34.2136269
  32.3745367  66.1878408  31.4896269  31.9315367  64.9178408  31.1166269
  26.0035367  61.9838408  29.8756269  24.9295367  62.8858408  29.9116269
  24.2125367  63.1138408  31.0886269  24.5555367  62.4528408  32.2696269
  23.7755367  62.7248408  33.5346269  22.8355367  61.6168408  34.0026269
  21.7545367  61.3688408  32.9446269  23.5385367  60.3118408  34.3066269
  22.1435367  62.0958408  35.2886269  25.6185367  61.5408408  32.2396269
  26.3045367  61.2828408  31.0546269  25.5625367  63.3948408  24.5146269
  25.4115367  62.5028408  23.4446269  24.1585367  62.2858408  22.8666269
  23.0275367  62.9558408  23.3496269  21.6745367  62.7548408  22.7036269
  20.7825367  61.6958408  23.3636269  21.4015367  60.3168408  23.2556269
  20.4855367  62.0168408  24.8176269  19.4415367  61.6848408  22.6016269
  23.1725367  63.8238408  24.4386269  24.4215367  64.0358408  25.0176269
  28.1935367  65.2488408  25.8356269  26.5165367  65.4198408  26.3206269
  26.9875367  65.7808408  24.6576269  27.6575367  63.4798408  24.2546269
  28.3845367  62.8028408  26.4156269  27.2585367  61.6098408  25.7906269
  25.4445367  62.5258408  27.1936269  26.5225367  63.7708408  27.8186269
  26.7065367  60.7598408  28.2816269  28.9725367  61.7118408  28.1086269
  28.6655367  61.1128408  29.7006269  28.1655367  63.4018408  30.5506269
  28.4555367  64.0748408  28.9566269  30.4735367  62.5948408  30.7046269
  30.9675367  62.2178408  28.3336269  32.2015367  63.1518408  29.0616269
  29.9355367  64.2728408  27.3186269  31.5075367  63.8178408  26.7286269
  30.9455367  66.0768408  28.6936269  33.2235367  65.0028408  28.9356269
  33.2865367  66.7078408  28.6186269  33.7875367  66.3478408  26.2646269
  33.4735367  64.6278408  26.4206269  35.7765367  66.1948408  27.6566269
  35.1465367  64.4608408  29.2386269  36.6405367  64.0298408  28.5256269
  33.9195367  62.9308408  27.6136269  34.8705367  62.2018408  28.8556269
  35.7255367  62.5058408  25.9256269  37.6475367  62.4348408  27.5756269
  37.6945367  61.1528408  26.4066269  36.7275367  59.5478408  27.9146269
  36.3105367  60.8058408  29.0726269  39.0785367  59.7468408  28.4716269
  39.2485367  62.1388408  28.9036269  39.8975367  61.2648408  30.2346269
  37.1005367  62.5388408  30.1466269  38.5155367  63.3268408  30.7666269
  37.2385367  60.8118408  31.9346269  39.7105367  61.0208408  32.3456269
  38.7855367  60.9458408  33.8086269  38.8875367  63.3798408  34.1156269
  39.6285367  63.5758408  32.5396269  40.8535367  62.2548408  34.9916269
  41.6335367  61.0168408  33.0736269  42.9305367  61.9848408  33.6416269
  41.1145367  62.7118408  31.2746269  42.5805367  61.8078408  31.1186269
  42.3635367  64.7168408  32.0646269  44.3525367  63.4678408  32.9806269
  44.7985367  64.8538408  32.0386269  45.2255367  63.4928408  30.0366269
  44.5865367  62.0738408  30.8486269  47.1705367  63.5298408  31.4736269
  46.2405367  62.8038408  33.5706269  47.5555367  61.7758408  33.1836269
  44.5875367  61.0688408  32.7326269  45.4605367  60.7048408  34.1786269
  45.9555367  59.5688408  31.3806269  48.0975367  59.8748408  32.5886269
  47.7535367  58.2138408  32.3216269  46.8095367  58.0448408  34.6356269
  47.1425367  59.7458408  34.9046269  49.8755367  59.9178408  33.5406269
  50.9075367  59.4248408  34.8066269  48.5505367  61.4128408  34.9916269
  50.2245367  61.8088408  34.7476269  48.9715367  60.4978408  37.1766269
  51.2105367  59.5248408  36.7776269  51.1385367  60.3898408  38.2216269
  52.1955367  61.4808408  35.5236269  53.2015367  60.5568408  36.6166269
  52.0815367  63.3208408  37.1186269  51.6975367  62.1218408  39.0876269
  52.9825367  63.1468408  39.3936269  53.0575367  60.0348408  38.9036269
  53.1395367  60.8128408  40.4386269  54.9995367  60.7918408  38.1626269
  54.8855367  63.2298408  39.0106269  56.4035367  62.6468408  39.3556269
  53.9095367  62.4958408  41.2326269  54.8835367  63.8938408  41.1156269
  55.8445367  61.1098408  41.9586269  57.6285367  62.2348408  40.7386269
  58.0255367  62.2148408  42.3616269  56.6915367  64.6098408  40.8086269
  58.3645367  64.4528408  41.0396269  56.2825367  64.6688408  43.2696269
  58.0595367  63.1888408  44.0266269  58.2625367  64.6468408  44.8276269
  59.7485367  63.7208408  42.2226269  60.3575367  63.4958408  43.7876269
  59.7265367  66.2038408  42.4996269  59.2545367  66.3458408  44.8846269
  60.6855367  67.1858408  44.6106269  60.4195367  64.2268408  45.5996269
  60.5535367  65.5568408  46.6416269  62.6355367  64.7668408  44.5396269
  62.6795367  67.1668408  44.7866269  64.0435367  66.5808408  45.6006269
  61.3005367  67.3838408  46.8456269  62.6595367  68.4038408  46.7726269
  62.5485367  65.7198408  48.2476269  64.8035367  66.0748408  47.4226269
  64.8415367  66.3318408  49.1006269  64.6395367  68.5038408  46.8886269
  66.1055367  67.9828408  47.5876269  63.8025367  69.2918408  49.1216269
  64.9415367  67.7738408  50.6066269  65.4115367  69.3458408  51.0776269
  66.9845367  67.3828408  49.2936269  67.1965367  67.5528408  50.9786269
  67.7125367  69.7518408  48.8936269  67.0245367  70.7198408  51.1036269
  68.6725367  71.1228408  50.7336269  69.4865367  69.2618408  52.1156269
  67.8475367  68.7158408  52.4066269  68.9535367  71.3458408  53.4316269
  66.3065367  69.9018408  54.0356269  66.4905367  71.4508408  53.2086269
  66.9355367  71.3008408  54.9136269  70.7565367  70.8288408  54.8376269
  72.0205367  69.2468408  56.1916269  72.4165367  66.9178408  56.7516269
  71.1965367  65.6818408  56.4566269  69.4635367  65.2168408  58.1696269
  68.9505367  66.9298408  58.3156269  69.5375367  66.0548408  59.7556269
  71.8385367  64.6158408  58.5126269  71.8495367  65.5338408  60.0576269
  73.0575367  65.9088408  58.7726269  70.6095367  68.6878408  58.6486269
  72.3565367  68.2748408  58.7826269  71.2155367  67.8498408  60.1086269
  68.8125367  66.3658408  55.8556269  67.5355367  67.9558408  54.5256269
  68.9525367  66.5848408  49.8576269  71.2185367  65.8338408  49.5566269
  73.6245367  66.5708408  49.8516269  74.1495367  68.1618408  49.2876269
  75.2045367  65.3248408  48.6846269  75.9535367  66.9158408  48.2836269
  75.6245367  65.7098408  46.9826269  72.8715367  64.8688408  48.0496269
  73.3745367  65.1738408  46.3546269  71.9845367  66.0518408  47.0226269
  74.6635367  68.5878408  47.0266269  72.9785367  68.2218408  46.5086269
  74.3445367  67.3608408  45.7466269  72.4955367  69.8978408  48.8256269
  70.2065367  70.6638408  49.1166269  66.1505367  70.1398408  46.6276269
  66.9925367  72.3778408  46.2556269  67.7655367  74.4448408  47.2876269
  67.2295367  74.9448408  48.8966269  65.1255367  76.1508408  49.1796269
  64.1355367  74.9528408  48.2756269  64.1625367  76.6478408  47.7376269
  67.0845367  77.1808408  48.0936269  66.0805367  77.5918408  46.6526269
  67.5885367  76.6338408  46.4516269  64.8285367  74.1988408  46.0686269
  66.3245367  74.8388408  45.3166269  64.8645367  75.8778408  45.4806269
  65.4415367  73.6208408  50.0906269  64.5625367  71.3888408  50.4616269
  61.0935367  68.9188408  48.4876269  60.4345367  69.9888408  50.5516269
  61.2035367  70.4378408  52.8806269  61.9875367  69.1828408  53.8436269
  59.6545367  71.0468408  54.5016269  60.5325367  69.9298408  55.6096269
  58.7395367  69.8108408  55.4366269  58.7165367  70.1928408  52.3886269
  57.7585367  69.0448408  53.3886269  58.7545367  68.4298408  52.0486269
  60.7305367  67.5468408  55.0376269  59.9705367  66.9168408  53.5386269
  58.9355367  67.4638408  54.8856269  62.6115367  67.0258408  52.8186269
  63.2585367  65.9228408  50.7486269  61.2995367  63.4738408  47.5416269
  62.5005367  62.0088408  49.0436269  64.6485367  61.5298408  50.1176269
  66.1835367  61.9698408  49.3566269  67.2075367  60.5078408  47.6906269
  65.7385367  60.4138408  46.6596269  66.4575367  58.9178408  47.2966269
  67.0705367  59.8698408  50.0696269  66.2685367  58.3218408  49.6176269
  65.4755367  59.4338408  50.7896269  63.5815367  59.8338408  47.6376269
  63.4445367  59.4978408  49.3976269  64.2555367  58.3258408  48.2966269
  66.2085367  62.9658408  47.0416269  65.0005367  64.4208408  45.5066269
  62.0175367  63.5628408  42.1136269  64.3055367  63.8028408  41.3546269
  66.3505367  65.1968408  41.6146269  66.2585367  66.9538408  41.7596269
  68.0235367  65.2028408  39.9866269  68.1055367  66.9868408  40.2176269
  67.9355367  66.2908408  38.5606269  65.8835367  64.1448408  39.3556269
  65.8985367  65.1978408  37.9016269  64.4675367  65.1758408  38.9586269
  66.1085367  68.3638408  39.8326269  64.5775367  67.5948408  39.2836269
  65.9755367  67.6578408  38.1786269  64.0525367  68.0838408  41.8856269
  61.7485367  67.8518408  42.6256269  57.7435367  66.7598408  40.8106269
  57.9665367  69.1728408  41.0406269  58.4865367  71.0288408  42.5736269
  58.1685367  70.9078408  44.3066269  55.9385367  71.3998408  45.2006269
  55.1015367  70.2548408  44.0966269  54.6315367  71.9718408  44.0956269
  57.3725367  73.1658408  44.2736269  56.0455367  73.6618408  43.1566269
  57.6705367  73.2458408  42.4986269  55.5085367  70.3558408  41.6846269
  56.6525367  71.5608408  41.0086269  55.0515367  72.0758408  41.6586269
  57.0105367  68.8828408  45.2396269  56.7585367  66.4758408  45.0176269
  53.7015367  63.7378408  43.0136269  53.1315367  64.2248408  45.2866269
  54.1095367  64.4028408  47.6316269  55.1845367  63.1338408  48.2266269
  52.5805367  64.2228408  49.4046269  53.7465367  63.0688408  50.1446269
  52.0065367  62.6158408  49.9806269  51.6655367  63.7788408  47.1606269
  51.0365367  62.2378408  47.8456269  52.0105367  62.2058408  46.3606269
  54.3675367  61.0128408  48.9296269  53.6395367  60.6668408  47.3276269
  52.6165367  60.5978408  48.7906269  56.2965367  61.6338408  46.6616269
  56.8975367  61.1368408  44.3456269  54.5025367  58.8618408  40.9786269
  56.2175367  57.3858408  41.9006269  58.5345367  56.9298408  42.3276269
  59.8085367  57.9748408  41.6816269  60.9475367  57.3798408  39.5906269
  59.4355367  57.2728408  38.6216269  60.5105367  55.8668408  38.7186269
  61.2005367  55.9718408  41.5996269  60.6595367  54.5248408  40.6766269
  59.8065367  54.9908408  42.1906269  57.5385367  55.9978408  39.4356269
  57.6535367  55.0708408  40.9726269  58.5525367  54.5368408  39.5046269
  59.2465367  59.4218408  39.5826269  57.5425367  60.8478408  38.6276269
  55.6725367  61.8838408  37.0776269  57.5335367  62.9368408  36.2106269
  58.6135367  64.5688408  35.1926269  58.0535367  66.2168408  35.3646269
  56.4495367  64.0038408  32.7976269  58.0985367  63.3138408  32.9596269
  57.6745367  64.3258408  31.5446269  56.1195367  66.4168408  33.0446269
  57.3815367  66.7288408  31.8186269  57.5195367  67.4728408  33.4596269
  60.0005367  64.7138408  33.3276269  59.8025367  66.4818408  33.5876269
  59.5295367  65.7558408  31.9526269  55.0875367  66.2648408  35.0806269
  53.1235367  65.1578408  36.0456269  49.2165367  61.5698408  39.3546269
  49.2855367  63.6648408  40.5836269  49.1705367  66.2778408  40.4326269
  49.7635367  67.0408408  38.9426269  51.5925367  64.2218408  40.7426269
  50.8295367  65.2478408  42.0056269  52.5895367  65.3728408  41.6486269
  52.2905367  65.2448408  38.6016269  53.3515367  66.3238408  39.5336269
  52.1565367  67.0158408  38.3736269  50.6985367  67.6678408  41.7026269
  51.2605367  68.4178408  40.1556269  52.4525367  67.7098408  41.2996269
  49.8385367  65.8198408  36.8776269  49.7345367  63.7368408  35.6416269
  46.7105367  58.7938408  36.7336269  46.3435367  57.6848408  38.8036269
  47.2455367  56.4148408  40.7506269  48.8255367  55.6118408  40.6406269
  46.2315367  55.2468408  37.8676269  45.3015367  55.4668408  39.4036269
  45.4905367  53.8438408  38.6496269  48.4655367  54.2838408  37.9026269
  47.6315367  52.8618408  38.5196269  49.0635367  53.5058408  39.4126269
  46.1285367  54.4018408  41.4696269  47.7585367  53.6178408  41.4866269
  46.4055367  52.8538408  40.5956269  50.3475367  56.0688408  38.6996269
  50.7515367  57.2078408  36.5776269  50.6385367  58.2108408  32.6866269
  51.2205367  56.2178408  31.5586269  51.1525367  54.3668408  30.3286269
  51.7165367  52.7438408  30.6076269  53.4225367  53.4978408  32.2366269
  52.9165367  55.1468408  32.0636269  53.4825367  55.0058408  29.6186269
  55.6825367  54.3148408  31.6656269  54.9275367  55.8668408  31.4026269
  55.6645367  55.7618408  28.9666269  56.5185367  54.2618408  29.3036269
  57.9505367  55.2878408  30.9186269  57.6535367  57.0418408  28.3896269
  58.5885367  55.5908408  28.5236269  59.0435367  58.3078408  29.9626269
  59.9715367  57.6508408  28.6616269  59.8205367  56.5598408  31.5426269
  59.8375367  54.6558408  30.1376269  61.3805367  54.7908408  30.8566269
  60.5805367  55.7338408  28.0026269  61.3175367  54.2228408  28.3546269
  62.5145367  56.9808408  28.8696269  63.3105367  55.4888408  30.6146269
  64.5965367  55.7528408  29.5436269  62.6735367  53.3098408  29.6146269
  64.2395367  53.3708408  30.3476269  63.6005367  53.7278408  27.3446269
  65.5755367  55.0188408  27.8646269  66.0955367  53.6518408  26.9966269
  66.1365367  54.0928408  30.0746269  67.4785367  54.3288408  29.0376269
  66.0215367  51.6848408  29.4656269  66.8435367  51.7258408  27.2016269
  67.8495367  50.6618408  28.0726269  68.4215367  53.6288408  27.3606269
  68.9885367  52.2798408  26.4676269  69.6675367  52.8558408  29.3936269
  69.7065367  50.4748408  29.0856269  71.3445367  50.9678408  29.1406269
  69.6425367  50.3278408  26.6386269  70.7515367  49.2448408  27.3726269
  71.4915367  51.9408408  26.1566269  73.0425367  51.4528408  27.9216269
  73.8805367  51.2198408  26.4446269  72.6235367  49.0588408  28.2536269
  74.2895367  49.4968408  28.2366269  72.7665367  48.3198408  25.8646269
  74.5295367  49.6958408  25.0036269  75.0355367  48.0708408  24.7736269
  75.8965367  50.0298408  26.9776269  76.7935367  49.6718408  25.5506269
  76.1345367  47.6818408  27.7736269  76.3655367  46.5568408  25.5746269
  77.6125367  46.0558408  26.6736269  79.2315367  47.5628408  25.6416269
  77.9935367  48.2918408  24.6326269  78.8045367  45.3678408  24.4416269
  77.1245367  47.1058408  22.5476269  76.5365367  45.7548408  23.5276269
  77.6745367  45.4588408  22.2146269  80.8605367  44.9158408  23.4286269
  82.9015367  45.6718408  22.3436269  84.2825367  47.4078408  21.5726269
  83.8135367  49.0978408  21.7676269  81.9595367  46.8148408  19.4346269
  83.6365367  46.1728408  19.5176269  83.0835367  47.1018408  18.0756269
  81.5555367  49.2058408  19.5706269  82.7145367  49.5528408  18.2706269
  82.9115367  50.3458408  19.8746269  85.5405367  47.7298408  19.6656269
  85.2395367  49.4968408  19.8276269  84.9065367  48.6678408  18.2656269
  81.1755367  49.5948408  21.7936269  79.1115367  48.8258408  22.8126269
  78.0465367  50.6178408  27.2746269  79.8875367  51.2638408  28.6976269
  81.8385367  50.5658408  29.9506269  82.0525367  48.9018408  30.5156269
  81.1505367  48.1968408  32.6566269  79.4675367  48.6908408  32.2526269
  80.2535367  49.3588408  33.6996269  82.9715367  49.8488408  32.5296269
  82.0095367  50.9898408  33.5386269  82.6285367  51.5178408  31.9366269
  79.0075367  50.9418408  31.4386269  80.3485367  52.1178408  31.2176269
  79.7975367  51.6518408  32.8636269  80.1495367  47.2318408  30.2266269
  78.2725367  46.5788408  28.8196269  73.9775367  47.3688408  29.0846269
  74.4335367  45.1058408  29.7366269  75.4975367  42.8278408  28.7226269
  74.7255367  42.2298408  27.2446269  72.6555367  43.7258408  30.1106269
  74.1495367  42.9898408  30.8036269  72.5645367  42.1468408  30.8996269
  71.8195367  42.9898408  27.9526269  71.4735367  41.4448408  28.7646269
  72.4205367  41.4608408  27.2316269  74.9465367  40.8208408  29.8496269
  74.2075367  40.2028408  28.3226269  73.2665367  40.1788408  29.8566269
  74.0675367  43.8108408  25.6266269  73.6865367  46.1178408  24.9536269
  70.2525367  48.8298408  25.0436269  70.4725367  48.0578408  22.7546269
  71.8895367  47.9028408  20.7936269  73.2035367  49.0438408  20.4846269
  72.8035367  51.0928408  19.2606269  71.5545367  51.6698408  20.4186269
  71.1435367  51.5148408  18.6936269  72.5395367  48.9078408  18.1636269
  70.8715367  49.3688408  17.6546269  71.1395367  47.8548408  18.5856269
  69.6635367  50.2408408  20.9996269  69.5275367  48.5918408  20.3056269
  69.2395367  50.0418408  19.2816269  73.4705367  51.0728408  21.9996269
  73.2365367  51.8728408  24.2856269  70.3255367  54.1388408  26.1256269
  72.2495367  55.4368408  25.5456269  74.9195367  55.5408408  26.0806269
  75.3175367  55.7558408  27.7896269  72.3535367  57.5978408  26.1816269
  73.6055367  57.2928408  24.9186269  73.4255367  58.9148408  25.6796269
  72.9715367  57.6228408  28.5306269  73.8575367  59.1198408  28.1256269
  74.6955367  57.7828408  28.9966269  76.0105367  57.5758408  25.5546269
  76.4465367  57.7638408  27.2936269  75.6165367  59.1048408  26.4236269
  74.0615367  54.5388408  29.3656269  72.1465367  53.1318408  29.9206269
  68.0685367  53.8788408  31.3096269  69.3955367  53.1868408  33.2156269
  70.8765367  51.4288408  34.1256269  70.6605367  49.7258408  33.7006269
  69.0995367  48.3298408  34.8846269  67.7035367  49.3798408  34.4646269
  68.0455367  49.0158408  36.1736269  71.0475367  49.2828408  36.0436269
  69.9545367  49.9698408  37.3006269  71.0925367  51.0458408  36.4186269
  67.7575367  51.7628408  34.9856269  69.2305367  52.4988408  35.7106269
  68.1555367  51.4368408  36.6876269  68.8685367  49.0428408  32.1026269
  67.5155367  49.7348408  30.1976269  63.6395367  51.1638408  29.8166269
  63.7895367  48.8208408  29.3126269  65.0455367  47.1458408  27.5656269
  64.7295367  47.4798408  25.8566269  61.9585367  47.7768408  28.5006269
  63.1525367  46.5398408  29.0486269  61.5815367  46.0598408  28.3226269
  61.7835367  48.3508408  26.1496269  61.1375367  46.7018408  25.9456269
  62.5025367  47.2628408  24.9086269  64.0965367  44.9818408  27.3276269
  63.8215367  45.3278408  25.5776269  62.4645367  44.7498408  26.6126269
  64.6825367  49.7368408  25.1776269  64.6325367  52.1108408  25.7176269
  61.5855367  54.9698408  26.1516269  62.5545367  55.1648408  23.9536269
  64.6945367  55.4748408  22.7056269  65.9475367  56.5628408  23.3056269
  65.8235367  58.9308408  22.9696269  64.2485367  59.0688408  23.8156269
  64.4015367  59.6738408  22.1416269  66.0555367  57.3918408  21.0526269
  64.6155367  58.1608408  20.2816269  64.6575367  56.3798408  20.5486269
  62.3485367  57.7108408  23.1106269  62.5415367  56.4878408  21.8106269
  62.5195367  58.2458408  21.4196269  65.7615367  57.5808408  25.5496269
  64.7835367  57.4018408  27.7786269  61.2595367  59.1318408  29.4976269
  63.2495367  60.3308408  29.9566269  65.7365367  59.9318408  31.0026269
  65.7335367  59.3838408  32.6836269  63.2015367  61.9948408  31.4366269
  64.7075367  62.1208408  30.4416269  64.3545367  63.2948408  31.7626269
  63.2845367  60.9718408  33.6446269  64.2145367  62.4268408  34.0946269
  64.8625367  60.7938408  34.4776269  66.9015367  61.9138408  31.6106269
  66.9475367  61.3278408  33.3156269  66.3145367  62.9688408  32.9476269
  64.1535367  57.6808408  33.2436269  62.1625367  56.3628408  32.6976269
  55.7555367  57.9548408  29.4016269  55.4315367  60.1128408  30.4616269
  55.9745367  61.5838408  32.1096269  57.2435367  61.3178408  33.3046269
  56.8265367  60.8338408  35.4066269  56.3605367  59.1518408  35.0936269
  55.2465367  60.1568408  35.9866269  55.2765367  62.7138408  34.0356269
  53.8975367  61.8558408  34.7846269  53.9825367  62.0328408  33.0326269
  54.7655367  58.5428408  33.5266269  53.7695367  59.7678408  32.6446269
  53.5555367  59.4928408  34.4026269  58.0135367  58.8758408  33.7436269
  58.1605367  56.6528408  32.7816269  53.4375367  53.5388408  27.7926269
  53.9225367  51.3768408  26.7716269  54.4245367  48.9188408  27.1656269
  55.1185367  48.4088408  28.7086269  57.5185367  48.9598408  29.2256269
  57.4495367  50.6578408  28.6416269  58.5885367  49.5098408  27.8916269
  56.8095367  47.1228408  27.7116269  57.8375367  47.7888408  26.3996269
  56.0755367  47.5158408  26.1166269  56.5025367  51.1658408  26.4526269
  55.8075367  49.8818408  25.4356269  57.5905367  50.0578408  25.6776269
  55.5045367  49.9478408  30.5446269  55.0345367  52.1038408  31.5516269
  52.1995367  53.4198408  33.7246269  51.8705367  51.8868408  32.9456269
  50.5435367  53.2198408  35.3536269  51.6685367  51.9188408  35.3316269
  48.9045367  51.7778408  34.0956269  50.3655367  50.3068408  32.9166269
  49.2655367  49.3978408  33.8536269  52.2785367  49.9428408  34.3526269
  51.5925367  48.5028408  33.6596269  51.2345367  49.5088408  36.4776269
  49.1315367  48.5448408  35.9206269  49.8995367  47.3968408  36.9076269
  49.5645367  47.3898408  33.8276269  48.6335367  46.4968408  34.9826269
  51.5815367  46.1308408  34.2966269  51.3085367  45.7698408  36.6766269
  51.6195367  44.2818408  35.9496269  48.8615367  45.4408408  36.8286269
  49.8635367  44.4208408  37.7926269  48.5645367  43.6778408  35.1356269
  50.7685367  42.6178408  35.3196269  49.5655367  41.4488408  35.4096269
  51.0735367  42.7548408  37.8206269  51.5925367  41.3348408  37.0076269
  48.9835367  41.6668408  38.5566269  48.5615367  40.2628408  36.6006269
  48.5055367  39.3008408  37.9746269  50.9695367  39.6548408  36.0746269
  49.7585367  38.4698408  35.8466269  51.5885367  38.6868408  38.2846269
  49.4095367  37.9048408  39.0216269  50.4665367  36.5948408  39.0726269
  48.4445367  37.2668408  36.7816269  48.1035367  36.2218408  38.0846269
  50.3055367  35.8098408  36.0026269  51.0735367  34.9518408  38.1526269
  50.7435367  33.6338408  37.1556269  48.8455367  34.8508408  39.3136269
  49.9515367  33.5918408  39.6266269  47.6595367  33.4448408  37.6066269
  49.4935367  32.1048408  36.7826269  48.3205367  31.0288408  37.3616269
  50.8825367  31.9898408  38.8526269  50.7745367  30.5478408  37.9466269
  49.1075367  31.1988408  40.4296269  47.7785367  29.8328408  38.9226269
  48.2445367  28.8438408  40.2226269  49.6065367  28.9998408  37.4376269
  48.3805367  27.8818408  37.8426269  51.1085367  28.0618408  39.2096269
  49.5115367  27.2868408  40.8286269  50.4385367  25.9228408  40.3866269
  47.6545367  26.7118408  39.3236269  47.9365367  25.6418408  40.6256269
  48.8095367  25.1778408  37.7146269  50.3935367  24.0858408  39.3196269
  49.5225367  22.8948408  38.4046269  47.9145367  22.5898408  40.2346269
  48.6485367  23.8938408  41.1456269  50.0465367  21.2728408  40.5336269
  50.8475367  23.6008408  42.3776269  51.6905367  23.0838408  40.9156269
  51.6315367  22.0168408  42.3246269  48.7795367  19.5658408  41.5256269
  47.0775367  18.8068408  43.0956269  45.2055367  19.4618408  44.5346269
  45.0875367  21.0908408  45.1956269  46.2695367  21.6718408  47.2906269
  47.8605367  21.0678408  46.7186269  47.1405367  20.3908408  48.2026269
  44.3095367  20.1668408  47.2656269  45.2605367  18.9038408  48.1226269
  44.4555367  18.5238408  46.5546269  48.0605367  18.8428408  45.7536269
  46.6155367  17.7798408  45.6176269  47.3515367  18.1228408  47.2276269
  46.9955367  22.7228408  44.9276269  48.7135367  23.4758408  43.3756269
  45.8815367  25.4738408  39.6756269  43.7785367  24.4138408  39.2146269
  42.7615367  22.1978408  38.5506269  43.4295367  21.2708408  37.2046269
  40.5765367  22.3598408  37.7866269  41.0945367  21.1658408  36.5406269
  40.2165367  22.6658408  36.0536269  41.7205367  24.5248408  37.9666269
  41.2555367  24.8108408  36.2576269  42.9555367  24.9848408  36.7416269
  42.8945367  21.7488408  34.9686269  43.6945367  23.3558408  35.0726269
  42.0005367  23.2458408  34.5146269  45.7005367  21.7448408  36.4146269
  47.8375367  22.8148408  36.8666269  49.7575367  27.2148408  36.0556269
  50.8235367  25.7088408  34.4916269  52.0755367  23.6278408  34.2056269
  53.1115367  22.9798408  35.4856269  55.3985367  23.7628408  35.7506269
  54.9405367  25.4988408  35.8506269  56.0875367  24.9678408  34.6016269
  54.7115367  22.4298408  33.7966269  55.3675367  23.6948408  32.6926269
  53.6565367  23.1678408  32.5346269  53.5105367  26.4948408  34.1496269
  52.8875367  25.4998408  32.7896269  54.6215367  25.9738408  32.8616269
  53.4375367  24.2728408  37.6186269  52.3955367  25.8068408  39.1916269
  52.4665367  30.5088408  39.5776269  54.0595367  29.3638408  40.9926269
  54.2925367  27.3848408  42.4916269  53.0365367  26.9618408  43.6556269
  56.0665367  27.2868408  43.9856269  54.8825367  26.6408408  45.1766269
  55.9555367  28.0218408  45.6226269  55.6785367  29.4838408  42.9366269
  55.6665367  30.1708408  44.5976269  54.3095367  30.5048408  43.4946269
  52.9215367  27.9818408  45.8026269  52.6865367  29.6168408  45.0956269
  54.0235367  29.3378408  46.2466269  50.8735367  28.1628408  43.6506269
  49.2685367  29.3348408  42.2496269  48.1385367  33.6588408  41.1096269
  46.5735367  32.8278408  42.7526269  45.0515367  30.9618408  43.3436269
  44.1625367  30.0728408  42.1026269  42.0965367  30.9228408  41.1926269
  42.8435367  32.4668408  40.6586269  41.4305367  32.5048408  41.7446269
  42.2485367  30.2388408  43.5526269  41.6105367  31.8478408  44.0556269
  43.1725367  31.2518408  44.7206269  44.0805367  33.8488408  42.2476269
  44.3145367  33.2928408  43.9406269  42.7055367  33.8658408  43.3756269
  44.5085367  30.5908408  39.6886269  46.0685367  31.4398408  38.0206269
  46.7765367  35.7468408  36.1996269  45.3405367  34.3648408  34.8246269
  45.0925367  32.0308408  33.9136269  46.4815367  31.1708408  33.2476269
  43.6905367  31.6588408  32.0866269  44.9905367  30.5978408  31.4366269
  44.2715367  31.8868408  30.3996269  44.1775367  34.0178408  32.6036269
  44.6595367  34.1968408  30.8806269  45.7745367  34.7108408  32.1656269
  47.2235367  31.5208408  31.0076269  47.5545367  33.2588408  31.3136269
  46.4725367  32.7908408  29.9726269  48.7545367  32.0668408  33.5176269
  50.2095367  33.4658408  34.8776269  51.7235367  37.8428408  34.8366269
  53.3075367  36.3088408  33.8486269  54.4685367  34.1168408  34.1546269
  55.0205367  33.5948408  35.7486269  57.0935367  34.3768408  36.6776269
  56.5865367  36.0978408  36.5816269  58.1015367  35.5838408  35.7946269
  57.0855367  32.9778408  34.6606269  58.0755367  34.2168408  33.8036269
  56.5195367  33.6638408  33.0946269  55.8445367  37.0398408  34.4446269
  55.7075367  35.9868408  32.9936269  57.3195367  36.4788408  33.6246269
  54.4415367  34.9108408  37.7726269  52.8605367  36.4668408  38.7806269
  52.4885367  41.2118408  39.0496269  53.5025367  40.2388408  41.0266269
  53.3265367  38.4788408  42.7326269  51.7635367  37.8628408  43.2726269
  50.4915367  39.0228408  44.9846269  50.4855367  40.5808408  44.0866269
  51.1405367  40.5278408  45.7426269  52.6245367  37.9268408  45.5216269
  53.2405367  39.4698408  46.2276269  54.1725367  38.6358408  44.9336269
  52.5905367  41.5478408  43.2906269  54.1405367  40.6868408  43.5676269
  53.2755367  41.4808408  44.9326269  49.6385367  38.8138408  42.3086269
  48.6115367  39.8158408  40.3406269  47.7825367  44.2698408  38.5766269
  45.8165367  43.4208408  39.7006269  44.1615367  41.8328408  39.9596269
  44.2355367  40.3228408  39.0526269  42.6835367  39.8848408  37.2956269
  43.0815367  41.3298408  36.3016269  41.4105367  41.0798408  36.8466269
  41.8405367  40.2338408  39.6256269  40.7175367  41.5168408  39.0326269
  41.8915367  41.8848408  40.3426269  43.2935367  43.5118408  37.3336269
  42.7995367  43.7568408  39.0376269  41.5675367  43.3948408  37.7756269
  45.1755367  40.6298408  36.4696269  47.0875367  41.5448408  35.2916269
  48.2915367  45.5838408  33.0186269  47.6825367  43.9008408  31.4086269
  47.9865367  41.5328408  30.7476269  49.5505367  40.7318408  30.8906269
  49.3235367  44.0798408  29.1846269  47.7155367  43.3188408  28.9296269
  48.9295367  43.3658408  27.6016269  51.3295367  42.6688408  29.3916269
  50.9705367  42.0118408  27.7686269  51.1985367  40.8938408  29.1636269
  47.5575367  40.8998408  28.5346269  49.0275367  39.8688408  28.6646269
  48.8385367  41.0028408  27.2746269  51.4685367  41.9218408  31.9946269
  52.1105367  43.6338408  33.6146269  51.7495367  48.0538408  38.3706269
  53.4995367  46.6898408  39.3676269  55.5295367  45.5638408  39.2426269
  56.6065367  45.7908408  37.8626269  56.7495367  44.0818408  36.1396269
  54.9855367  44.0048408  35.7856269  55.8395367  42.5378408  36.3016269
  57.5225367  43.6068408  38.4736269  56.4565367  42.1558408  38.5326269
  56.2985367  43.4338408  39.7856269  53.3715367  43.9238408  37.6006269
  53.9275367  43.6338408  39.2826269  54.1055367  42.3568408  38.0246269
  55.3425367  46.2588408  35.4826269  53.5715367  47.5888408  34.4796269
  47.1685367  50.4938408  35.1286269  46.0935367  49.8548408  37.2256269
  46.1315367  50.0968408  39.7636269  47.6665367  50.3248408  40.6016269
  45.5015367  48.3068408  41.1716269  47.0155367  48.5788408  42.1096269
  46.6225367  46.9328408  41.4886269  45.6315367  47.8698408  38.7306269
  46.6635367  46.4588408  39.1576269  47.2445367  47.6408408  37.9626269
  49.1935367  48.4848408  40.9696269  49.2775367  48.0778408  39.2266269
  48.7755367  46.8288408  40.3956269  49.7155367  50.8388408  39.3816269
  50.7485367  51.5688408  37.3116269  47.8305367  54.3488408  32.0686269
  45.9375367  53.1198408  31.3376269  44.9645367  50.9178408  30.8916269
  45.9375367  49.5618408  30.3266269  43.3005367  50.7468408  29.2366269
  44.1235367  49.2318408  28.7326269  43.7345367  50.5048408  27.5096269
  44.5635367  52.8768408  29.2606269  44.8765367  52.6028408  27.5186269
  46.2385367  52.9298408  28.6296269  46.4865367  49.3068408  28.0226269
  47.3555367  50.8778408  27.9666269  46.0325367  50.5598408  26.8046269
  48.4625367  49.8478408  30.1476269  50.4115367  51.0628408  30.9306269
  48.7775367  53.9468408  34.3166269  48.0535367  55.9518408  35.3306269
  43.5455367  59.3658408  33.9096269  42.1485367  57.4288408  34.3196269
  41.7645367  55.0628408  34.1816269  43.1315367  53.9888408  33.8556269
  43.4595367  53.1188408  31.5326269  43.3435367  54.6988408  30.6776269
  42.1955367  53.4048408  30.2916269  41.5875367  52.3188408  32.8016269
  40.3125367  52.9338408  31.6876269  40.3515367  53.4468408  33.4166269
  41.7145367  56.2708408  31.2186269  40.4185367  55.8928408  32.3866269
  40.4245367  55.1138408  30.7626269  44.9815367  54.9498408  32.2006269
  46.2945367  56.8878408  31.6656269  45.4685367  61.3898408  29.1396269
  46.4365367  59.7298408  27.7476269  48.2095367  57.9148408  27.6206269
  49.8105367  58.2138408  28.2846269  51.3875367  59.6438408  27.1846269
  50.2725367  61.0448408  27.2246269  50.9585367  60.4968408  25.6596269
  50.6515367  57.5138408  26.1266269  50.2285367  58.4318408  24.6366269
  48.9955367  57.3968408  25.4496269  48.0705367  60.8898408  26.2306269
  47.4595367  59.3128408  25.6056269  48.7085367  60.2388408  24.6996269
  50.1615367  60.0258408  29.9206269  49.1545367  61.7218408  31.3856269
  41.7835367  62.8158408  29.1286269  41.8795367  63.7198408  26.8796269
  42.7435367  65.3118408  25.3206269  44.0395367  66.4108408  25.7996269
  43.4395367  68.6948408  26.6356269  42.1115367  68.2018408  27.7516269
  41.7585367  69.3048408  26.4066269  43.2775367  68.0568408  24.2366269
  41.5455367  68.5668408  24.1976269  42.0075367  66.8998408  23.7116269
  40.5005367  66.5168408  27.0746269  40.4165367  66.0178408  25.3576269
  39.9725367  67.6938408  25.8306269  44.1085367  67.1218408  28.3456269
  43.9135367  66.2888408  30.5986269  39.9275367  65.4058408  33.5526269
  41.0715367  67.4858408  33.7626269  43.5015367  68.5048408  33.8516269
  44.6235367  67.7918408  35.0066269  44.2645367  67.9768408  37.4046269
  42.5735367  67.3888408  37.3276269  42.9245367  68.9958408  38.0406269
  44.9655367  69.9038408  36.0026269  43.5855367  70.8638408  36.6456269
  43.7885367  70.6428408  34.8646269  40.9665367  68.4708408  35.8886269
  41.4925367  69.7118408  34.6926269  41.3705367  70.1108408  36.4456269
  44.4155367  65.5048408  35.6556269  43.2745367  63.3608408  35.4006269
  36.4665367  64.2698408  31.5796269  34.9165367  65.4378408  33.0366269
  33.7465367  65.6368408  35.0936269  34.2825367  64.6968408  36.4836269
  31.5705367  65.8458408  36.0036269  32.0625367  64.8658408  37.4266269
  30.6135367  64.3968408  36.4566269  31.7635367  64.9208408  33.7906269
  30.8835367  63.4288408  34.2406269  32.5025367  63.3048408  33.4976269
  33.0795367  62.6098408  37.0696269  32.9945367  61.8908408  35.4186269
  31.4945367  62.2438408  36.2936269  35.1915367  62.2458408  35.9276269
  36.6645367  61.0368408  34.4526269  35.8965367  58.9348408  29.8566269
  35.3965367  57.6908408  31.7946269  36.2445367  57.2548408  34.3026269
  37.9525367  56.8178408  34.4376269  35.5925367  55.4728408  31.6936269
  34.6735367  55.7128408  33.2326269  35.2185367  54.0698408  32.7106269
  37.9605367  55.1568408  31.7226269  37.6575367  53.6168408  32.5826269
  38.7805367  54.8248408  33.2756269  35.8035367  55.1008408  35.3866269
  37.5665367  54.7358408  35.3796269  36.4225367  53.5668408  34.6526269
  39.5425367  57.8418408  32.9996269  40.0795367  59.1198408  30.9786269
  33.2515367  60.7958408  27.7956269  32.1665367  58.7698408  27.0346269
  32.1895367  56.7368408  25.7496269  33.6625367  56.2378408  24.9096269
  30.9275367  55.6018408  24.0696269  32.4235367  55.1938408  23.1606269
  31.0795367  56.0588408  22.3316269  30.4335367  57.9488408  24.6136269
  30.5925367  58.3668408  22.8666269  31.5525367  59.2508408  24.0926269
  34.0045367  56.9988408  22.5156269  33.5065367  58.7128408  22.7516269
  32.6055367  57.6828408  21.6156269  35.3445367  58.1058408  24.1876269
  36.3745367  60.1988408  24.8536269  34.4575367  64.9608408  24.5756269
  35.6655367  64.1028408  22.7136269  37.7265367  62.6588408  22.0516269
  39.2405367  62.9528408  22.9046269  37.0105367  65.7838408  21.6446269
  36.8365367  64.3908408  20.5126269  37.8585367  65.8148408  20.0806269
  39.0365367  66.0868408  22.9126269  39.9375367  66.2308408  21.3726269
  40.4665367  65.0508408  22.6116269  38.8325367  63.0278408  19.9646269
  40.3695367  63.3008408  20.8536269  39.7965367  64.5288408  19.6746269
  39.2855367  63.9728408  25.0686269  38.0525367  64.8648408  26.9966269
  30.4245367  65.3358408  25.2566269  30.0025367  67.0528408  23.5966269
  30.2375367  69.2748408  22.8146269  31.4205367  70.3278408  23.5986269
  30.6495367  71.9848408  25.2816269  29.5675367  70.9088408  26.2386269
  28.8905367  72.3378408  25.4356269  30.1905367  72.2328408  22.8276269
  28.4285367  72.3988408  23.1636269  29.0175367  71.1218408  22.0346269
  28.1465367  69.2978408  25.1316269  27.8595367  69.4138408  23.3646269
  27.2695367  70.7108408  24.4736269  31.6525367  70.0308408  26.2596269
  31.9235367  68.3558408  27.9726269  28.6375367  65.6618408  30.6286269
  29.3955367  67.8328408  31.3486269  31.4485367  69.3988408  31.2696269
  33.0435367  68.7138408  31.5746269  31.9035367  71.1488408  32.8136269
  33.5345367  70.4548408  33.1236269  32.4375367  70.7918408  34.5046269
  29.8985367  69.7668408  33.1396269  30.4505367  69.5018408  34.8406269
  30.0585367  68.1008408  33.8116269  33.7425367  68.1058408  33.8526269
  32.2675367  67.1528408  34.1686269  32.6835367  68.5078408  35.2476269
  33.4325367  66.3488408  31.6586269  32.6635367  64.1208408  31.0056269
  24.6175367  63.4528408  29.0366269  23.3825367  63.8228408  31.0616269
  23.1665367  63.6298408  33.4076269  24.4835367  62.9308408  34.3486269
  22.2375367  61.0038408  32.0346269  21.2375367  62.3128408  32.7516269
  21.0655367  60.6118408  33.3296269  23.9115367  59.8778408  33.3736269
  22.8305367  59.6178408  34.7616269  24.3695367  60.5178408  34.9916269
  21.6135367  63.0258408  35.0706269  22.9195367  62.2628408  36.0416269
  21.4525367  61.3148408  35.6176269  25.9155367  61.0028408  33.1346269
  27.0975367  60.5418408  31.0766269  26.2705367  61.9878408  23.0206269
  24.0755367  61.6088408  22.0176269  21.8085367  62.4558408  21.6566269
  21.1225367  63.7038408  22.7026269  22.3295367  60.3008408  23.8366269
  21.6095367  60.1038408  22.2036269  20.7045367  59.5828408  23.6706269
  21.4155367  61.9508408  25.3906269  19.7775367  61.2848408  25.2056269
  20.0725367  63.0308408  24.8766269  19.6495367  61.4448408  21.5546269
  18.9925367  62.6768408  22.6936269  18.8005367  60.9238408  23.0546269
  22.3095367  64.3568408  24.8406269  24.4725367  64.7278408  25.8546269
  70.2005367  62.1768408  56.2196269  73.5855367  63.1238408  51.1926269
  69.8415367  74.5538408  44.3276269  59.7985367  73.6518408  51.8466269
  66.0565367  55.3128408  47.3696269  67.7345367  61.8018408  41.4806269
  52.4145367  74.3788408  42.5616269  52.0265367  67.4168408  47.5876269
  63.3105367  58.9968408  41.8826269  58.4285367  65.7968408  28.4236269
  47.9025367  66.4708408  43.8256269  44.0945367  57.3238408  42.3876269
  84.9935367  52.5348408  21.9676269  82.7185367  54.0038408  29.1686269
  77.6965367  42.5258408  31.6286269  69.8105367  44.9408408  20.5086269
  75.7135367  55.4518408  22.5316269  72.3305367  54.4458408  35.5726269
  66.2515367  45.0698408  30.3406269  63.0165367  53.0438408  20.5756269
  67.3075367  61.2518408  27.9976269  53.0725367  62.0268408  29.6596269
  56.3255367  46.0598408  31.2166269  43.2245367  23.7128408  46.9006269
  40.6695367  23.4748408  41.3266269  50.2655367  23.6198408  31.0606269
  57.3685367  27.3308408  40.4976269  46.3035367  31.8298408  46.6516269
  41.6935367  32.8058408  35.0156269  53.8085367  34.0168408  30.5616269
  56.9385367  38.6158408  42.4156269  38.2325367  42.7688408  36.5306269
  44.4435367  42.1878408  30.1506269  60.0275367  45.6898408  36.6696269
  42.5285367  49.7098408  39.4236269  44.0075367  52.0118408  24.1166269
  39.5575367  52.7758408  28.0136269  45.5685367  56.1078408  25.8566269
  46.8205367  68.6378408  25.0936269  42.5945367  71.0238408  31.3996269
  34.6265367  64.2218408  40.0486269  33.1265367  57.5088408  36.1236269
  35.9135367  53.9028408  23.2476269  35.7775367  60.9928408  19.4936269
  33.7135367  73.1568408  23.5676269  36.6625367  68.8958408  31.7586269
  26.3645367  62.4258408  37.4516269  18.7405367  66.2458408  23.7186269
 101.5316560  84.4371890  65.3965090 101.4510610  83.5226500  65.1256800
 101.1180980  84.9338960  64.6904800  99.6634600  86.2150910  67.2774360
  98.8876700  85.7351350  67.5672930 100.3147530  85.5356560  67.1030520
  93.6800430  86.5270720  68.1550120  92.8485310  86.2719430  68.5546630
  94.2881410  86.5981490  68.8908040  93.6601690  90.5610810  68.3508140
  93.9629730  89.6708550  68.1718360  94.4045280  91.1181030  68.1230390
  92.0892380  81.4872610  61.9392510  91.2009080  81.8288580  61.8372390
  92.3733570  81.2872930  61.0473340  90.0525390  84.0878260  67.8232210
  90.6241500  83.3200460  67.8235850  90.0526930  84.3867020  66.9138820
  99.9105340  92.9069110  65.6777480  99.2916780  93.3626610  65.1071920
 100.7657120  93.0620570  65.2767180  99.1043590  88.8908100  67.2844520
  99.0351870  87.9498040  67.1233650  99.8663450  88.9809510  67.8567090
  91.2950260  79.4962620  69.6101140  91.1153100  78.5988370  69.8903900
  90.8930340  80.0434490  70.2848090 100.1348760  81.6978480  67.5113450
 100.5113580  80.8250360  67.3987120 100.0368270  82.0337180  66.6203890
  94.2653770  80.0704110  62.9730890  94.3720520  80.9707840  63.2799650
  93.3546130  80.0222080  62.6825540  91.9136930  81.9923120  68.2183480
  92.5947040  82.2561490  68.8370880  91.5984980  81.1523990  68.5521490
  96.1061500  83.0390480  67.3056070  96.6139720  83.5371450  67.9461090
  96.6374740  82.2625680  67.1295430  94.3897600  77.6789040  71.5719490
  94.3916040  78.1961430  70.7665390  93.5601910  77.2019220  71.5489420
 100.7768690  87.7908350  63.0709390 100.1585960  88.2557800  62.5072110
 101.2891940  88.4835830  63.4878900  95.6400450  87.3184220  69.7492990
  95.3069830  87.9453140  70.3914060  95.8167130  87.8446100  68.9694660
  94.0712930  79.3899000  69.5789940  94.4129740  80.2341050  69.2843810
  93.1328740  79.5382740  69.6955280  94.8519550  89.2865020  71.5642170
  95.4693550  89.9616100  71.2826620  93.9912670  89.6953000  71.4729670
  90.1451890  88.4764880  60.4449020  89.7679870  88.9651980  59.7133920
  90.4024960  89.1490160  61.0755550  97.7540820  76.8781270  65.9034530
  98.0615800  76.3228160  65.1870030  96.8241520  77.0125730  65.7207520
 100.1421580  84.9430100  62.6394650  99.2150860  84.8767480  62.8683120
 100.2946400  85.8810230  62.5249890 100.1290660  81.2147100  59.6361810
  99.1894330  81.3761060  59.7214270 100.4473920  81.9332780  59.0897800
  95.7478220  85.4694840  65.4214380  95.3435220  84.7572090  64.9260280
  95.8341340  85.1248080  66.3102420  96.2159920  89.1562400  67.5853590
  95.9188210  88.5507870  66.9061370  97.1659740  89.1939710  67.4742950
  94.4606840  82.2438050  69.2013420  95.0121430  82.3533390  68.4266670
  94.9750350  82.6175650  69.9168650  95.3078350  88.8944090  74.2361390
  94.4106880  89.1184060  74.4834790  95.3331220  89.0179030  73.2872790
  94.1349570  85.7657410  72.8118760  93.9957340  86.6380210  73.1806160
  93.2530930  85.4230220  72.6666700 100.4578950  90.6833280  64.1183890
 100.8974860  91.4257610  63.7039280 100.3965840  90.9259850  65.0422850
  95.9329920  91.7079110  75.0203910  95.9045350  92.1122060  74.1532340
  95.7694890  90.7789470  74.8575510  92.4482850  84.3639820  62.9221030
  92.3280450  85.0901910  62.3102300  92.1383740  83.5942730  62.4448940
  90.0868220  87.5354960  68.7289670  90.1648640  87.6703730  67.7845390
  90.7009900  86.8270850  68.9217790  91.3315850  89.2355150  65.1395850
  90.9243930  89.3769740  64.2849450  92.2228860  88.9515310  64.9367060
 101.1494730  93.3847060  72.0462900 101.6639400  93.2955070  72.8485330
 100.3063810  93.7306760  72.3390810  90.1427740  88.5769130  71.2684130
  90.3058780  88.1074490  70.4503500  90.6080190  88.0692690  71.9332970
  94.9146510  77.7074890  66.3044700  94.4714660  78.4884430  65.9729220
  95.4731500  78.0304780  67.0115640  99.2016320  80.5743410  71.9080020
  98.7395690  80.7826430  72.7199960  98.7994430  79.7602760  71.6050690
 101.2970540  83.2954110  75.1375470 101.6223950  82.4617860  74.7977700
 102.0850870  83.8182630  75.2853800  98.0305330  77.3285590  61.1850530
  97.4059510  77.3245460  61.9103840  97.9435450  76.4616550  60.7886500
  96.9522410  78.2522220  68.1634300  97.2494740  79.1585050  68.0826320
  97.5007970  77.7641000  67.5493870  94.7060730  82.8308460  64.0325950
  94.4801650  82.6145630  64.9372570  93.9253260  83.2636920  63.6871920
 101.9358490  82.8371830  62.6316600 101.3367380  83.5607630  62.4480220
 102.4838100  82.7748610  61.8493050  97.1459940  83.7294040  74.6986220
  97.0503540  82.7888770  74.5486620  97.9891920  83.9509110  74.3034290
 100.5423360  81.4735370  64.6619880 100.9352930  81.7907570  63.8488570
 100.9040210  80.5947250  64.7764400  92.2770480  80.1407710  72.8520000
  91.8833870  80.9882920  73.0592780  91.5888880  79.5034080  73.0428640
  89.5787530  78.0636170  66.8850080  89.2900580  78.6339030  67.5975060
  90.3233290  77.5840620  67.2481310  89.7657760  82.0056290  58.0952800
  89.6832430  82.9487050  58.2367790  89.4140820  81.8631200  57.2165150
 101.1278500  84.0641120  68.7570660 100.3959620  84.5727930  69.1060760
 100.7302840  83.2471100  68.4559440  97.5655890  80.7395320  67.1623150
  97.5691950  80.2985270  66.3127690  98.4607010  81.0612650  67.2694970
  93.4158270  80.6221810  66.1217360  93.0758320  81.0997040  66.8784410
  92.6535590  80.1686930  65.7618460  97.6276040  81.7407400  60.1529910
  97.7488860  81.6993880  61.1015730  97.2424550  82.6031550  59.9976640
 101.5904410  79.5174800  68.1693600 101.6077150  79.9683450  69.0135450
 101.3419990  78.6180440  68.3827040  96.6397540  84.0508540  59.5513210
  96.0714440  83.6026790  58.9249120  97.3486540  84.4101320  59.0178360
  91.7166720  87.9520560  73.4279940  91.3321510  87.3114230  74.0262900
  92.0278910  88.6556680  73.9974670  97.8663860  84.7997100  68.9088560
  98.2333990  84.3255670  69.6549900  97.6768920  85.6738670  69.2496900
  90.7304350  79.5440790  65.0382030  90.4451270  79.1796460  65.8760650
  90.6683210  78.8121250  64.4245170  95.6563230  83.8405740  71.2272770
  95.3520300  84.7197720  71.4523130  96.6109690  83.9005530  71.2630210
  94.1845020  88.0466730  61.8239620  93.4107280  87.5064350  61.6638340
  94.9139650  87.5273340  61.4857380 100.4042940  78.4370050  61.7595400
  99.5907550  77.9383220  61.6840710 100.2104890  79.2768300  61.3431750
 100.3251800  87.1141150  73.5035010 100.2589110  86.1936820  73.2492600
  99.6956940  87.2116590  74.2179650  94.2282420  87.7147110  65.4618430
  94.7461090  86.9115370  65.4075320  93.7766440  87.6526250  66.3035260
  99.1151920  88.9813390  60.7345730  99.4567620  89.7255620  60.2389050
  98.2864630  89.2944510  61.0970560  91.7126960  84.6808480  72.3744130
  91.3541900  85.3462330  72.9617470  91.4181520  83.8492030  72.7456750
  94.9140080  85.1392720  75.2583680  94.6140220  85.2849900  74.3611500
  95.6851320  84.5798010  75.1657070 100.2568530  89.9361720  73.2538810
 100.2713070  89.0042680  73.0357720  99.5493630  90.0221480  73.8928580
 101.9979330  88.3029230  66.0991240 102.3503150  87.7057360  65.4392610
 101.1141660  87.9773460  66.2699490  98.0842610  89.0626920  63.5061650
  98.7713740  89.6096130  63.8869240  97.2975030  89.6067650  63.5411260
  90.2235010  84.6799740  58.9978730  91.0929860  84.9624540  59.2814650
  89.7325330  85.4935610  58.8827540  97.3869820  86.0672950  63.1187010
  97.8432600  86.8778200  63.3447200  97.0358030  85.7496090  63.9505500
  99.6902430  91.5779290  70.3479310 100.3344650  91.7838670  71.0252730
 100.0531870  90.8167690  69.8950160  93.2881600  76.4110600  63.5909530
  93.1596230  76.4028500  64.5394450  92.4643620  76.7493690  63.2400540
 100.9634510  89.5811640  69.0656760 101.6056740  88.8804800  69.1788930
 101.4883860  90.3610080  68.8853650  90.2875530  78.1701720  73.0516230
  89.5734050  78.3698640  73.6568840  90.7070570  77.3941290  73.4231030
  90.5748120  92.1581980  74.0382760  90.6839240  91.2176720  73.8978150
  89.9228680  92.4236730  73.3896490  98.5660710  90.4297870  75.4380880
  98.2457580  89.7107110  75.9826570  97.8919070  91.1052940  75.5116940
  96.6074880  91.2758320  60.3814030  96.5984980  92.0088010  59.7658540
  95.6873240  91.0289900  60.4740990  92.2081520  86.4973210  61.1260790
  91.6009470  87.2372110  61.1356090  92.6830870  86.5872570  60.2998990
 101.7814310  80.6624030  70.8017680 102.1495130  79.8419240  71.1297250
 100.9212510  80.7225920  71.2173330  99.5934480  91.3386560  59.0439220
  99.6946460  91.1350550  58.1141200  98.6936220  91.0844840  59.2487000
  97.1160370  81.8966920  63.0263120  96.4076520  82.3653260  63.4676730
  97.4004850  81.2388930  63.6608310  98.7416300  83.3163620  71.0255650
  99.2401550  83.7909440  71.6907500  98.8839250  82.3927140  71.2325680
 101.1475800  78.6217580  64.4658910 101.0243580  78.6403710  63.5168420
 102.0960360  78.6696520  64.5857310  95.3195390  80.2052000  60.4013830
  96.1685920  80.6422150  60.3354020  94.9526660  80.5172260  61.2285890
  94.2186810  86.4584360  58.8749360  94.9850080  86.3465720  59.4374790
  94.2961500  85.7622330  58.2226130  92.9133570  83.8909430  59.5582250
  92.9937160  82.9436940  59.6699650  93.8053320  84.2216310  59.6642910
  90.5993760  90.1078390  62.5358300  89.6733540  90.3499530  62.5263710
  91.0650190  90.9352650  62.4143050  96.8250590  93.2135130  58.4842360
  97.6179200  93.5023960  58.0324150  96.3054940  92.7827300  57.8054840
  90.4404370  85.7124350  74.7938420  90.9443390  85.1331630  75.3654650
  89.7011790  85.9964580  75.3314790  97.3427990  88.4338540  58.3484710
  97.2378630  87.8190890  59.0746090  97.1752210  87.9104430  57.5647720
  97.4942310  87.1195340  74.3273940  96.7287980  87.6880340  74.2428610
  97.6758270  86.8271550  73.4342170 100.5830720  87.4958570  58.9526700
 100.0340820  87.9427870  59.5969440 101.2049980  86.9907820  59.4764370
  96.2505840  86.4549490  60.8492000  96.6722260  86.2889360  61.6923390
  96.3756680  85.6449720  60.3547140  94.4133260  82.4346040  73.6562980
  93.8829720  81.9436990  73.0286320  95.0821330  82.8630240  73.1220910
  98.7633480  85.4787100  58.0969100  99.2839140  84.7636120  57.7310250
  99.4101880  86.1172970  58.3969610  94.9005560  79.4008410  73.7360270
  94.8062430  78.7829160  73.0111140  94.3202950  80.1274700  73.5090180
  97.6667000  77.9581650  70.7687660  97.2184300  77.9805910  69.9233210
  97.0332200  77.5600670  71.3657960  98.0726550  86.8535980  71.3900100
  98.4914660  87.6968710  71.2176340  97.1535180  86.9908020  71.1606880
 100.4090450  84.5852160  72.7737940 100.5286660  83.9893300  73.5132780
 101.2684450  84.6221850  72.3539240  95.1464740  82.5282720  57.7950160
  94.9453800  81.6650080  58.1563500  94.9756790  82.4416080  56.8571760
  97.1759220  81.1273510  74.0313760  97.7658910  80.8189360  74.7191580
  96.3579460  80.6553260  74.1873660  93.9447540  79.6283340  57.7828040
  94.2473440  79.6350770  56.8747190  94.6842130  79.2781200  58.2795700
  97.1632470  78.5717960  58.7684240  96.8154470  77.8941950  58.1886690
  97.3645240  78.1107470  59.5827630  92.9677670  88.9325760  58.6157840
  93.4052540  89.4755430  59.2715420  93.4525400  88.1072710  58.6254180
  90.1823470  91.7214790  66.0678100  90.5126480  90.8535850  65.8356740
  90.6114470  91.9273310  66.8983060  94.7785390  90.0523800  63.7280070
  94.4780930  89.9288770  64.6283980  94.6722880  89.1932390  63.3195800
  90.6713680  92.5885380  68.8059730  90.2344670  92.7686180  69.6383880
  91.2391360  93.3460000  68.6641450  90.5038110  85.1005610  65.1648610
  89.8486950  84.8317250  64.5208310  91.3416060  84.9910090  64.7150590
  91.5414040  85.4858180  69.7051950  91.9087080  85.3985580  70.5847970
  90.9724860  84.7224730  69.6058810  91.0930040  82.3967270  73.6110370
  90.1986090  82.3634030  73.9504080  91.6327590  82.5954060  74.3761620
  89.7176190  82.3104540  61.1073940  88.8140270  82.5734740  60.9325600
  90.2016810  82.5815710  60.3273900  92.2603400  81.3670080  59.0168320
  92.9695100  80.9453300  58.5315600  91.5443340  81.4345310  58.3851670
  91.9077560  77.4209410  58.0570970  92.6305690  77.9618350  58.3752190
  92.1802080  77.1472830  57.1812510  91.5969750  76.6715600  67.9593590
  92.2445940  76.1212980  67.5188750  92.0171590  76.9258750  68.7809400
  91.3501750  76.8271270  70.7018910  91.0016570  77.2835090  71.4677090
  91.0189450  75.9328400  70.7841340  92.9566120  89.9990870  74.8672100
  92.9135750  89.6283780  75.7486560  93.0877130  90.9368440  75.0073920
  96.6572150  91.5550460  70.4681820  96.4163510  91.8225020  69.5812340
  97.5974790  91.7256190  70.5232680  98.8626570  78.0183150  74.2238330
  98.8015460  78.6104980  74.9733740  99.8026950  77.9109110  74.0788590
 101.5001130  77.6753210  73.8630620 102.1141540  77.9932500  73.2011700
 102.0450690  77.1901800  74.4826480  92.0222390  76.3547470  73.9769680
  92.5705380  76.1735520  73.2135790  92.0877700  75.5641580  74.5125990
  92.7954150  92.9453120  71.9869880  92.2014470  92.8137820  72.7259920
  92.7877990  92.1091260  71.5211980 102.2409170  76.2385350  70.1899910
 101.3669010  76.5720460  69.9872840 102.1319920  75.7658530  71.0151780
  92.4266380  90.3111500  70.9377920  91.7000440  89.6916790  70.8703870
  92.4875530  90.7052110  70.0676000  96.0311480  92.5256500  67.7227330
  96.5476500  91.9143860  67.1975590  96.6808860  93.0285280  68.2138340
  98.7706980  93.4164990  68.5496310  99.0584790  93.1619290  67.6729320
  99.2830200  92.8642350  69.1401880  99.9883990  77.1555190  69.1292820
  99.2055780  77.6300690  69.4089580  99.6946920  76.2510020  69.0206000
  91.3324400  77.4602670  61.6506540  92.0903760  77.5731550  61.0770570
  90.8701570  78.2971870  61.6049970  97.8738210  79.5741940  64.6408850
  97.0612720  79.1998830  64.3004730  98.3779850  78.8187020  64.9430040
  92.3159080  92.3219120  61.5924820  91.7906700  92.7027150  60.8886780
  92.2403660  92.9469890  62.3134530  93.7049550  77.9866720  60.1908510
  94.2342310  77.1996520  60.0616460  94.3377870  78.6657910  60.4244040
  95.8987390  77.7241860  63.2453900  95.2690130  77.0229170  63.4124030
  95.3592530  78.4845990  63.0287060  96.0242950  77.0025840  75.6806390
  95.7427220  77.5059440  74.9167210  96.4062650  76.2047590  75.3148520
  94.0766840  90.3866230  60.4720400  93.4475720  90.8551330  61.0206230
  94.1914670  89.5415450  60.9066590 101.5316560  84.4371890  46.6221600
 101.4510610  83.5226500  46.3513310 101.1180980  84.9338960  45.9161310
  99.6634600  86.2150910  48.5030870  98.8876700  85.7351350  48.7929440
 100.3147530  85.5356560  48.3287030  93.6800430  86.5270720  49.3806630
  92.8485310  86.2719430  49.7803140  94.2881410  86.5981490  50.1164550
  93.6601690  90.5610810  49.5764650  93.9629730  89.6708550  49.3974870
  94.4045280  91.1181030  49.3486900  92.0892380  81.4872610  43.1649020
  91.2009080  81.8288580  43.0628900  92.3733570  81.2872930  42.2729850
  90.0525390  84.0878260  49.0488720  90.6241500  83.3200460  49.0492360
  90.0526930  84.3867020  48.1395330  99.9105340  92.9069110  46.9033990
  99.2916780  93.3626610  46.3328430 100.7657120  93.0620570  46.5023690
  99.1043590  88.8908100  48.5101030  99.0351870  87.9498040  48.3490160
  99.8663450  88.9809510  49.0823600  91.2950260  79.4962620  50.8357650
  91.1153100  78.5988370  51.1160410  90.8930340  80.0434490  51.5104600
 100.1348760  81.6978480  48.7369960 100.5113580  80.8250360  48.6243630
 100.0368270  82.0337180  47.8460400  94.2653770  80.0704110  44.1987400
  94.3720520  80.9707840  44.5056160  93.3546130  80.0222080  43.9082050
  91.9136930  81.9923120  49.4439990  92.5947040  82.2561490  50.0627390
  91.5984980  81.1523990  49.7778000  96.1061500  83.0390480  48.5312580
  96.6139720  83.5371450  49.1717600  96.6374740  82.2625680  48.3551940
  94.3897600  77.6789040  52.7976000  94.3916040  78.1961430  51.9921900
  93.5601910  77.2019220  52.7745930 100.7768690  87.7908350  44.2965900
 100.1585960  88.2557800  43.7328620 101.2891940  88.4835830  44.7135410
  95.6400450  87.3184220  50.9749500  95.3069830  87.9453140  51.6170570
  95.8167130  87.8446100  50.1951170  94.0712930  79.3899000  50.8046450
  94.4129740  80.2341050  50.5100320  93.1328740  79.5382740  50.9211790
  94.8519550  89.2865020  52.7898680  95.4693550  89.9616100  52.5083130
  93.9912670  89.6953000  52.6986180  90.1451890  88.4764880  41.6705530
  89.7679870  88.9651980  40.9390430  90.4024960  89.1490160  42.3012060
  97.7540820  76.8781270  47.1291040  98.0615800  76.3228160  46.4126540
  96.8241520  77.0125730  46.9464030 100.1421580  84.9430100  43.8651160
  99.2150860  84.8767480  44.0939630 100.2946400  85.8810230  43.7506400
 100.1290660  81.2147100  40.8618320  99.1894330  81.3761060  40.9470780
 100.4473920  81.9332780  40.3154310  95.7478220  85.4694840  46.6470890
  95.3435220  84.7572090  46.1516790  95.8341340  85.1248080  47.5358930
  96.2159920  89.1562400  48.8110100  95.9188210  88.5507870  48.1317880
  97.1659740  89.1939710  48.6999460  94.4606840  82.2438050  50.4269930
  95.0121430  82.3533390  49.6523180  94.9750350  82.6175650  51.1425160
  95.3078350  88.8944090  55.4617900  94.4106880  89.1184060  55.7091300
  95.3331220  89.0179030  54.5129300  94.1349570  85.7657410  54.0375270
  93.9957340  86.6380210  54.4062670  93.2530930  85.4230220  53.8923210
 100.4578950  90.6833280  45.3440400 100.8974860  91.4257610  44.9295790
 100.3965840  90.9259850  46.2679360  95.9329920  91.7079110  56.2460420
  95.9045350  92.1122060  55.3788850  95.7694890  90.7789470  56.0832020
  92.4482850  84.3639820  44.1477540  92.3280450  85.0901910  43.5358810
  92.1383740  83.5942730  43.6705450  90.0868220  87.5354960  49.9546180
  90.1648640  87.6703730  49.0101900  90.7009900  86.8270850  50.1474300
  91.3315850  89.2355150  46.3652360  90.9243930  89.3769740  45.5105960
  92.2228860  88.9515310  46.1623570 101.1494730  93.3847060  53.2719410
 101.6639400  93.2955070  54.0741840 100.3063810  93.7306760  53.5647320
  90.1427740  88.5769130  52.4940640  90.3058780  88.1074490  51.6760010
  90.6080190  88.0692690  53.1589480  94.9146510  77.7074890  47.5301210
  94.4714660  78.4884430  47.1985730  95.4731500  78.0304780  48.2372150
  99.2016320  80.5743410  53.1336530  98.7395690  80.7826430  53.9456470
  98.7994430  79.7602760  52.8307200 101.2970540  83.2954110  56.3631980
 101.6223950  82.4617860  56.0234210 102.0850870  83.8182630  56.5110310
  98.0305330  77.3285590  42.4107040  97.4059510  77.3245460  43.1360350
  97.9435450  76.4616550  42.0143010  96.9522410  78.2522220  49.3890810
  97.2494740  79.1585050  49.3082830  97.5007970  77.7641000  48.7750380
  94.7060730  82.8308460  45.2582460  94.4801650  82.6145630  46.1629080
  93.9253260  83.2636920  44.9128430 101.9358490  82.8371830  43.8573110
 101.3367380  83.5607630  43.6736730 102.4838100  82.7748610  43.0749560
  97.1459940  83.7294040  55.9242730  97.0503540  82.7888770  55.7743130
  97.9891920  83.9509110  55.5290800 100.5423360  81.4735370  45.8876390
 100.9352930  81.7907570  45.0745080 100.9040210  80.5947250  46.0020910
  92.2770480  80.1407710  54.0776510  91.8833870  80.9882920  54.2849290
  91.5888880  79.5034080  54.2685150  98.8515530  80.2242680  57.1473250
  98.1613850  80.0314880  57.7819340  99.5947830  80.5077320  57.6797550
  89.5787530  78.0636170  48.1106590  89.2900580  78.6339030  48.8231570
  90.3233290  77.5840620  48.4737820  89.7657760  82.0056290  39.3209310
  89.6832430  82.9487050  39.4624300  89.4140820  81.8631200  38.4421660
 101.1278500  84.0641120  49.9827170 100.3959620  84.5727930  50.3317270
 100.7302840  83.2471100  49.6815950  97.5655890  80.7395320  48.3879660
  97.5691950  80.2985270  47.5384200  98.4607010  81.0612650  48.4951480
  93.4158270  80.6221810  47.3473870  93.0758320  81.0997040  48.1040920
  92.6535590  80.1686930  46.9874970  97.6276040  81.7407400  41.3786420
  97.7488860  81.6993880  42.3272240  97.2424550  82.6031550  41.2233150
 101.5904410  79.5174800  49.3950110 101.6077150  79.9683450  50.2391960
 101.3419990  78.6180440  49.6083550  96.6397540  84.0508540  40.7769720
  96.0714440  83.6026790  40.1505630  97.3486540  84.4101320  40.2434870
  91.7166720  87.9520560  54.6536450  91.3321510  87.3114230  55.2519410
  92.0278910  88.6556680  55.2231180  97.8663860  84.7997100  50.1345070
  98.2333990  84.3255670  50.8806410  97.6768920  85.6738670  50.4753410
  90.7304350  79.5440790  46.2638540  90.4451270  79.1796460  47.1017160
  90.6683210  78.8121250  45.6501680  95.6563230  83.8405740  52.4529280
  95.3520300  84.7197720  52.6779640  96.6109690  83.9005530  52.4886720
  94.1845020  88.0466730  43.0496130  93.4107280  87.5064350  42.8894850
  94.9139650  87.5273340  42.7113890 100.4042940  78.4370050  42.9851910
  99.5907550  77.9383220  42.9097220 100.2104890  79.2768300  42.5688260
 100.3251800  87.1141150  54.7291520 100.2589110  86.1936820  54.4749110
  99.6956940  87.2116590  55.4436160  94.2282420  87.7147110  46.6874940
  94.7461090  86.9115370  46.6331830  93.7766440  87.6526250  47.5291770
  99.1151920  88.9813390  41.9602240  99.4567620  89.7255620  41.4645560
  98.2864630  89.2944510  42.3227070  91.7126960  84.6808480  53.6000640
  91.3541900  85.3462330  54.1873980  91.4181520  83.8492030  53.9713260
  94.9140080  85.1392720  56.4840190  94.6140220  85.2849900  55.5868010
  95.6851320  84.5798010  56.3913580 100.2568530  89.9361720  54.4795320
 100.2713070  89.0042680  54.2614230  99.5493630  90.0221480  55.1185090
 101.9979330  88.3029230  47.3247750 102.3503150  87.7057360  46.6649120
 101.1141660  87.9773460  47.4956000  98.0842610  89.0626920  44.7318160
  98.7713740  89.6096130  45.1125750  97.2975030  89.6067650  44.7667770
  90.2235010  84.6799740  40.2235240  91.0929860  84.9624540  40.5071160
  89.7325330  85.4935610  40.1084050  97.3869820  86.0672950  44.3443520
  97.8432600  86.8778200  44.5703710  97.0358030  85.7496090  45.1762010
  99.6902430  91.5779290  51.5735820 100.3344650  91.7838670  52.2509240
 100.0531870  90.8167690  51.1206670  93.2881600  76.4110600  44.8166040
  93.1596230  76.4028500  45.7650960  92.4643620  76.7493690  44.4657050
 100.9634510  89.5811640  50.2913270 101.6056740  88.8804800  50.4045440
 101.4883860  90.3610080  50.1110160  90.2875530  78.1701720  54.2772740
  89.5734050  78.3698640  54.8825350  90.7070570  77.3941290  54.6487540
  90.5748120  92.1581980  55.2639270  90.6839240  91.2176720  55.1234660
  89.9228680  92.4236730  54.6153000  98.5660710  90.4297870  56.6637390
  98.2457580  89.7107110  57.2083080  97.8919070  91.1052940  56.7373450
  96.6074880  91.2758320  41.6070540  96.5984980  92.0088010  40.9915050
  95.6873240  91.0289900  41.6997500  92.2081520  86.4973210  42.3517300
  91.6009470  87.2372110  42.3612600  92.6830870  86.5872570  41.5255500
 101.7814310  80.6624030  52.0274190 102.1495130  79.8419240  52.3553760
 100.9212510  80.7225920  52.4429840  99.5934480  91.3386560  40.2695730
  99.6946460  91.1350550  39.3397710  98.6936220  91.0844840  40.4743510
  97.1160370  81.8966920  44.2519630  96.4076520  82.3653260  44.6933240
  97.4004850  81.2388930  44.8864820  98.7416300  83.3163620  52.2512160
  99.2401550  83.7909440  52.9164010  98.8839250  82.3927140  52.4582190
 101.1475800  78.6217580  45.6915420 101.0243580  78.6403710  44.7424930
 102.0960360  78.6696520  45.8113820  95.3195390  80.2052000  41.6270340
  96.1685920  80.6422150  41.5610530  94.9526660  80.5172260  42.4542400
  94.2186810  86.4584360  40.1005870  94.9850080  86.3465720  40.6631300
  94.2961500  85.7622330  39.4482640  92.9133570  83.8909430  40.7838760
  92.9937160  82.9436940  40.8956160  93.8053320  84.2216310  40.8899420
  90.5993760  90.1078390  43.7614810  89.6733540  90.3499530  43.7520220
  91.0650190  90.9352650  43.6399560  92.7206560  93.2250890  57.0758880
  93.5219290  93.5462940  57.4894280  92.2058380  92.8646470  57.7978790
  96.8250590  93.2135130  39.7098870  97.6179200  93.5023960  39.2580660
  96.3054940  92.7827300  39.0311350 101.5571190  89.3330760  57.0234290
 100.9509350  89.3562360  56.2830040 101.2525300  88.6013800  57.5601540
  90.4404370  85.7124350  56.0194930  90.9443390  85.1331630  56.5911160
  89.7011790  85.9964580  56.5571300  97.3427990  88.4338540  39.5741220
  97.2378630  87.8190890  40.3002600  97.1752210  87.9104430  38.7904230
  97.4942310  87.1195340  55.5530450  96.7287980  87.6880340  55.4685120
  97.6758270  86.8271550  54.6598680 100.5830720  87.4958570  40.1783210
 100.0340820  87.9427870  40.8225950 101.2049980  86.9907820  40.7020880
  92.4727450  83.8553940  56.9145000  92.5132790  83.5567810  57.8230230
  93.3272950  84.2561550  56.7552520  96.2505840  86.4549490  42.0748510
  96.6722260  86.2889360  42.9179900  96.3756680  85.6449720  41.5803650
  94.4133260  82.4346040  54.8819490  93.8829720  81.9436990  54.2542830
  95.0821330  82.8630240  54.3477420  98.7633480  85.4787100  39.3225610
  99.2839140  84.7636120  38.9566760  99.4101880  86.1172970  39.6226120
  94.9005560  79.4008410  54.9616780  94.8062430  78.7829160  54.2367650
  94.3202950  80.1274700  54.7346690  97.6667000  77.9581650  51.9944170
  97.2184300  77.9805910  51.1489720  97.0332200  77.5600670  52.5914470
  98.0726550  86.8535980  52.6156610  98.4914660  87.6968710  52.4432850
  97.1535180  86.9908020  52.3863390 100.4090450  84.5852160  53.9994450
 100.5286660  83.9893300  54.7389290 101.2684450  84.6221850  53.5795750
  95.1464740  82.5282720  39.0206670  94.9453800  81.6650080  39.3820010
  94.9756790  82.4416080  38.0828270  97.1759220  81.1273510  55.2570270
  97.7658910  80.8189360  55.9448090  96.3579460  80.6553260  55.4130170
  93.9447540  79.6283340  39.0084550  94.2473440  79.6350770  38.1003700
  94.6842130  79.2781200  39.5052210  97.1632470  78.5717960  39.9940750
  96.8154470  77.8941950  39.4143200  97.3645240  78.1107470  40.8084140
  92.9677670  88.9325760  39.8414350  93.4052540  89.4755430  40.4971930
  93.4525400  88.1072710  39.8510690  90.1823470  91.7214790  47.2934610
  90.5126480  90.8535850  47.0613250  90.6114470  91.9273310  48.1239570
  94.7785390  90.0523800  44.9536580  94.4780930  89.9288770  45.8540490
  94.6722880  89.1932390  44.5452310  90.6713680  92.5885380  50.0316240
  90.2344670  92.7686180  50.8640390  91.2391360  93.3460000  49.8897960
  90.5038110  85.1005610  46.3905120  89.8486950  84.8317250  45.7464820
  91.3416060  84.9910090  45.9407100  91.5414040  85.4858180  50.9308460
  91.9087080  85.3985580  51.8104480  90.9724860  84.7224730  50.8315320
  91.0930040  82.3967270  54.8366880  90.1986090  82.3634030  55.1760590
  91.6327590  82.5954060  55.6018130  89.7176190  82.3104540  42.3330450
  88.8140270  82.5734740  42.1582110  90.2016810  82.5815710  41.5530410
  92.2603400  81.3670080  40.2424830  92.9695100  80.9453300  39.7572110
  91.5443340  81.4345310  39.6108180  91.9077560  77.4209410  39.2827480
  92.6305690  77.9618350  39.6008700  92.1802080  77.1472830  38.4069020
  91.5969750  76.6715600  49.1850100  92.2445940  76.1212980  48.7445260
  92.0171590  76.9258750  50.0065910  91.3501750  76.8271270  51.9275420
  91.0016570  77.2835090  52.6933600  91.0189450  75.9328400  52.0097850
  92.9566120  89.9990870  56.0928610  92.9135750  89.6283780  56.9743070
  93.0877130  90.9368440  56.2330430  96.6572150  91.5550460  51.6938330
  96.4163510  91.8225020  50.8068850  97.5974790  91.7256190  51.7489190
  98.8626570  78.0183150  55.4494840  98.8015460  78.6104980  56.1990250
  99.8026950  77.9109110  55.3045100 101.5001130  77.6753210  55.0887130
 102.1141540  77.9932500  54.4268210 102.0450690  77.1901800  55.7082990
  92.0222390  76.3547470  55.2026190  92.5705380  76.1735520  54.4392300
  92.0877700  75.5641580  55.7382500  92.7954150  92.9453120  53.2126390
  92.2014470  92.8137820  53.9516430  92.7877990  92.1091260  52.7468490
 102.2409170  76.2385350  51.4156420 101.3669010  76.5720460  51.2129350
 102.1319920  75.7658530  52.2408290  92.4266380  90.3111500  52.1634430
  91.7000440  89.6916790  52.0960380  92.4875530  90.7052110  51.2932510
  96.0311480  92.5256500  48.9483840  96.5476500  91.9143860  48.4232100
  96.6808860  93.0285280  49.4394850  98.7706980  93.4164990  49.7752820
  99.0584790  93.1619290  48.8985830  99.2830200  92.8642350  50.3658390
  99.9883990  77.1555190  50.3549330  99.2055780  77.6300690  50.6346090
  99.6946920  76.2510020  50.2462510  91.3324400  77.4602670  42.8763050
  92.0903760  77.5731550  42.3027080  90.8701570  78.2971870  42.8306480
  97.8738210  79.5741940  45.8665360  97.0612720  79.1998830  45.5261240
  98.3779850  78.8187020  46.1686550  92.3159080  92.3219120  42.8181330
  91.7906700  92.7027150  42.1143290  92.2403660  92.9469890  43.5391040
  93.7049550  77.9866720  41.4165020  94.2342310  77.1996520  41.2872970
  94.3377870  78.6657910  41.6500550  95.8987390  77.7241860  44.4710410
  95.2690130  77.0229170  44.6380540  95.3592530  78.4845990  44.2543570
  96.0242950  77.0025840  56.9062900  95.7427220  77.5059440  56.1423720
  96.4062650  76.2047590  56.5405030  94.0766840  90.3866230  41.6976910
  93.4475720  90.8551330  42.2462740  94.1914670  89.5415450  42.1323100
 101.5316560  84.4371890  27.8478110 101.4510610  83.5226500  27.5769820
 101.1180980  84.9338960  27.1417820  99.6634600  86.2150910  29.7287380
  98.8876700  85.7351350  30.0185950 100.3147530  85.5356560  29.5543540
  93.6800430  86.5270720  30.6063140  92.8485310  86.2719430  31.0059650
  94.2881410  86.5981490  31.3421060  93.6601690  90.5610810  30.8021160
  93.9629730  89.6708550  30.6231380  94.4045280  91.1181030  30.5743410
  92.0892380  81.4872610  24.3905530  91.2009080  81.8288580  24.2885410
  92.3733570  81.2872930  23.4986360  90.0525390  84.0878260  30.2745230
  90.6241500  83.3200460  30.2748870  90.0526930  84.3867020  29.3651840
  99.9105340  92.9069110  28.1290500  99.2916780  93.3626610  27.5584940
 100.7657120  93.0620570  27.7280200  99.1043590  88.8908100  29.7357540
  99.0351870  87.9498040  29.5746670  99.8663450  88.9809510  30.3080110
  91.2950260  79.4962620  32.0614160  91.1153100  78.5988370  32.3416920
  90.8930340  80.0434490  32.7361110 100.1348760  81.6978480  29.9626470
 100.5113580  80.8250360  29.8500140 100.0368270  82.0337180  29.0716910
  94.2653770  80.0704110  25.4243910  94.3720520  80.9707840  25.7312670
  93.3546130  80.0222080  25.1338560  91.9136930  81.9923120  30.6696500
  92.5947040  82.2561490  31.2883900  91.5984980  81.1523990  31.0034510
  96.1061500  83.0390480  29.7569090  96.6139720  83.5371450  30.3974110
  96.6374740  82.2625680  29.5808450  94.3897600  77.6789040  34.0232510
  94.3916040  78.1961430  33.2178410  93.5601910  77.2019220  34.0002440
 100.7768690  87.7908350  25.5222410 100.1585960  88.2557800  24.9585130
 101.2891940  88.4835830  25.9391920  95.6400450  87.3184220  32.2006010
  95.3069830  87.9453140  32.8427080  95.8167130  87.8446100  31.4207680
  94.0712930  79.3899000  32.0302960  94.4129740  80.2341050  31.7356830
  93.1328740  79.5382740  32.1468300  94.8519550  89.2865020  34.0155190
  95.4693550  89.9616100  33.7339640  93.9912670  89.6953000  33.9242690
  90.1451890  88.4764880  22.8962040  89.7679870  88.9651980  22.1646940
  90.4024960  89.1490160  23.5268570  97.7540820  76.8781270  28.3547550
  98.0615800  76.3228160  27.6383050  96.8241520  77.0125730  28.1720540
 100.1421580  84.9430100  25.0907670  99.2150860  84.8767480  25.3196140
 100.2946400  85.8810230  24.9762910 100.1290660  81.2147100  22.0874830
  99.1894330  81.3761060  22.1727290 100.4473920  81.9332780  21.5410820
  95.7478220  85.4694840  27.8727400  95.3435220  84.7572090  27.3773300
  95.8341340  85.1248080  28.7615440  96.2159920  89.1562400  30.0366610
  95.9188210  88.5507870  29.3574390  97.1659740  89.1939710  29.9255970
  94.4606840  82.2438050  31.6526440  95.0121430  82.3533390  30.8779690
  94.9750350  82.6175650  32.3681670  95.3078350  88.8944090  36.6874410
  94.4106880  89.1184060  36.9347810  95.3331220  89.0179030  35.7385810
  94.1349570  85.7657410  35.2631780  93.9957340  86.6380210  35.6319180
  93.2530930  85.4230220  35.1179720 100.4578950  90.6833280  26.5696910
 100.8974860  91.4257610  26.1552300 100.3965840  90.9259850  27.4935870
  95.9329920  91.7079110  37.4716930  95.9045350  92.1122060  36.6045360
  95.7694890  90.7789470  37.3088530  92.4482850  84.3639820  25.3734050
  92.3280450  85.0901910  24.7615320  92.1383740  83.5942730  24.8961960
  90.0868220  87.5354960  31.1802690  90.1648640  87.6703730  30.2358410
  90.7009900  86.8270850  31.3730810  91.3315850  89.2355150  27.5908870
  90.9243930  89.3769740  26.7362470  92.2228860  88.9515310  27.3880080
 101.1494730  93.3847060  34.4975920 101.6639400  93.2955070  35.2998350
 100.3063810  93.7306760  34.7903830  90.1427740  88.5769130  33.7197150
  90.3058780  88.1074490  32.9016520  90.6080190  88.0692690  34.3845990
  94.9146510  77.7074890  28.7557720  94.4714660  78.4884430  28.4242240
  95.4731500  78.0304780  29.4628660  99.2016320  80.5743410  34.3593040
  98.7395690  80.7826430  35.1712980  98.7994430  79.7602760  34.0563710
 101.2970540  83.2954110  37.5888490 101.6223950  82.4617860  37.2490720
 102.0850870  83.8182630  37.7366820  98.0305330  77.3285590  23.6363550
  97.4059510  77.3245460  24.3616860  97.9435450  76.4616550  23.2399520
  96.9522410  78.2522220  30.6147320  97.2494740  79.1585050  30.5339340
  97.5007970  77.7641000  30.0006890  94.7060730  82.8308460  26.4838970
  94.4801650  82.6145630  27.3885590  93.9253260  83.2636920  26.1384940
 101.9358490  82.8371830  25.0829620 101.3367380  83.5607630  24.8993240
 102.4838100  82.7748610  24.3006070  97.1459940  83.7294040  37.1499240
  97.0503540  82.7888770  36.9999640  97.9891920  83.9509110  36.7547310
 100.5423360  81.4735370  27.1132900 100.9352930  81.7907570  26.3001590
 100.9040210  80.5947250  27.2277420  92.2770480  80.1407710  35.3033020
  91.8833870  80.9882920  35.5105800  91.5888880  79.5034080  35.4941660
  98.8515530  80.2242680  38.3729760  98.1613850  80.0314880  39.0075850
  99.5947830  80.5077320  38.9054060  89.5787530  78.0636170  29.3363100
  89.2900580  78.6339030  30.0488080  90.3233290  77.5840620  29.6994330
  89.7657760  82.0056290  20.5465820  89.6832430  82.9487050  20.6880810
  89.4140820  81.8631200  19.6678170 101.1278500  84.0641120  31.2083680
 100.3959620  84.5727930  31.5573780 100.7302840  83.2471100  30.9072460
  97.5655890  80.7395320  29.6136170  97.5691950  80.2985270  28.7640710
  98.4607010  81.0612650  29.7207990  93.4158270  80.6221810  28.5730380
  93.0758320  81.0997040  29.3297430  92.6535590  80.1686930  28.2131480
  97.6276040  81.7407400  22.6042930  97.7488860  81.6993880  23.5528750
  97.2424550  82.6031550  22.4489660 101.5904410  79.5174800  30.6206620
 101.6077150  79.9683450  31.4648470 101.3419990  78.6180440  30.8340060
  96.6397540  84.0508540  22.0026230  96.0714440  83.6026790  21.3762140
  97.3486540  84.4101320  21.4691380  91.7166720  87.9520560  35.8792960
  91.3321510  87.3114230  36.4775920  92.0278910  88.6556680  36.4487690
  97.8663860  84.7997100  31.3601580  98.2333990  84.3255670  32.1062920
  97.6768920  85.6738670  31.7009920  90.7304350  79.5440790  27.4895050
  90.4451270  79.1796460  28.3273670  90.6683210  78.8121250  26.8758190
  95.6563230  83.8405740  33.6785790  95.3520300  84.7197720  33.9036150
  96.6109690  83.9005530  33.7143230  94.1845020  88.0466730  24.2752640
  93.4107280  87.5064350  24.1151360  94.9139650  87.5273340  23.9370400
 100.4042940  78.4370050  24.2108420  99.5907550  77.9383220  24.1353730
 100.2104890  79.2768300  23.7944770 100.3251800  87.1141150  35.9548030
 100.2589110  86.1936820  35.7005620  99.6956940  87.2116590  36.6692670
  94.2282420  87.7147110  27.9131450  94.7461090  86.9115370  27.8588340
  93.7766440  87.6526250  28.7548280  99.1151920  88.9813390  23.1858750
  99.4567620  89.7255620  22.6902070  98.2864630  89.2944510  23.5483580
  91.7126960  84.6808480  34.8257150  91.3541900  85.3462330  35.4130490
  91.4181520  83.8492030  35.1969770  94.9140080  85.1392720  37.7096700
  94.6140220  85.2849900  36.8124520  95.6851320  84.5798010  37.6170090
 100.2568530  89.9361720  35.7051830 100.2713070  89.0042680  35.4870740
  99.5493630  90.0221480  36.3441600 101.9979330  88.3029230  28.5504260
 102.3503150  87.7057360  27.8905630 101.1141660  87.9773460  28.7212510
  98.0842610  89.0626920  25.9574670  98.7713740  89.6096130  26.3382260
  97.2975030  89.6067650  25.9924280  90.2235010  84.6799740  21.4491750
  91.0929860  84.9624540  21.7327670  89.7325330  85.4935610  21.3340560
  97.3869820  86.0672950  25.5700030  97.8432600  86.8778200  25.7960220
  97.0358030  85.7496090  26.4018520  99.6902430  91.5779290  32.7992330
 100.3344650  91.7838670  33.4765750 100.0531870  90.8167690  32.3463180
  93.2881600  76.4110600  26.0422550  93.1596230  76.4028500  26.9907470
  92.4643620  76.7493690  25.6913560 100.9634510  89.5811640  31.5169780
 101.6056740  88.8804800  31.6301950 101.4883860  90.3610080  31.3366670
  90.2875530  78.1701720  35.5029250  89.5734050  78.3698640  36.1081860
  90.7070570  77.3941290  35.8744050  90.5748120  92.1581980  36.4895780
  90.6839240  91.2176720  36.3491170  89.9228680  92.4236730  35.8409510
  98.5660710  90.4297870  37.8893900  98.2457580  89.7107110  38.4339590
  97.8919070  91.1052940  37.9629960  96.6074880  91.2758320  22.8327050
  96.5984980  92.0088010  22.2171560  95.6873240  91.0289900  22.9254010
  92.2081520  86.4973210  23.5773810  91.6009470  87.2372110  23.5869110
  92.6830870  86.5872570  22.7512010 101.7814310  80.6624030  33.2530700
 102.1495130  79.8419240  33.5810270 100.9212510  80.7225920  33.6686350
  99.5934480  91.3386560  21.4952240  99.6946460  91.1350550  20.5654220
  98.6936220  91.0844840  21.7000020  97.1160370  81.8966920  25.4776140
  96.4076520  82.3653260  25.9189750  97.4004850  81.2388930  26.1121330
  98.7416300  83.3163620  33.4768670  99.2401550  83.7909440  34.1420520
  98.8839250  82.3927140  33.6838700 101.1475800  78.6217580  26.9171930
 101.0243580  78.6403710  25.9681440 102.0960360  78.6696520  27.0370330
  95.3195390  80.2052000  22.8526850  96.1685920  80.6422150  22.7867040
  94.9526660  80.5172260  23.6798910  94.2186810  86.4584360  21.3262380
  94.9850080  86.3465720  21.8887810  94.2961500  85.7622330  20.6739150
  92.9133570  83.8909430  22.0095270  92.9937160  82.9436940  22.1212670
  93.8053320  84.2216310  22.1155930  90.5993760  90.1078390  24.9871320
  89.6733540  90.3499530  24.9776730  91.0650190  90.9352650  24.8656070
  92.7206560  93.2250890  38.3015390  93.5219290  93.5462940  38.7150790
  92.2058380  92.8646470  39.0235300  96.8250590  93.2135130  20.9355380
  97.6179200  93.5023960  20.4837170  96.3054940  92.7827300  20.2567860
 101.5571190  89.3330760  38.2490800 100.9509350  89.3562360  37.5086550
 101.2525300  88.6013800  38.7858050  90.4404370  85.7124350  37.2451440
  90.9443390  85.1331630  37.8167670  89.7011790  85.9964580  37.7827810
  97.3427990  88.4338540  20.7997730  97.2378630  87.8190890  21.5259110
  97.1752210  87.9104430  20.0160740  97.4942310  87.1195340  36.7786960
  96.7287980  87.6880340  36.6941630  97.6758270  86.8271550  35.8855190
 100.5830720  87.4958570  21.4039720 100.0340820  87.9427870  22.0482460
 101.2049980  86.9907820  21.9277390  92.4727450  83.8553940  38.1401510
  92.5132790  83.5567810  39.0486740  93.3272950  84.2561550  37.9809030
  96.2505840  86.4549490  23.3005020  96.6722260  86.2889360  24.1436410
  96.3756680  85.6449720  22.8060160  94.4133260  82.4346040  36.1076000
  93.8829720  81.9436990  35.4799340  95.0821330  82.8630240  35.5733930
  98.7633480  85.4787100  20.5482120  99.2839140  84.7636120  20.1823270
  99.4101880  86.1172970  20.8482630  94.9005560  79.4008410  36.1873290
  94.8062430  78.7829160  35.4624160  94.3202950  80.1274700  35.9603200
  97.6667000  77.9581650  33.2200680  97.2184300  77.9805910  32.3746230
  97.0332200  77.5600670  33.8170980  98.0726550  86.8535980  33.8413120
  98.4914660  87.6968710  33.6689360  97.1535180  86.9908020  33.6119900
 100.4090450  84.5852160  35.2250960 100.5286660  83.9893300  35.9645800
 101.2684450  84.6221850  34.8052260  95.1464740  82.5282720  20.2463180
  94.9453800  81.6650080  20.6076520  94.9756790  82.4416080  19.3084780
  97.1759220  81.1273510  36.4826780  97.7658910  80.8189360  37.1704600
  96.3579460  80.6553260  36.6386680  93.9447540  79.6283340  20.2341060
  94.2473440  79.6350770  19.3260210  94.6842130  79.2781200  20.7308720
  97.1632470  78.5717960  21.2197260  96.8154470  77.8941950  20.6399710
  97.3645240  78.1107470  22.0340650  92.9677670  88.9325760  21.0670860
  93.4052540  89.4755430  21.7228440  93.4525400  88.1072710  21.0767200
  90.1823470  91.7214790  28.5191120  90.5126480  90.8535850  28.2869760
  90.6114470  91.9273310  29.3496080  94.7785390  90.0523800  26.1793090
  94.4780930  89.9288770  27.0797000  94.6722880  89.1932390  25.7708820
  90.6713680  92.5885380  31.2572750  90.2344670  92.7686180  32.0896900
  91.2391360  93.3460000  31.1154470  90.5038110  85.1005610  27.6161630
  89.8486950  84.8317250  26.9721330  91.3416060  84.9910090  27.1663610
  91.5414040  85.4858180  32.1564970  91.9087080  85.3985580  33.0360990
  90.9724860  84.7224730  32.0571830  91.0930040  82.3967270  36.0623390
  90.1986090  82.3634030  36.4017100  91.6327590  82.5954060  36.8274640
  89.7176190  82.3104540  23.5586960  88.8140270  82.5734740  23.3838620
  90.2016810  82.5815710  22.7786920  92.2603400  81.3670080  21.4681340
  92.9695100  80.9453300  20.9828620  91.5443340  81.4345310  20.8364690
  91.9077560  77.4209410  20.5083990  92.6305690  77.9618350  20.8265210
  92.1802080  77.1472830  19.6325530  91.5969750  76.6715600  30.4106610
  92.2445940  76.1212980  29.9701770  92.0171590  76.9258750  31.2322420
  91.3501750  76.8271270  33.1531930  91.0016570  77.2835090  33.9190110
  91.0189450  75.9328400  33.2354360  92.9566120  89.9990870  37.3185120
  92.9135750  89.6283780  38.1999580  93.0877130  90.9368440  37.4586940
  96.6572150  91.5550460  32.9194840  96.4163510  91.8225020  32.0325360
  97.5974790  91.7256190  32.9745700  98.8626570  78.0183150  36.6751350
  98.8015460  78.6104980  37.4246760  99.8026950  77.9109110  36.5301610
 101.5001130  77.6753210  36.3143640 102.1141540  77.9932500  35.6524720
 102.0450690  77.1901800  36.9339500  92.0222390  76.3547470  36.4282700
  92.5705380  76.1735520  35.6648810  92.0877700  75.5641580  36.9639010
  92.7954150  92.9453120  34.4382900  92.2014470  92.8137820  35.1772940
  92.7877990  92.1091260  33.9725000 102.2409170  76.2385350  32.6412930
 101.3669010  76.5720460  32.4385860 102.1319920  75.7658530  33.4664800
  92.4266380  90.3111500  33.3890940  91.7000440  89.6916790  33.3216890
  92.4875530  90.7052110  32.5189020  96.0311480  92.5256500  30.1740350
  96.5476500  91.9143860  29.6488610  96.6808860  93.0285280  30.6651360
  98.7706980  93.4164990  31.0009330  99.0584790  93.1619290  30.1242340
  99.2830200  92.8642350  31.5914900  99.9883990  77.1555190  31.5805840
  99.2055780  77.6300690  31.8602600  99.6946920  76.2510020  31.4719020
  91.3324400  77.4602670  24.1019560  92.0903760  77.5731550  23.5283590
  90.8701570  78.2971870  24.0562990  97.8738210  79.5741940  27.0921870
  97.0612720  79.1998830  26.7517750  98.3779850  78.8187020  27.3943060
  92.3159080  92.3219120  24.0437840  91.7906700  92.7027150  23.3399800
  92.2403660  92.9469890  24.7647550  93.7049550  77.9866720  22.6421530
  94.2342310  77.1996520  22.5129480  94.3377870  78.6657910  22.8757060
  95.8987390  77.7241860  25.6966920  95.2690130  77.0229170  25.8637050
  95.3592530  78.4845990  25.4800080  96.0242950  77.0025840  38.1319410
  95.7427220  77.5059440  37.3680230  96.4062650  76.2047590  37.7661540
  94.0766840  90.3866230  22.9233420  93.4475720  90.8551330  23.4719250
  94.1914670  89.5415450  23.3579610 101.5316560  84.4371890   9.0734620
 101.4510610  83.5226500   8.8026330 101.1180980  84.9338960   8.3674330
  99.6634600  86.2150910  10.9543890  98.8876700  85.7351350  11.2442460
 100.3147530  85.5356560  10.7800050  93.6800430  86.5270720  11.8319650
  92.8485310  86.2719430  12.2316160  94.2881410  86.5981490  12.5677570
  93.6601690  90.5610810  12.0277670  93.9629730  89.6708550  11.8487890
  94.4045280  91.1181030  11.7999920  92.0892380  81.4872610   5.6162040
  91.2009080  81.8288580   5.5141920  92.3733570  81.2872930   4.7242870
  90.0525390  84.0878260  11.5001740  90.6241500  83.3200460  11.5005380
  90.0526930  84.3867020  10.5908350  99.9105340  92.9069110   9.3547010
  99.2916780  93.3626610   8.7841450 100.7657120  93.0620570   8.9536710
  99.1043590  88.8908100  10.9614050  99.0351870  87.9498040  10.8003180
  99.8663450  88.9809510  11.5336620  91.2950260  79.4962620  13.2870670
  91.1153100  78.5988370  13.5673430  90.8930340  80.0434490  13.9617620
 100.1348760  81.6978480  11.1882980 100.5113580  80.8250360  11.0756650
 100.0368270  82.0337180  10.2973420  94.2653770  80.0704110   6.6500420
  94.3720520  80.9707840   6.9569180  93.3546130  80.0222080   6.3595070
  91.9136930  81.9923120  11.8953010  92.5947040  82.2561490  12.5140410
  91.5984980  81.1523990  12.2291020  96.1061500  83.0390480  10.9825600
  96.6139720  83.5371450  11.6230620  96.6374740  82.2625680  10.8064960
  94.3897600  77.6789040  15.2489020  94.3916040  78.1961430  14.4434920
  93.5601910  77.2019220  15.2258950 100.7768690  87.7908350   6.7478920
 100.1585960  88.2557800   6.1841640 101.2891940  88.4835830   7.1648430
  95.6400450  87.3184220  13.4262520  95.3069830  87.9453140  14.0683590
  95.8167130  87.8446100  12.6464190  94.0712930  79.3899000  13.2559470
  94.4129740  80.2341050  12.9613340  93.1328740  79.5382740  13.3724810
  94.8519550  89.2865020  15.2411700  95.4693550  89.9616100  14.9596150
  93.9912670  89.6953000  15.1499200  90.1451890  88.4764880   4.1218550
  89.7679870  88.9651980   3.3903450  90.4024960  89.1490160   4.7525080
  97.7540820  76.8781270   9.5804060  98.0615800  76.3228160   8.8639560
  96.8241520  77.0125730   9.3977050 100.1421580  84.9430100   6.3164180
  99.2150860  84.8767480   6.5452650 100.2946400  85.8810230   6.2019420
 100.1290660  81.2147100   3.3131340  99.1894330  81.3761060   3.3983800
 100.4473920  81.9332780   2.7667330  95.7478220  85.4694840   9.0983910
  95.3435220  84.7572090   8.6029810  95.8341340  85.1248080   9.9871950
  96.2159920  89.1562400  11.2623120  95.9188210  88.5507870  10.5830900
  97.1659740  89.1939710  11.1512480  94.4606840  82.2438050  12.8782950
  95.0121430  82.3533390  12.1036200  94.9750350  82.6175650  13.5938180
  95.3078350  88.8944090  17.9130920  94.4106880  89.1184060  18.1604320
  95.3331220  89.0179030  16.9642320  94.1349570  85.7657410  16.4888290
  93.9957340  86.6380210  16.8575690  93.2530930  85.4230220  16.3436230
 100.4578950  90.6833280   7.7953420 100.8974860  91.4257610   7.3808810
 100.3965840  90.9259850   8.7192380  95.9329920  91.7079110  18.6973440
  95.9045350  92.1122060  17.8301870  95.7694890  90.7789470  18.5345040
  92.4482850  84.3639820   6.5990560  92.3280450  85.0901910   5.9871830
  92.1383740  83.5942730   6.1218470  90.0868220  87.5354960  12.4059200
  90.1648640  87.6703730  11.4614920  90.7009900  86.8270850  12.5987320
  91.3315850  89.2355150   8.8165380  90.9243930  89.3769740   7.9618980
  92.2228860  88.9515310   8.6136590 101.1494730  93.3847060  15.7232430
 101.6639400  93.2955070  16.5254860 100.3063810  93.7306760  16.0160340
  90.1427740  88.5769130  14.9453660  90.3058780  88.1074490  14.1273030
  90.6080190  88.0692690  15.6102500  94.9146510  77.7074890   9.9814230
  94.4714660  78.4884430   9.6498750  95.4731500  78.0304780  10.6885170
  99.2016320  80.5743410  15.5849550  98.7395690  80.7826430  16.3969490
  98.7994430  79.7602760  15.2820220 101.2970540  83.2954110  18.8145000
 101.6223950  82.4617860  18.4747230 102.0850870  83.8182630  18.9623330
  98.0305330  77.3285590   4.8620060  97.4059510  77.3245460   5.5873370
  97.9435450  76.4616550   4.4656030  96.9522410  78.2522220  11.8403830
  97.2494740  79.1585050  11.7595850  97.5007970  77.7641000  11.2263400
  94.7060730  82.8308460   7.7095480  94.4801650  82.6145630   8.6142100
  93.9253260  83.2636920   7.3641450 101.9358490  82.8371830   6.3086130
 101.3367380  83.5607630   6.1249750 102.4838100  82.7748610   5.5262580
  97.1459940  83.7294040  18.3755750  97.0503540  82.7888770  18.2256150
  97.9891920  83.9509110  17.9803820 100.5423360  81.4735370   8.3389410
 100.9352930  81.7907570   7.5258100 100.9040210  80.5947250   8.4533930
  92.2770480  80.1407710  16.5289530  91.8833870  80.9882920  16.7362310
  91.5888880  79.5034080  16.7198170  98.8515530  80.2242680  19.5986270
  98.1613850  80.0314880  20.2332360  99.5947830  80.5077320  20.1310570
  89.5787530  78.0636170  10.5619610  89.2900580  78.6339030  11.2744590
  90.3233290  77.5840620  10.9250840 101.1278500  84.0641120  12.4340190
 100.3959620  84.5727930  12.7830290 100.7302840  83.2471100  12.1328970
  97.5655890  80.7395320  10.8392680  97.5691950  80.2985270   9.9897220
  98.4607010  81.0612650  10.9464500  93.4158270  80.6221810   9.7986890
  93.0758320  81.0997040  10.5553940  92.6535590  80.1686930   9.4387990
  97.6276040  81.7407400   3.8299440  97.7488860  81.6993880   4.7785260
  97.2424550  82.6031550   3.6746170 101.5904410  79.5174800  11.8463130
 101.6077150  79.9683450  12.6904980 101.3419990  78.6180440  12.0596570
  96.6397540  84.0508540   3.2282740  96.0714440  83.6026790   2.6018650
  97.3486540  84.4101320   2.6947890  91.7166720  87.9520560  17.1049470
  91.3321510  87.3114230  17.7032430  92.0278910  88.6556680  17.6744200
  97.8663860  84.7997100  12.5858090  98.2333990  84.3255670  13.3319430
  97.6768920  85.6738670  12.9266430  90.7304350  79.5440790   8.7151560
  90.4451270  79.1796460   9.5530180  90.6683210  78.8121250   8.1014700
  95.6563230  83.8405740  14.9042300  95.3520300  84.7197720  15.1292660
  96.6109690  83.9005530  14.9399740  94.1845020  88.0466730   5.5009150
  93.4107280  87.5064350   5.3407870  94.9139650  87.5273340   5.1626910
 100.4042940  78.4370050   5.4364930  99.5907550  77.9383220   5.3610240
 100.2104890  79.2768300   5.0201280 100.3251800  87.1141150  17.1804540
 100.2589110  86.1936820  16.9262130  99.6956940  87.2116590  17.8949180
  94.2282420  87.7147110   9.1387960  94.7461090  86.9115370   9.0844850
  93.7766440  87.6526250   9.9804790  99.1151920  88.9813390   4.4115260
  99.4567620  89.7255620   3.9158580  98.2864630  89.2944510   4.7740090
  91.7126960  84.6808480  16.0513660  91.3541900  85.3462330  16.6387000
  91.4181520  83.8492030  16.4226280  94.9140080  85.1392720  18.9353210
  94.6140220  85.2849900  18.0381030  95.6851320  84.5798010  18.8426600
 100.2568530  89.9361720  16.9308340 100.2713070  89.0042680  16.7127250
  99.5493630  90.0221480  17.5698110 101.9979330  88.3029230   9.7760770
 102.3503150  87.7057360   9.1162140 101.1141660  87.9773460   9.9469020
  98.0842610  89.0626920   7.1831180  98.7713740  89.6096130   7.5638770
  97.2975030  89.6067650   7.2180790  90.2235010  84.6799740   2.6748260
  91.0929860  84.9624540   2.9584180  89.7325330  85.4935610   2.5597070
  97.3869820  86.0672950   6.7956540  97.8432600  86.8778200   7.0216730
  97.0358030  85.7496090   7.6275030  99.6902430  91.5779290  14.0248840
 100.3344650  91.7838670  14.7022260 100.0531870  90.8167690  13.5719690
  93.2881600  76.4110600   7.2679060  93.1596230  76.4028500   8.2163980
  92.4643620  76.7493690   6.9170070 100.9634510  89.5811640  12.7426290
 101.6056740  88.8804800  12.8558460 101.4883860  90.3610080  12.5623180
  90.2875530  78.1701720  16.7285760  89.5734050  78.3698640  17.3338370
  90.7070570  77.3941290  17.1000560  90.5748120  92.1581980  17.7152290
  90.6839240  91.2176720  17.5747680  89.9228680  92.4236730  17.0666020
  98.5660710  90.4297870  19.1150410  98.2457580  89.7107110  19.6596100
  97.8919070  91.1052940  19.1886470  96.6074880  91.2758320   4.0583560
  96.5984980  92.0088010   3.4428070  95.6873240  91.0289900   4.1510520
  92.2081520  86.4973210   4.8030320  91.6009470  87.2372110   4.8125620
  92.6830870  86.5872570   3.9768520 101.7814310  80.6624030  14.4787210
 102.1495130  79.8419240  14.8066780 100.9212510  80.7225920  14.8942860
  99.5934480  91.3386560   2.7208750  99.6946460  91.1350550   1.7910730
  98.6936220  91.0844840   2.9256530  97.1160370  81.8966920   6.7032650
  96.4076520  82.3653260   7.1446260  97.4004850  81.2388930   7.3377840
  98.7416300  83.3163620  14.7025180  99.2401550  83.7909440  15.3677030
  98.8839250  82.3927140  14.9095210 101.1475800  78.6217580   8.1428440
 101.0243580  78.6403710   7.1937950 102.0960360  78.6696520   8.2626840
  95.3195390  80.2052000   4.0783360  96.1685920  80.6422150   4.0123550
  94.9526660  80.5172260   4.9055420  94.2186810  86.4584360   2.5518890
  94.9850080  86.3465720   3.1144320  94.2961500  85.7622330   1.8995660
  92.9133570  83.8909430   3.2351780  92.9937160  82.9436940   3.3469180
  93.8053320  84.2216310   3.3412440  90.5993760  90.1078390   6.2127830
  89.6733540  90.3499530   6.2033240  91.0650190  90.9352650   6.0912580
  92.7206560  93.2250890  19.5271900  93.5219290  93.5462940  19.9407300
  92.2058380  92.8646470  20.2491810 101.5571190  89.3330760  19.4747310
 100.9509350  89.3562360  18.7343060 101.2525300  88.6013800  20.0114560
  90.4404370  85.7124350  18.4707950  90.9443390  85.1331630  19.0424180
  89.7011790  85.9964580  19.0084320  97.4942310  87.1195340  18.0043470
  96.7287980  87.6880340  17.9198140  97.6758270  86.8271550  17.1111700
 100.5830720  87.4958570   2.6296230 100.0340820  87.9427870   3.2738970
 101.2049980  86.9907820   3.1533900  92.4727450  83.8553940  19.3658020
  92.5132790  83.5567810  20.2743250  93.3272950  84.2561550  19.2065540
  96.2505840  86.4549490   4.5261530  96.6722260  86.2889360   5.3692920
  96.3756680  85.6449720   4.0316670  94.4133260  82.4346040  17.3332510
  93.8829720  81.9436990  16.7055850  95.0821330  82.8630240  16.7990440
  94.9005560  79.4008410  17.4129800  94.8062430  78.7829160  16.6880670
  94.3202950  80.1274700  17.1859710  97.6667000  77.9581650  14.4457190
  97.2184300  77.9805910  13.6002740  97.0332200  77.5600670  15.0427490
  98.0726550  86.8535980  15.0669630  98.4914660  87.6968710  14.8945870
  97.1535180  86.9908020  14.8376410 100.4090450  84.5852160  16.4507470
 100.5286660  83.9893300  17.1902310 101.2684450  84.6221850  16.0308770
  97.1759220  81.1273510  17.7083290  97.7658910  80.8189360  18.3961110
  96.3579460  80.6553260  17.8643190  97.1632470  78.5717960   2.4453770
  96.8154470  77.8941950   1.8656220  97.3645240  78.1107470   3.2597160
  92.9677670  88.9325760   2.2927370  93.4052540  89.4755430   2.9484950
  93.4525400  88.1072710   2.3023710  90.1823470  91.7214790   9.7447630
  90.5126480  90.8535850   9.5126270  90.6114470  91.9273310  10.5752590
  94.7785390  90.0523800   7.4049600  94.4780930  89.9288770   8.3053510
  94.6722880  89.1932390   6.9965330  90.6713680  92.5885380  12.4829260
  90.2344670  92.7686180  13.3153410  91.2391360  93.3460000  12.3410980
  90.5038110  85.1005610   8.8418140  89.8486950  84.8317250   8.1977840
  91.3416060  84.9910090   8.3920120  91.5414040  85.4858180  13.3821480
  91.9087080  85.3985580  14.2617500  90.9724860  84.7224730  13.2828340
  91.0930040  82.3967270  17.2879900  90.1986090  82.3634030  17.6273610
  91.6327590  82.5954060  18.0531150  89.7176190  82.3104540   4.7843470
  88.8140270  82.5734740   4.6095130  90.2016810  82.5815710   4.0043430
  92.2603400  81.3670080   2.6937850  92.9695100  80.9453300   2.2085130
  91.5443340  81.4345310   2.0621200  91.5969750  76.6715600  11.6363120
  92.2445940  76.1212980  11.1958280  92.0171590  76.9258750  12.4578930
  91.3501750  76.8271270  14.3788440  91.0016570  77.2835090  15.1446620
  91.0189450  75.9328400  14.4610870  92.9566120  89.9990870  18.5441630
  92.9135750  89.6283780  19.4256090  93.0877130  90.9368440  18.6843450
  96.6572150  91.5550460  14.1451350  96.4163510  91.8225020  13.2581870
  97.5974790  91.7256190  14.2002210  98.8626570  78.0183150  17.9007860
  98.8015460  78.6104980  18.6503270  99.8026950  77.9109110  17.7558120
 101.5001130  77.6753210  17.5400150 102.1141540  77.9932500  16.8781230
 102.0450690  77.1901800  18.1596010  92.0222390  76.3547470  17.6539210
  92.5705380  76.1735520  16.8905320  92.0877700  75.5641580  18.1895520
  92.7954150  92.9453120  15.6639410  92.2014470  92.8137820  16.4029450
  92.7877990  92.1091260  15.1981510 102.2409170  76.2385350  13.8669440
 101.3669010  76.5720460  13.6642370 102.1319920  75.7658530  14.6921310
  92.4266380  90.3111500  14.6147450  91.7000440  89.6916790  14.5473400
  92.4875530  90.7052110  13.7445530  96.0311480  92.5256500  11.3996860
  96.5476500  91.9143860  10.8745120  96.6808860  93.0285280  11.8907870
  98.7706980  93.4164990  12.2265840  99.0584790  93.1619290  11.3498850
  99.2830200  92.8642350  12.8171410  99.9883990  77.1555190  12.8062350
  99.2055780  77.6300690  13.0859110  99.6946920  76.2510020  12.6975530
  91.3324400  77.4602670   5.3276070  92.0903760  77.5731550   4.7540100
  90.8701570  78.2971870   5.2819500  97.8738210  79.5741940   8.3178380
  97.0612720  79.1998830   7.9774260  98.3779850  78.8187020   8.6199570
  92.3159080  92.3219120   5.2694350  91.7906700  92.7027150   4.5656310
  92.2403660  92.9469890   5.9904060  93.7049550  77.9866720   3.8678040
  94.2342310  77.1996520   3.7385990  94.3377870  78.6657910   4.1013570
  95.8987390  77.7241860   6.9223430  95.2690130  77.0229170   7.0893560
  95.3592530  78.4845990   6.7056590  96.0242950  77.0025840  19.3575920
  95.7427220  77.5059440  18.5936740  96.4062650  76.2047590  18.9918050
  94.0766840  90.3866230   4.1489930  93.4475720  90.8551330   4.6975760
  94.1914670  89.5415450   4.5836120 101.5316560  65.6628400  65.3965090
 101.4510610  64.7483010  65.1256800 101.1180980  66.1595470  64.6904800
  99.6634600  67.4407420  67.2774360  98.8876700  66.9607860  67.5672930
 100.3147530  66.7613070  67.1030520  93.6800430  67.7527230  68.1550120
  92.8485310  67.4975940  68.5546630  94.2881410  67.8238000  68.8908040
  93.6601690  71.7867320  68.3508140  93.9629730  70.8965060  68.1718360
  94.4045280  72.3437540  68.1230390  92.0892380  62.7129120  61.9392510
  91.2009080  63.0545090  61.8372390  92.3733570  62.5129440  61.0473340
  90.0525390  65.3134770  67.8232210  90.6241500  64.5456970  67.8235850
  90.0526930  65.6123530  66.9138820  99.9105340  74.1325620  65.6777480
  99.2916780  74.5883120  65.1071920 100.7657120  74.2877080  65.2767180
  99.1043590  70.1164610  67.2844520  99.0351870  69.1754550  67.1233650
  99.8663450  70.2066020  67.8567090  91.2950260  60.7219130  69.6101140
  91.1153100  59.8244880  69.8903900  90.8930340  61.2691000  70.2848090
 100.1348760  62.9234990  67.5113450 100.5113580  62.0506870  67.3987120
 100.0368270  63.2593690  66.6203890  94.2653770  61.2960620  62.9730890
  94.3720520  62.1964350  63.2799650  93.3546130  61.2478590  62.6825540
  91.9136930  63.2179630  68.2183480  92.5947040  63.4818000  68.8370880
  91.5984980  62.3780500  68.5521490  96.1061500  64.2646990  67.3056070
  96.6139720  64.7627960  67.9461090  96.6374740  63.4882190  67.1295430
  94.3897600  58.9045550  71.5719490  94.3916040  59.4217940  70.7665390
  93.5601910  58.4275730  71.5489420 100.7768690  69.0164860  63.0709390
 100.1585960  69.4814310  62.5072110 101.2891940  69.7092340  63.4878900
  95.6400450  68.5440730  69.7492990  95.3069830  69.1709650  70.3914060
  95.8167130  69.0702610  68.9694660  94.0712930  60.6155510  69.5789940
  94.4129740  61.4597560  69.2843810  93.1328740  60.7639250  69.6955280
  94.8519550  70.5121530  71.5642170  95.4693550  71.1872610  71.2826620
  93.9912670  70.9209510  71.4729670  90.1451890  69.7021390  60.4449020
  89.7679870  70.1908490  59.7133920  90.4024960  70.3746670  61.0755550
  97.7540820  58.1037780  65.9034530  98.0615800  57.5484670  65.1870030
  96.8241520  58.2382240  65.7207520 100.1421580  66.1686610  62.6394650
  99.2150860  66.1023990  62.8683120 100.2946400  67.1066740  62.5249890
 100.1290660  62.4403610  59.6361810  99.1894330  62.6017570  59.7214270
 100.4473920  63.1589290  59.0897800  95.7478220  66.6951350  65.4214380
  95.3435220  65.9828600  64.9260280  95.8341340  66.3504590  66.3102420
  96.2159920  70.3818910  67.5853590  95.9188210  69.7764380  66.9061370
  97.1659740  70.4196220  67.4742950  94.4606840  63.4694560  69.2013420
  95.0121430  63.5789900  68.4266670  94.9750350  63.8432160  69.9168650
  95.3078350  70.1200600  74.2361390  94.4106880  70.3440570  74.4834790
  95.3331220  70.2435540  73.2872790  94.1349570  66.9913920  72.8118760
  93.9957340  67.8636720  73.1806160  93.2530930  66.6486730  72.6666700
 100.4578950  71.9089790  64.1183890 100.8974860  72.6514120  63.7039280
 100.3965840  72.1516360  65.0422850  95.9329920  72.9335620  75.0203910
  95.9045350  73.3378570  74.1532340  95.7694890  72.0045980  74.8575510
  92.4482850  65.5896330  62.9221030  92.3280450  66.3158420  62.3102300
  92.1383740  64.8199240  62.4448940  90.0868220  68.7611470  68.7289670
  90.1648640  68.8960240  67.7845390  90.7009900  68.0527360  68.9217790
  91.3315850  70.4611660  65.1395850  90.9243930  70.6026250  64.2849450
  92.2228860  70.1771820  64.9367060 101.1494730  74.6103570  72.0462900
 101.6639400  74.5211580  72.8485330 100.3063810  74.9563270  72.3390810
  95.6037510  74.6757440  63.2518520  95.4279990  73.7592980  63.0386320
  94.7493250  75.0344730  63.4916320  90.1427740  69.8025640  71.2684130
  90.3058780  69.3331000  70.4503500  90.6080190  69.2949200  71.9332970
  94.9146510  58.9331400  66.3044700  94.4714660  59.7140940  65.9729220
  95.4731500  59.2561290  67.0115640  99.2016320  61.7999920  71.9080020
  98.7395690  62.0082940  72.7199960  98.7994430  60.9859270  71.6050690
 101.2970540  64.5210620  75.1375470 101.6223950  63.6874370  74.7977700
 102.0850870  65.0439140  75.2853800  98.0305330  58.5542100  61.1850530
  97.4059510  58.5501970  61.9103840  97.9435450  57.6873060  60.7886500
  96.9522410  59.4778730  68.1634300  97.2494740  60.3841560  68.0826320
  97.5007970  58.9897510  67.5493870  94.7060730  64.0564970  64.0325950
  94.4801650  63.8402140  64.9372570  93.9253260  64.4893430  63.6871920
 101.9358490  64.0628340  62.6316600 101.3367380  64.7864140  62.4480220
 102.4838100  64.0005120  61.8493050  97.1459940  64.9550550  74.6986220
  97.0503540  64.0145280  74.5486620  97.9891920  65.1765620  74.3034290
 100.5423360  62.6991880  64.6619880 100.9352930  63.0164080  63.8488570
 100.9040210  61.8203760  64.7764400  92.2770480  61.3664220  72.8520000
  91.8833870  62.2139430  73.0592780  91.5888880  60.7290590  73.0428640
  89.5787530  59.2892680  66.8850080  89.2900580  59.8595540  67.5975060
  90.3233290  58.8097130  67.2481310  89.7657760  63.2312800  58.0952800
  89.6832430  64.1743560  58.2367790  89.4140820  63.0887710  57.2165150
 101.1278500  65.2897630  68.7570660 100.3959620  65.7984440  69.1060760
 100.7302840  64.4727610  68.4559440  97.5655890  61.9651830  67.1623150
  97.5691950  61.5241780  66.3127690  98.4607010  62.2869160  67.2694970
  93.4158270  61.8478320  66.1217360  93.0758320  62.3253550  66.8784410
  92.6535590  61.3943440  65.7618460  97.6276040  62.9663910  60.1529910
  97.7488860  62.9250390  61.1015730  97.2424550  63.8288060  59.9976640
 101.5904410  60.7431310  68.1693600 101.6077150  61.1939960  69.0135450
 101.3419990  59.8436950  68.3827040  96.6397540  65.2765050  59.5513210
  96.0714440  64.8283300  58.9249120  97.3486540  65.6357830  59.0178360
  91.7166720  69.1777070  73.4279940  91.3321510  68.5370740  74.0262900
  92.0278910  69.8813190  73.9974670  97.8663860  66.0253610  68.9088560
  98.2333990  65.5512180  69.6549900  97.6768920  66.8995180  69.2496900
  90.7304350  60.7697300  65.0382030  90.4451270  60.4052970  65.8760650
  90.6683210  60.0377760  64.4245170  95.6563230  65.0662250  71.2272770
  95.3520300  65.9454230  71.4523130  96.6109690  65.1262040  71.2630210
  94.1845020  69.2723240  61.8239620  93.4107280  68.7320860  61.6638340
  94.9139650  68.7529850  61.4857380 100.4042940  59.6626560  61.7595400
  99.5907550  59.1639730  61.6840710 100.2104890  60.5024810  61.3431750
 100.3251800  68.3397660  73.5035010 100.2589110  67.4193330  73.2492600
  99.6956940  68.4373100  74.2179650  94.2282420  68.9403620  65.4618430
  94.7461090  68.1371880  65.4075320  93.7766440  68.8782760  66.3035260
  99.1151920  70.2069900  60.7345730  99.4567620  70.9512130  60.2389050
  98.2864630  70.5201020  61.0970560  91.7126960  65.9064990  72.3744130
  91.3541900  66.5718840  72.9617470  91.4181520  65.0748540  72.7456750
  94.9140080  66.3649230  75.2583680  94.6140220  66.5106410  74.3611500
  95.6851320  65.8054520  75.1657070 100.2568530  71.1618230  73.2538810
 100.2713070  70.2299190  73.0357720  99.5493630  71.2477990  73.8928580
 101.9979330  69.5285740  66.0991240 102.3503150  68.9313870  65.4392610
 101.1141660  69.2029970  66.2699490  98.0842610  70.2883430  63.5061650
  98.7713740  70.8352640  63.8869240  97.2975030  70.8324160  63.5411260
  90.2235010  65.9056250  58.9978730  91.0929860  66.1881050  59.2814650
  89.7325330  66.7192120  58.8827540  97.3869820  67.2929460  63.1187010
  97.8432600  68.1034710  63.3447200  97.0358030  66.9752600  63.9505500
  99.6902430  72.8035800  70.3479310 100.3344650  73.0095180  71.0252730
 100.0531870  72.0424200  69.8950160  93.2881600  57.6367110  63.5909530
  93.1596230  57.6285010  64.5394450  92.4643620  57.9750200  63.2400540
 100.9634510  70.8068150  69.0656760 101.6056740  70.1061310  69.1788930
 101.4883860  71.5866590  68.8853650  90.5906260  75.1183630  59.5640360
  90.9503900  75.7172970  58.9097630  90.4498600  75.6643520  60.3375390
  90.2875530  59.3958230  73.0516230  89.5734050  59.5955150  73.6568840
  90.7070570  58.6197800  73.4231030  90.5748120  73.3838490  74.0382760
  90.6839240  72.4433230  73.8978150  89.9228680  73.6493240  73.3896490
  98.5660710  71.6554380  75.4380880  98.2457580  70.9363620  75.9826570
  97.8919070  72.3309450  75.5116940  96.6074880  72.5014830  60.3814030
  96.5984980  73.2344520  59.7658540  95.6873240  72.2546410  60.4740990
  92.2081520  67.7229720  61.1260790  91.6009470  68.4628620  61.1356090
  92.6830870  67.8129080  60.2998990 101.7814310  61.8880540  70.8017680
 102.1495130  61.0675750  71.1297250 100.9212510  61.9482430  71.2173330
  99.5934480  72.5643070  59.0439220  99.6946460  72.3607060  58.1141200
  98.6936220  72.3101350  59.2487000  97.1160370  63.1223430  63.0263120
  96.4076520  63.5909770  63.4676730  97.4004850  62.4645440  63.6608310
  98.7416300  64.5420130  71.0255650  99.2401550  65.0165950  71.6907500
  98.8839250  63.6183650  71.2325680 101.1475800  59.8474090  64.4658910
 101.0243580  59.8660220  63.5168420 102.0960360  59.8953030  64.5857310
  98.2352590  75.0829390  63.7386890  98.4894090  75.0450780  62.8166260
  97.2865070  74.9562720  63.7315140  95.3195390  61.4308510  60.4013830
  96.1685920  61.8678660  60.3354020  94.9526660  61.7428770  61.2285890
  94.2186810  67.6840870  58.8749360  94.9850080  67.5722230  59.4374790
  94.2961500  66.9878840  58.2226130  92.9133570  65.1165940  59.5582250
  92.9937160  64.1693450  59.6699650  93.8053320  65.4472820  59.6642910
  93.7148280  75.2661330  66.6616790  94.4510760  74.7176790  66.9325360
  94.0989200  76.1317340  66.5222780  90.5993760  71.3334900  62.5358300
  89.6733540  71.5756040  62.5263710  91.0650190  72.1609160  62.4143050
  96.8250590  74.4391640  58.4842360  97.6179200  74.7280470  58.0324150
  96.3054940  74.0083810  57.8054840  90.4404370  66.9380860  74.7938420
  90.9443390  66.3588140  75.3654650  89.7011790  67.2221090  75.3314790
  97.3427990  69.6595050  58.3484710  97.2378630  69.0447400  59.0746090
  97.1752210  69.1360940  57.5647720  97.4942310  68.3451850  74.3273940
  96.7287980  68.9136850  74.2428610  97.6758270  68.0528060  73.4342170
 100.5830720  68.7215080  58.9526700 100.0340820  69.1684380  59.5969440
 101.2049980  68.2164330  59.4764370  96.2505840  67.6806000  60.8492000
  96.6722260  67.5145870  61.6923390  96.3756680  66.8706230  60.3547140
  94.4133260  63.6602550  73.6562980  93.8829720  63.1693500  73.0286320
  95.0821330  64.0886750  73.1220910  98.7633480  66.7043610  58.0969100
  99.2839140  65.9892630  57.7310250  99.4101880  67.3429480  58.3969610
  94.9005560  60.6264920  73.7360270  94.8062430  60.0085670  73.0111140
  94.3202950  61.3531210  73.5090180  97.6667000  59.1838160  70.7687660
  97.2184300  59.2062420  69.9233210  97.0332200  58.7857180  71.3657960
  98.0726550  68.0792490  71.3900100  98.4914660  68.9225220  71.2176340
  97.1535180  68.2164530  71.1606880 100.4090450  65.8108670  72.7737940
 100.5286660  65.2149810  73.5132780 101.2684450  65.8478360  72.3539240
  95.1464740  63.7539230  57.7950160  94.9453800  62.8906590  58.1563500
  94.9756790  63.6672590  56.8571760  95.9233970  74.3845500  72.5057830
  95.3855060  75.1091560  72.1866530  96.1767930  73.9075840  71.7155170
  97.1759220  62.3530020  74.0313760  97.7658910  62.0445870  74.7191580
  96.3579460  61.8809770  74.1873660  93.9447540  60.8539850  57.7828040
  94.2473440  60.8607280  56.8747190  94.6842130  60.5037710  58.2795700
  98.7796180  75.6196710  72.7644480  98.7054880  76.5231850  73.0716850
  97.8775020  75.3008610  72.7366550  97.1632470  59.7974470  58.7684240
  96.8154470  59.1198460  58.1886690  97.3645240  59.3363980  59.5827630
  99.3281510  74.7855220  60.3870840 100.2232300  75.1240190  60.4089600
  99.3599140  74.0634630  59.7595120  92.9677670  70.1582270  58.6157840
  93.4052540  70.7011940  59.2715420  93.4525400  69.3329220  58.6254180
  90.1823470  72.9471300  66.0678100  90.5126480  72.0792360  65.8356740
  90.6114470  73.1529820  66.8983060  94.7785390  71.2780310  63.7280070
  94.4780930  71.1545280  64.6283980  94.6722880  70.4188900  63.3195800
  90.6713680  73.8141890  68.8059730  90.2344670  73.9942690  69.6383880
  91.2391360  74.5716510  68.6641450  90.5038110  66.3262120  65.1648610
  89.8486950  66.0573760  64.5208310  91.3416060  66.2166600  64.7150590
  91.5414040  66.7114690  69.7051950  91.9087080  66.6242090  70.5847970
  90.9724860  65.9481240  69.6058810  91.0930040  63.6223780  73.6110370
  90.1986090  63.5890540  73.9504080  91.6327590  63.8210570  74.3761620
  89.7176190  63.5361050  61.1073940  88.8140270  63.7991250  60.9325600
  90.2016810  63.8072220  60.3273900  92.2603400  62.5926590  59.0168320
  92.9695100  62.1709810  58.5315600  91.5443340  62.6601820  58.3851670
  91.9077560  58.6465920  58.0570970  92.6305690  59.1874860  58.3752190
  92.1802080  58.3729340  57.1812510  91.5969750  57.8972110  67.9593590
  92.2445940  57.3469490  67.5188750  92.0171590  58.1515260  68.7809400
  91.3501750  58.0527780  70.7018910  91.0016570  58.5091600  71.4677090
  91.0189450  57.1584910  70.7841340  92.9566120  71.2247380  74.8672100
  92.9135750  70.8540290  75.7486560  93.0877130  72.1624950  75.0073920
  96.6572150  72.7806970  70.4681820  96.4163510  73.0481530  69.5812340
  97.5974790  72.9512700  70.5232680  98.8626570  59.2439660  74.2238330
  98.8015460  59.8361490  74.9733740  99.8026950  59.1365620  74.0788590
 101.5001130  58.9009720  73.8630620 102.1141540  59.2189010  73.2011700
 102.0450690  58.4158310  74.4826480  92.0222390  57.5803980  73.9769680
  92.5705380  57.3992030  73.2135790  92.0877700  56.7898090  74.5125990
  92.7954150  74.1709630  71.9869880  92.2014470  74.0394330  72.7259920
  92.7877990  73.3347770  71.5211980 102.2409170  57.4641860  70.1899910
 101.3669010  57.7976970  69.9872840 102.1319920  56.9915040  71.0151780
  92.4266380  71.5368010  70.9377920  91.7000440  70.9173300  70.8703870
  92.4875530  71.9308620  70.0676000  96.0311480  73.7513010  67.7227330
  96.5476500  73.1400370  67.1975590  96.6808860  74.2541790  68.2138340
  98.7706980  74.6421500  68.5496310  99.0584790  74.3875800  67.6729320
  99.2830200  74.0898860  69.1401880  99.9883990  58.3811700  69.1292820
  99.2055780  58.8557200  69.4089580  99.6946920  57.4766530  69.0206000
  90.7096380  74.8542400  64.1474680  90.5418420  74.2213080  64.8456570
  89.8430890  75.0601800  63.7968870  91.3324400  58.6859180  61.6506540
  92.0903760  58.7988060  61.0770570  90.8701570  59.5228380  61.6049970
  97.8738210  60.7998450  64.6408850  97.0612720  60.4255340  64.3004730
  98.3779850  60.0443530  64.9430040  92.3159080  73.5475630  61.5924820
  91.7906700  73.9283660  60.8886780  92.2403660  74.1726400  62.3134530
  93.7049550  59.2123230  60.1908510  94.2342310  58.4253030  60.0616460
  94.3377870  59.8914420  60.4244040  95.8987390  58.9498370  63.2453900
  95.2690130  58.2485680  63.4124030  95.3592530  59.7102500  63.0287060
  98.8379340  75.5637600  75.9164510  99.7646650  75.3281870  75.9600470
  98.8229770  76.3909600  75.4350540  96.0242950  58.2282350  75.6806390
  95.7427220  58.7315950  74.9167210  96.4062650  57.4304100  75.3148520
  94.9152050  75.4958010  60.4674070  95.6470870  75.2117290  59.9197960
  95.1745720  75.2571290  61.3573450  94.0766840  71.6122740  60.4720400
  93.4475720  72.0807840  61.0206230  94.1914670  70.7671960  60.9066590
 101.5316560  65.6628400  46.6221600 101.4510610  64.7483010  46.3513310
 101.1180980  66.1595470  45.9161310  99.6634600  67.4407420  48.5030870
  98.8876700  66.9607860  48.7929440 100.3147530  66.7613070  48.3287030
  93.6800430  67.7527230  49.3806630  92.8485310  67.4975940  49.7803140
  94.2881410  67.8238000  50.1164550  93.6601690  71.7867320  49.5764650
  93.9629730  70.8965060  49.3974870  94.4045280  72.3437540  49.3486900
  92.0892380  62.7129120  43.1649020  91.2009080  63.0545090  43.0628900
  92.3733570  62.5129440  42.2729850  90.0525390  65.3134770  49.0488720
  90.6241500  64.5456970  49.0492360  90.0526930  65.6123530  48.1395330
  99.9105340  74.1325620  46.9033990  99.2916780  74.5883120  46.3328430
 100.7657120  74.2877080  46.5023690  99.1043590  70.1164610  48.5101030
  99.0351870  69.1754550  48.3490160  99.8663450  70.2066020  49.0823600
  91.2950260  60.7219130  50.8357650  91.1153100  59.8244880  51.1160410
  90.8930340  61.2691000  51.5104600 100.1348760  62.9234990  48.7369960
 100.5113580  62.0506870  48.6243630 100.0368270  63.2593690  47.8460400
  94.2653770  61.2960620  44.1987400  94.3720520  62.1964350  44.5056160
  93.3546130  61.2478590  43.9082050  91.9136930  63.2179630  49.4439990
  92.5947040  63.4818000  50.0627390  91.5984980  62.3780500  49.7778000
  96.1061500  64.2646990  48.5312580  96.6139720  64.7627960  49.1717600
  96.6374740  63.4882190  48.3551940  94.3897600  58.9045550  52.7976000
  94.3916040  59.4217940  51.9921900  93.5601910  58.4275730  52.7745930
 100.7768690  69.0164860  44.2965900 100.1585960  69.4814310  43.7328620
 101.2891940  69.7092340  44.7135410  95.6400450  68.5440730  50.9749500
  95.3069830  69.1709650  51.6170570  95.8167130  69.0702610  50.1951170
  94.0712930  60.6155510  50.8046450  94.4129740  61.4597560  50.5100320
  93.1328740  60.7639250  50.9211790  94.8519550  70.5121530  52.7898680
  95.4693550  71.1872610  52.5083130  93.9912670  70.9209510  52.6986180
  90.1451890  69.7021390  41.6705530  89.7679870  70.1908490  40.9390430
  90.4024960  70.3746670  42.3012060  97.7540820  58.1037780  47.1291040
  98.0615800  57.5484670  46.4126540  96.8241520  58.2382240  46.9464030
 100.1421580  66.1686610  43.8651160  99.2150860  66.1023990  44.0939630
 100.2946400  67.1066740  43.7506400 100.1290660  62.4403610  40.8618320
  99.1894330  62.6017570  40.9470780 100.4473920  63.1589290  40.3154310
  95.7478220  66.6951350  46.6470890  95.3435220  65.9828600  46.1516790
  95.8341340  66.3504590  47.5358930  96.2159920  70.3818910  48.8110100
  95.9188210  69.7764380  48.1317880  97.1659740  70.4196220  48.6999460
  94.4606840  63.4694560  50.4269930  95.0121430  63.5789900  49.6523180
  94.9750350  63.8432160  51.1425160  95.3078350  70.1200600  55.4617900
  94.4106880  70.3440570  55.7091300  95.3331220  70.2435540  54.5129300
  94.1349570  66.9913920  54.0375270  93.9957340  67.8636720  54.4062670
  93.2530930  66.6486730  53.8923210 100.4578950  71.9089790  45.3440400
 100.8974860  72.6514120  44.9295790 100.3965840  72.1516360  46.2679360
  95.9329920  72.9335620  56.2460420  95.9045350  73.3378570  55.3788850
  95.7694890  72.0045980  56.0832020  92.4482850  65.5896330  44.1477540
  92.3280450  66.3158420  43.5358810  92.1383740  64.8199240  43.6705450
  90.0868220  68.7611470  49.9546180  90.1648640  68.8960240  49.0101900
  90.7009900  68.0527360  50.1474300  91.3315850  70.4611660  46.3652360
  90.9243930  70.6026250  45.5105960  92.2228860  70.1771820  46.1623570
 101.1494730  74.6103570  53.2719410 101.6639400  74.5211580  54.0741840
 100.3063810  74.9563270  53.5647320  95.6037510  74.6757440  44.4775030
  95.4279990  73.7592980  44.2642830  94.7493250  75.0344730  44.7172830
  90.1427740  69.8025640  52.4940640  90.3058780  69.3331000  51.6760010
  90.6080190  69.2949200  53.1589480  94.9146510  58.9331400  47.5301210
  94.4714660  59.7140940  47.1985730  95.4731500  59.2561290  48.2372150
  99.2016320  61.7999920  53.1336530  98.7395690  62.0082940  53.9456470
  98.7994430  60.9859270  52.8307200 101.2970540  64.5210620  56.3631980
 101.6223950  63.6874370  56.0234210 102.0850870  65.0439140  56.5110310
  98.0305330  58.5542100  42.4107040  97.4059510  58.5501970  43.1360350
  97.9435450  57.6873060  42.0143010  96.9522410  59.4778730  49.3890810
  97.2494740  60.3841560  49.3082830  97.5007970  58.9897510  48.7750380
  94.7060730  64.0564970  45.2582460  94.4801650  63.8402140  46.1629080
  93.9253260  64.4893430  44.9128430 101.9358490  64.0628340  43.8573110
 101.3367380  64.7864140  43.6736730 102.4838100  64.0005120  43.0749560
  97.1459940  64.9550550  55.9242730  97.0503540  64.0145280  55.7743130
  97.9891920  65.1765620  55.5290800 100.5423360  62.6991880  45.8876390
 100.9352930  63.0164080  45.0745080 100.9040210  61.8203760  46.0020910
  92.2770480  61.3664220  54.0776510  91.8833870  62.2139430  54.2849290
  91.5888880  60.7290590  54.2685150  98.8515530  61.4499190  57.1473250
  98.1613850  61.2571390  57.7819340  99.5947830  61.7333830  57.6797550
  89.5787530  59.2892680  48.1106590  89.2900580  59.8595540  48.8231570
  90.3233290  58.8097130  48.4737820  89.7657760  63.2312800  39.3209310
  89.6832430  64.1743560  39.4624300  89.4140820  63.0887710  38.4421660
 101.1278500  65.2897630  49.9827170 100.3959620  65.7984440  50.3317270
 100.7302840  64.4727610  49.6815950  97.5655890  61.9651830  48.3879660
  97.5691950  61.5241780  47.5384200  98.4607010  62.2869160  48.4951480
  93.4158270  61.8478320  47.3473870  93.0758320  62.3253550  48.1040920
  92.6535590  61.3943440  46.9874970  97.6276040  62.9663910  41.3786420
  97.7488860  62.9250390  42.3272240  97.2424550  63.8288060  41.2233150
 101.5904410  60.7431310  49.3950110 101.6077150  61.1939960  50.2391960
 101.3419990  59.8436950  49.6083550  96.6397540  65.2765050  40.7769720
  96.0714440  64.8283300  40.1505630  97.3486540  65.6357830  40.2434870
  91.7166720  69.1777070  54.6536450  91.3321510  68.5370740  55.2519410
  92.0278910  69.8813190  55.2231180  97.8663860  66.0253610  50.1345070
  98.2333990  65.5512180  50.8806410  97.6768920  66.8995180  50.4753410
  90.7304350  60.7697300  46.2638540  90.4451270  60.4052970  47.1017160
  90.6683210  60.0377760  45.6501680  95.6563230  65.0662250  52.4529280
  95.3520300  65.9454230  52.6779640  96.6109690  65.1262040  52.4886720
  94.1845020  69.2723240  43.0496130  93.4107280  68.7320860  42.8894850
  94.9139650  68.7529850  42.7113890 100.4042940  59.6626560  42.9851910
  99.5907550  59.1639730  42.9097220 100.2104890  60.5024810  42.5688260
 100.3251800  68.3397660  54.7291520 100.2589110  67.4193330  54.4749110
  99.6956940  68.4373100  55.4436160  94.2282420  68.9403620  46.6874940
  94.7461090  68.1371880  46.6331830  93.7766440  68.8782760  47.5291770
  99.1151920  70.2069900  41.9602240  99.4567620  70.9512130  41.4645560
  98.2864630  70.5201020  42.3227070  91.7126960  65.9064990  53.6000640
  91.3541900  66.5718840  54.1873980  91.4181520  65.0748540  53.9713260
  94.9140080  66.3649230  56.4840190  94.6140220  66.5106410  55.5868010
  95.6851320  65.8054520  56.3913580 100.2568530  71.1618230  54.4795320
 100.2713070  70.2299190  54.2614230  99.5493630  71.2477990  55.1185090
 101.9979330  69.5285740  47.3247750 102.3503150  68.9313870  46.6649120
 101.1141660  69.2029970  47.4956000  98.0842610  70.2883430  44.7318160
  98.7713740  70.8352640  45.1125750  97.2975030  70.8324160  44.7667770
  90.2235010  65.9056250  40.2235240  91.0929860  66.1881050  40.5071160
  89.7325330  66.7192120  40.1084050  97.3869820  67.2929460  44.3443520
  97.8432600  68.1034710  44.5703710  97.0358030  66.9752600  45.1762010
  99.6902430  72.8035800  51.5735820 100.3344650  73.0095180  52.2509240
 100.0531870  72.0424200  51.1206670  93.2881600  57.6367110  44.8166040
  93.1596230  57.6285010  45.7650960  92.4643620  57.9750200  44.4657050
 100.9634510  70.8068150  50.2913270 101.6056740  70.1061310  50.4045440
 101.4883860  71.5866590  50.1110160  90.5906260  75.1183630  40.7896870
  90.9503900  75.7172970  40.1354140  90.4498600  75.6643520  41.5631900
  90.2875530  59.3958230  54.2772740  89.5734050  59.5955150  54.8825350
  90.7070570  58.6197800  54.6487540  90.5748120  73.3838490  55.2639270
  90.6839240  72.4433230  55.1234660  89.9228680  73.6493240  54.6153000
  98.5660710  71.6554380  56.6637390  98.2457580  70.9363620  57.2083080
  97.8919070  72.3309450  56.7373450  96.6074880  72.5014830  41.6070540
  96.5984980  73.2344520  40.9915050  95.6873240  72.2546410  41.6997500
  92.2081520  67.7229720  42.3517300  91.6009470  68.4628620  42.3612600
  92.6830870  67.8129080  41.5255500 101.7814310  61.8880540  52.0274190
 102.1495130  61.0675750  52.3553760 100.9212510  61.9482430  52.4429840
  99.5934480  72.5643070  40.2695730  99.6946460  72.3607060  39.3397710
  98.6936220  72.3101350  40.4743510  97.1160370  63.1223430  44.2519630
  96.4076520  63.5909770  44.6933240  97.4004850  62.4645440  44.8864820
  98.7416300  64.5420130  52.2512160  99.2401550  65.0165950  52.9164010
  98.8839250  63.6183650  52.4582190 101.1475800  59.8474090  45.6915420
 101.0243580  59.8660220  44.7424930 102.0960360  59.8953030  45.8113820
  98.2352590  75.0829390  44.9643400  98.4894090  75.0450780  44.0422770
  97.2865070  74.9562720  44.9571650  95.3195390  61.4308510  41.6270340
  96.1685920  61.8678660  41.5610530  94.9526660  61.7428770  42.4542400
  94.2186810  67.6840870  40.1005870  94.9850080  67.5722230  40.6631300
  94.2961500  66.9878840  39.4482640  92.9133570  65.1165940  40.7838760
  92.9937160  64.1693450  40.8956160  93.8053320  65.4472820  40.8899420
  93.7148280  75.2661330  47.8873300  94.4510760  74.7176790  48.1581870
  94.0989200  76.1317340  47.7479290  90.5993760  71.3334900  43.7614810
  89.6733540  71.5756040  43.7520220  91.0650190  72.1609160  43.6399560
  92.7206560  74.4507400  57.0758880  93.5219290  74.7719450  57.4894280
  92.2058380  74.0902980  57.7978790  96.8250590  74.4391640  39.7098870
  97.6179200  74.7280470  39.2580660  96.3054940  74.0083810  39.0311350
 101.5571190  70.5587270  57.0234290 100.9509350  70.5818870  56.2830040
 101.2525300  69.8270310  57.5601540  90.4404370  66.9380860  56.0194930
  90.9443390  66.3588140  56.5911160  89.7011790  67.2221090  56.5571300
  97.3427990  69.6595050  39.5741220  97.2378630  69.0447400  40.3002600
  97.1752210  69.1360940  38.7904230  97.4942310  68.3451850  55.5530450
  96.7287980  68.9136850  55.4685120  97.6758270  68.0528060  54.6598680
 100.5830720  68.7215080  40.1783210 100.0340820  69.1684380  40.8225950
 101.2049980  68.2164330  40.7020880  92.4727450  65.0810450  56.9145000
  92.5132790  64.7824320  57.8230230  93.3272950  65.4818060  56.7552520
  96.2505840  67.6806000  42.0748510  96.6722260  67.5145870  42.9179900
  96.3756680  66.8706230  41.5803650  94.4133260  63.6602550  54.8819490
  93.8829720  63.1693500  54.2542830  95.0821330  64.0886750  54.3477420
  98.7633480  66.7043610  39.3225610  99.2839140  65.9892630  38.9566760
  99.4101880  67.3429480  39.6226120  94.9005560  60.6264920  54.9616780
  94.8062430  60.0085670  54.2367650  94.3202950  61.3531210  54.7346690
  97.6667000  59.1838160  51.9944170  97.2184300  59.2062420  51.1489720
  97.0332200  58.7857180  52.5914470  98.0726550  68.0792490  52.6156610
  98.4914660  68.9225220  52.4432850  97.1535180  68.2164530  52.3863390
 100.4090450  65.8108670  53.9994450 100.5286660  65.2149810  54.7389290
 101.2684450  65.8478360  53.5795750  95.1464740  63.7539230  39.0206670
  94.9453800  62.8906590  39.3820010  94.9756790  63.6672590  38.0828270
  95.9233970  74.3845500  53.7314340  95.3855060  75.1091560  53.4123040
  96.1767930  73.9075840  52.9411680  97.1759220  62.3530020  55.2570270
  97.7658910  62.0445870  55.9448090  96.3579460  61.8809770  55.4130170
  93.9447540  60.8539850  39.0084550  94.2473440  60.8607280  38.1003700
  94.6842130  60.5037710  39.5052210  98.7796180  75.6196710  53.9900990
  98.7054880  76.5231850  54.2973360  97.8775020  75.3008610  53.9623060
  97.1632470  59.7974470  39.9940750  96.8154470  59.1198460  39.4143200
  97.3645240  59.3363980  40.8084140  99.3281510  74.7855220  41.6127350
 100.2232300  75.1240190  41.6346110  99.3599140  74.0634630  40.9851630
  92.9677670  70.1582270  39.8414350  93.4052540  70.7011940  40.4971930
  93.4525400  69.3329220  39.8510690  90.1823470  72.9471300  47.2934610
  90.5126480  72.0792360  47.0613250  90.6114470  73.1529820  48.1239570
  94.7785390  71.2780310  44.9536580  94.4780930  71.1545280  45.8540490
  94.6722880  70.4188900  44.5452310  90.6713680  73.8141890  50.0316240
  90.2344670  73.9942690  50.8640390  91.2391360  74.5716510  49.8897960
  90.5038110  66.3262120  46.3905120  89.8486950  66.0573760  45.7464820
  91.3416060  66.2166600  45.9407100  91.5414040  66.7114690  50.9308460
  91.9087080  66.6242090  51.8104480  90.9724860  65.9481240  50.8315320
  91.0930040  63.6223780  54.8366880  90.1986090  63.5890540  55.1760590
  91.6327590  63.8210570  55.6018130  89.7176190  63.5361050  42.3330450
  88.8140270  63.7991250  42.1582110  90.2016810  63.8072220  41.5530410
  92.2603400  62.5926590  40.2424830  92.9695100  62.1709810  39.7572110
  91.5443340  62.6601820  39.6108180  91.9077560  58.6465920  39.2827480
  92.6305690  59.1874860  39.6008700  92.1802080  58.3729340  38.4069020
  91.5969750  57.8972110  49.1850100  92.2445940  57.3469490  48.7445260
  92.0171590  58.1515260  50.0065910  91.3501750  58.0527780  51.9275420
  91.0016570  58.5091600  52.6933600  91.0189450  57.1584910  52.0097850
  92.9566120  71.2247380  56.0928610  92.9135750  70.8540290  56.9743070
  93.0877130  72.1624950  56.2330430  96.6572150  72.7806970  51.6938330
  96.4163510  73.0481530  50.8068850  97.5974790  72.9512700  51.7489190
  98.8626570  59.2439660  55.4494840  98.8015460  59.8361490  56.1990250
  99.8026950  59.1365620  55.3045100 101.5001130  58.9009720  55.0887130
 102.1141540  59.2189010  54.4268210 102.0450690  58.4158310  55.7082990
  92.0222390  57.5803980  55.2026190  92.5705380  57.3992030  54.4392300
  92.0877700  56.7898090  55.7382500  92.7954150  74.1709630  53.2126390
  92.2014470  74.0394330  53.9516430  92.7877990  73.3347770  52.7468490
 102.2409170  57.4641860  51.4156420 101.3669010  57.7976970  51.2129350
 102.1319920  56.9915040  52.2408290  92.4266380  71.5368010  52.1634430
  91.7000440  70.9173300  52.0960380  92.4875530  71.9308620  51.2932510
  96.0311480  73.7513010  48.9483840  96.5476500  73.1400370  48.4232100
  96.6808860  74.2541790  49.4394850  98.7706980  74.6421500  49.7752820
  99.0584790  74.3875800  48.8985830  99.2830200  74.0898860  50.3658390
  99.9883990  58.3811700  50.3549330  99.2055780  58.8557200  50.6346090
  99.6946920  57.4766530  50.2462510  90.7096380  74.8542400  45.3731190
  90.5418420  74.2213080  46.0713080  89.8430890  75.0601800  45.0225380
  91.3324400  58.6859180  42.8763050  92.0903760  58.7988060  42.3027080
  90.8701570  59.5228380  42.8306480  97.8738210  60.7998450  45.8665360
  97.0612720  60.4255340  45.5261240  98.3779850  60.0443530  46.1686550
  92.3159080  73.5475630  42.8181330  91.7906700  73.9283660  42.1143290
  92.2403660  74.1726400  43.5391040  93.7049550  59.2123230  41.4165020
  94.2342310  58.4253030  41.2872970  94.3377870  59.8914420  41.6500550
  95.8987390  58.9498370  44.4710410  95.2690130  58.2485680  44.6380540
  95.3592530  59.7102500  44.2543570  98.8379340  75.5637600  57.1421020
  99.7646650  75.3281870  57.1856980  98.8229770  76.3909600  56.6607050
  96.0242950  58.2282350  56.9062900  95.7427220  58.7315950  56.1423720
  96.4062650  57.4304100  56.5405030  94.9152050  75.4958010  41.6930580
  95.6470870  75.2117290  41.1454470  95.1745720  75.2571290  42.5829960
  94.0766840  71.6122740  41.6976910  93.4475720  72.0807840  42.2462740
  94.1914670  70.7671960  42.1323100 101.5316560  65.6628400  27.8478110
 101.4510610  64.7483010  27.5769820 101.1180980  66.1595470  27.1417820
  99.6634600  67.4407420  29.7287380  98.8876700  66.9607860  30.0185950
 100.3147530  66.7613070  29.5543540  93.6800430  67.7527230  30.6063140
  92.8485310  67.4975940  31.0059650  94.2881410  67.8238000  31.3421060
  93.6601690  71.7867320  30.8021160  93.9629730  70.8965060  30.6231380
  94.4045280  72.3437540  30.5743410  92.0892380  62.7129120  24.3905530
  91.2009080  63.0545090  24.2885410  92.3733570  62.5129440  23.4986360
  90.0525390  65.3134770  30.2745230  90.6241500  64.5456970  30.2748870
  90.0526930  65.6123530  29.3651840  99.9105340  74.1325620  28.1290500
  99.2916780  74.5883120  27.5584940 100.7657120  74.2877080  27.7280200
  99.1043590  70.1164610  29.7357540  99.0351870  69.1754550  29.5746670
  99.8663450  70.2066020  30.3080110  91.2950260  60.7219130  32.0614160
  91.1153100  59.8244880  32.3416920  90.8930340  61.2691000  32.7361110
 100.1348760  62.9234990  29.9626470 100.5113580  62.0506870  29.8500140
 100.0368270  63.2593690  29.0716910  94.2653770  61.2960620  25.4243910
  94.3720520  62.1964350  25.7312670  93.3546130  61.2478590  25.1338560
  91.9136930  63.2179630  30.6696500  92.5947040  63.4818000  31.2883900
  91.5984980  62.3780500  31.0034510  96.1061500  64.2646990  29.7569090
  96.6139720  64.7627960  30.3974110  96.6374740  63.4882190  29.5808450
  94.3897600  58.9045550  34.0232510  94.3916040  59.4217940  33.2178410
  93.5601910  58.4275730  34.0002440 100.7768690  69.0164860  25.5222410
 100.1585960  69.4814310  24.9585130 101.2891940  69.7092340  25.9391920
  95.6400450  68.5440730  32.2006010  95.3069830  69.1709650  32.8427080
  95.8167130  69.0702610  31.4207680  94.0712930  60.6155510  32.0302960
  94.4129740  61.4597560  31.7356830  93.1328740  60.7639250  32.1468300
  94.8519550  70.5121530  34.0155190  95.4693550  71.1872610  33.7339640
  93.9912670  70.9209510  33.9242690  90.1451890  69.7021390  22.8962040
  89.7679870  70.1908490  22.1646940  90.4024960  70.3746670  23.5268570
  97.7540820  58.1037780  28.3547550  98.0615800  57.5484670  27.6383050
  96.8241520  58.2382240  28.1720540 100.1421580  66.1686610  25.0907670
  99.2150860  66.1023990  25.3196140 100.2946400  67.1066740  24.9762910
 100.1290660  62.4403610  22.0874830  99.1894330  62.6017570  22.1727290
 100.4473920  63.1589290  21.5410820  95.7478220  66.6951350  27.8727400
  95.3435220  65.9828600  27.3773300  95.8341340  66.3504590  28.7615440
  96.2159920  70.3818910  30.0366610  95.9188210  69.7764380  29.3574390
  97.1659740  70.4196220  29.9255970  94.4606840  63.4694560  31.6526440
  95.0121430  63.5789900  30.8779690  94.9750350  63.8432160  32.3681670
  95.3078350  70.1200600  36.6874410  94.4106880  70.3440570  36.9347810
  95.3331220  70.2435540  35.7385810  94.1349570  66.9913920  35.2631780
  93.9957340  67.8636720  35.6319180  93.2530930  66.6486730  35.1179720
 100.4578950  71.9089790  26.5696910 100.8974860  72.6514120  26.1552300
 100.3965840  72.1516360  27.4935870  95.9329920  72.9335620  37.4716930
  95.9045350  73.3378570  36.6045360  95.7694890  72.0045980  37.3088530
  92.4482850  65.5896330  25.3734050  92.3280450  66.3158420  24.7615320
  92.1383740  64.8199240  24.8961960  90.0868220  68.7611470  31.1802690
  90.1648640  68.8960240  30.2358410  90.7009900  68.0527360  31.3730810
  91.3315850  70.4611660  27.5908870  90.9243930  70.6026250  26.7362470
  92.2228860  70.1771820  27.3880080 101.1494730  74.6103570  34.4975920
 101.6639400  74.5211580  35.2998350 100.3063810  74.9563270  34.7903830
  95.6037510  74.6757440  25.7031540  95.4279990  73.7592980  25.4899340
  94.7493250  75.0344730  25.9429340  90.1427740  69.8025640  33.7197150
  90.3058780  69.3331000  32.9016520  90.6080190  69.2949200  34.3845990
  94.9146510  58.9331400  28.7557720  94.4714660  59.7140940  28.4242240
  95.4731500  59.2561290  29.4628660  99.2016320  61.7999920  34.3593040
  98.7395690  62.0082940  35.1712980  98.7994430  60.9859270  34.0563710
 101.2970540  64.5210620  37.5888490 101.6223950  63.6874370  37.2490720
 102.0850870  65.0439140  37.7366820  98.0305330  58.5542100  23.6363550
  97.4059510  58.5501970  24.3616860  97.9435450  57.6873060  23.2399520
  96.9522410  59.4778730  30.6147320  97.2494740  60.3841560  30.5339340
  97.5007970  58.9897510  30.0006890  94.7060730  64.0564970  26.4838970
  94.4801650  63.8402140  27.3885590  93.9253260  64.4893430  26.1384940
 101.9358490  64.0628340  25.0829620 101.3367380  64.7864140  24.8993240
 102.4838100  64.0005120  24.3006070  97.1459940  64.9550550  37.1499240
  97.0503540  64.0145280  36.9999640  97.9891920  65.1765620  36.7547310
 100.5423360  62.6991880  27.1132900 100.9352930  63.0164080  26.3001590
 100.9040210  61.8203760  27.2277420  92.2770480  61.3664220  35.3033020
  91.8833870  62.2139430  35.5105800  91.5888880  60.7290590  35.4941660
  98.8515530  61.4499190  38.3729760  98.1613850  61.2571390  39.0075850
  99.5947830  61.7333830  38.9054060  89.5787530  59.2892680  29.3363100
  89.2900580  59.8595540  30.0488080  90.3233290  58.8097130  29.6994330
  89.7657760  63.2312800  20.5465820  89.6832430  64.1743560  20.6880810
  89.4140820  63.0887710  19.6678170 101.1278500  65.2897630  31.2083680
 100.3959620  65.7984440  31.5573780 100.7302840  64.4727610  30.9072460
  97.5655890  61.9651830  29.6136170  97.5691950  61.5241780  28.7640710
  98.4607010  62.2869160  29.7207990  93.4158270  61.8478320  28.5730380
  93.0758320  62.3253550  29.3297430  92.6535590  61.3943440  28.2131480
  97.6276040  62.9663910  22.6042930  97.7488860  62.9250390  23.5528750
  97.2424550  63.8288060  22.4489660 101.5904410  60.7431310  30.6206620
 101.6077150  61.1939960  31.4648470 101.3419990  59.8436950  30.8340060
  96.6397540  65.2765050  22.0026230  96.0714440  64.8283300  21.3762140
  97.3486540  65.6357830  21.4691380  91.7166720  69.1777070  35.8792960
  91.3321510  68.5370740  36.4775920  92.0278910  69.8813190  36.4487690
  97.8663860  66.0253610  31.3601580  98.2333990  65.5512180  32.1062920
  97.6768920  66.8995180  31.7009920  90.7304350  60.7697300  27.4895050
  90.4451270  60.4052970  28.3273670  90.6683210  60.0377760  26.8758190
  95.6563230  65.0662250  33.6785790  95.3520300  65.9454230  33.9036150
  96.6109690  65.1262040  33.7143230  94.1845020  69.2723240  24.2752640
  93.4107280  68.7320860  24.1151360  94.9139650  68.7529850  23.9370400
 100.4042940  59.6626560  24.2108420  99.5907550  59.1639730  24.1353730
 100.2104890  60.5024810  23.7944770 100.3251800  68.3397660  35.9548030
 100.2589110  67.4193330  35.7005620  99.6956940  68.4373100  36.6692670
  94.2282420  68.9403620  27.9131450  94.7461090  68.1371880  27.8588340
  93.7766440  68.8782760  28.7548280  99.1151920  70.2069900  23.1858750
  99.4567620  70.9512130  22.6902070  98.2864630  70.5201020  23.5483580
  91.7126960  65.9064990  34.8257150  91.3541900  66.5718840  35.4130490
  91.4181520  65.0748540  35.1969770  94.9140080  66.3649230  37.7096700
  94.6140220  66.5106410  36.8124520  95.6851320  65.8054520  37.6170090
 100.2568530  71.1618230  35.7051830 100.2713070  70.2299190  35.4870740
  99.5493630  71.2477990  36.3441600 101.9979330  69.5285740  28.5504260
 102.3503150  68.9313870  27.8905630 101.1141660  69.2029970  28.7212510
  98.0842610  70.2883430  25.9574670  98.7713740  70.8352640  26.3382260
  97.2975030  70.8324160  25.9924280  90.2235010  65.9056250  21.4491750
  91.0929860  66.1881050  21.7327670  89.7325330  66.7192120  21.3340560
  97.3869820  67.2929460  25.5700030  97.8432600  68.1034710  25.7960220
  97.0358030  66.9752600  26.4018520  99.6902430  72.8035800  32.7992330
 100.3344650  73.0095180  33.4765750 100.0531870  72.0424200  32.3463180
  93.2881600  57.6367110  26.0422550  93.1596230  57.6285010  26.9907470
  92.4643620  57.9750200  25.6913560 100.9634510  70.8068150  31.5169780
 101.6056740  70.1061310  31.6301950 101.4883860  71.5866590  31.3366670
  90.5906260  75.1183630  22.0153380  90.9503900  75.7172970  21.3610650
  90.4498600  75.6643520  22.7888410  90.2875530  59.3958230  35.5029250
  89.5734050  59.5955150  36.1081860  90.7070570  58.6197800  35.8744050
  90.5748120  73.3838490  36.4895780  90.6839240  72.4433230  36.3491170
  89.9228680  73.6493240  35.8409510  98.5660710  71.6554380  37.8893900
  98.2457580  70.9363620  38.4339590  97.8919070  72.3309450  37.9629960
  96.6074880  72.5014830  22.8327050  96.5984980  73.2344520  22.2171560
  95.6873240  72.2546410  22.9254010  92.2081520  67.7229720  23.5773810
  91.6009470  68.4628620  23.5869110  92.6830870  67.8129080  22.7512010
 101.7814310  61.8880540  33.2530700 102.1495130  61.0675750  33.5810270
 100.9212510  61.9482430  33.6686350  99.5934480  72.5643070  21.4952240
  99.6946460  72.3607060  20.5654220  98.6936220  72.3101350  21.7000020
  97.1160370  63.1223430  25.4776140  96.4076520  63.5909770  25.9189750
  97.4004850  62.4645440  26.1121330  98.7416300  64.5420130  33.4768670
  99.2401550  65.0165950  34.1420520  98.8839250  63.6183650  33.6838700
 101.1475800  59.8474090  26.9171930 101.0243580  59.8660220  25.9681440
 102.0960360  59.8953030  27.0370330  98.2352590  75.0829390  26.1899910
  98.4894090  75.0450780  25.2679280  97.2865070  74.9562720  26.1828160
  95.3195390  61.4308510  22.8526850  96.1685920  61.8678660  22.7867040
  94.9526660  61.7428770  23.6798910  94.2186810  67.6840870  21.3262380
  94.9850080  67.5722230  21.8887810  94.2961500  66.9878840  20.6739150
  92.9133570  65.1165940  22.0095270  92.9937160  64.1693450  22.1212670
  93.8053320  65.4472820  22.1155930  93.7148280  75.2661330  29.1129810
  94.4510760  74.7176790  29.3838380  94.0989200  76.1317340  28.9735800
  90.5993760  71.3334900  24.9871320  89.6733540  71.5756040  24.9776730
  91.0650190  72.1609160  24.8656070  92.7206560  74.4507400  38.3015390
  93.5219290  74.7719450  38.7150790  92.2058380  74.0902980  39.0235300
  96.8250590  74.4391640  20.9355380  97.6179200  74.7280470  20.4837170
  96.3054940  74.0083810  20.2567860 101.5571190  70.5587270  38.2490800
 100.9509350  70.5818870  37.5086550 101.2525300  69.8270310  38.7858050
  90.4404370  66.9380860  37.2451440  90.9443390  66.3588140  37.8167670
  89.7011790  67.2221090  37.7827810  97.3427990  69.6595050  20.7997730
  97.2378630  69.0447400  21.5259110  97.1752210  69.1360940  20.0160740
  97.4942310  68.3451850  36.7786960  96.7287980  68.9136850  36.6941630
  97.6758270  68.0528060  35.8855190 100.5830720  68.7215080  21.4039720
 100.0340820  69.1684380  22.0482460 101.2049980  68.2164330  21.9277390
  92.4727450  65.0810450  38.1401510  92.5132790  64.7824320  39.0486740
  93.3272950  65.4818060  37.9809030  96.2505840  67.6806000  23.3005020
  96.6722260  67.5145870  24.1436410  96.3756680  66.8706230  22.8060160
  94.4133260  63.6602550  36.1076000  93.8829720  63.1693500  35.4799340
  95.0821330  64.0886750  35.5733930  98.7633480  66.7043610  20.5482120
  99.2839140  65.9892630  20.1823270  99.4101880  67.3429480  20.8482630
  94.9005560  60.6264920  36.1873290  94.8062430  60.0085670  35.4624160
  94.3202950  61.3531210  35.9603200  97.6667000  59.1838160  33.2200680
  97.2184300  59.2062420  32.3746230  97.0332200  58.7857180  33.8170980
  98.0726550  68.0792490  33.8413120  98.4914660  68.9225220  33.6689360
  97.1535180  68.2164530  33.6119900 100.4090450  65.8108670  35.2250960
 100.5286660  65.2149810  35.9645800 101.2684450  65.8478360  34.8052260
  95.1464740  63.7539230  20.2463180  94.9453800  62.8906590  20.6076520
  94.9756790  63.6672590  19.3084780  95.9233970  74.3845500  34.9570850
  95.3855060  75.1091560  34.6379550  96.1767930  73.9075840  34.1668190
  97.1759220  62.3530020  36.4826780  97.7658910  62.0445870  37.1704600
  96.3579460  61.8809770  36.6386680  93.9447540  60.8539850  20.2341060
  94.2473440  60.8607280  19.3260210  94.6842130  60.5037710  20.7308720
  98.7796180  75.6196710  35.2157500  98.7054880  76.5231850  35.5229870
  97.8775020  75.3008610  35.1879570  97.1632470  59.7974470  21.2197260
  96.8154470  59.1198460  20.6399710  97.3645240  59.3363980  22.0340650
  99.3281510  74.7855220  22.8383860 100.2232300  75.1240190  22.8602620
  99.3599140  74.0634630  22.2108140  92.9677670  70.1582270  21.0670860
  93.4052540  70.7011940  21.7228440  93.4525400  69.3329220  21.0767200
  90.1823470  72.9471300  28.5191120  90.5126480  72.0792360  28.2869760
  90.6114470  73.1529820  29.3496080  94.7785390  71.2780310  26.1793090
  94.4780930  71.1545280  27.0797000  94.6722880  70.4188900  25.7708820
  90.6713680  73.8141890  31.2572750  90.2344670  73.9942690  32.0896900
  91.2391360  74.5716510  31.1154470  90.5038110  66.3262120  27.6161630
  89.8486950  66.0573760  26.9721330  91.3416060  66.2166600  27.1663610
  91.5414040  66.7114690  32.1564970  91.9087080  66.6242090  33.0360990
  90.9724860  65.9481240  32.0571830  91.0930040  63.6223780  36.0623390
  90.1986090  63.5890540  36.4017100  91.6327590  63.8210570  36.8274640
  89.7176190  63.5361050  23.5586960  88.8140270  63.7991250  23.3838620
  90.2016810  63.8072220  22.7786920  92.2603400  62.5926590  21.4681340
  92.9695100  62.1709810  20.9828620  91.5443340  62.6601820  20.8364690
  91.9077560  58.6465920  20.5083990  92.6305690  59.1874860  20.8265210
  92.1802080  58.3729340  19.6325530  91.5969750  57.8972110  30.4106610
  92.2445940  57.3469490  29.9701770  92.0171590  58.1515260  31.2322420
  91.3501750  58.0527780  33.1531930  91.0016570  58.5091600  33.9190110
  91.0189450  57.1584910  33.2354360  92.9566120  71.2247380  37.3185120
  92.9135750  70.8540290  38.1999580  93.0877130  72.1624950  37.4586940
  96.6572150  72.7806970  32.9194840  96.4163510  73.0481530  32.0325360
  97.5974790  72.9512700  32.9745700  98.8626570  59.2439660  36.6751350
  98.8015460  59.8361490  37.4246760  99.8026950  59.1365620  36.5301610
 101.5001130  58.9009720  36.3143640 102.1141540  59.2189010  35.6524720
 102.0450690  58.4158310  36.9339500  92.0222390  57.5803980  36.4282700
  92.5705380  57.3992030  35.6648810  92.0877700  56.7898090  36.9639010
  92.7954150  74.1709630  34.4382900  92.2014470  74.0394330  35.1772940
  92.7877990  73.3347770  33.9725000 102.2409170  57.4641860  32.6412930
 101.3669010  57.7976970  32.4385860 102.1319920  56.9915040  33.4664800
  92.4266380  71.5368010  33.3890940  91.7000440  70.9173300  33.3216890
  92.4875530  71.9308620  32.5189020  96.0311480  73.7513010  30.1740350
  96.5476500  73.1400370  29.6488610  96.6808860  74.2541790  30.6651360
  98.7706980  74.6421500  31.0009330  99.0584790  74.3875800  30.1242340
  99.2830200  74.0898860  31.5914900  99.9883990  58.3811700  31.5805840
  99.2055780  58.8557200  31.8602600  99.6946920  57.4766530  31.4719020
  90.7096380  74.8542400  26.5987700  90.5418420  74.2213080  27.2969590
  89.8430890  75.0601800  26.2481890  91.3324400  58.6859180  24.1019560
  92.0903760  58.7988060  23.5283590  90.8701570  59.5228380  24.0562990
  97.8738210  60.7998450  27.0921870  97.0612720  60.4255340  26.7517750
  98.3779850  60.0443530  27.3943060  92.3159080  73.5475630  24.0437840
  91.7906700  73.9283660  23.3399800  92.2403660  74.1726400  24.7647550
  93.7049550  59.2123230  22.6421530  94.2342310  58.4253030  22.5129480
  94.3377870  59.8914420  22.8757060  95.8987390  58.9498370  25.6966920
  95.2690130  58.2485680  25.8637050  95.3592530  59.7102500  25.4800080
  98.8379340  75.5637600  38.3677530  99.7646650  75.3281870  38.4113490
  98.8229770  76.3909600  37.8863560  96.0242950  58.2282350  38.1319410
  95.7427220  58.7315950  37.3680230  96.4062650  57.4304100  37.7661540
  94.9152050  75.4958010  22.9187090  95.6470870  75.2117290  22.3710980
  95.1745720  75.2571290  23.8086470  94.0766840  71.6122740  22.9233420
  93.4475720  72.0807840  23.4719250  94.1914670  70.7671960  23.3579610
 101.5316560  65.6628400   9.0734620 101.4510610  64.7483010   8.8026330
 101.1180980  66.1595470   8.3674330  99.6634600  67.4407420  10.9543890
  98.8876700  66.9607860  11.2442460 100.3147530  66.7613070  10.7800050
  93.6800430  67.7527230  11.8319650  92.8485310  67.4975940  12.2316160
  94.2881410  67.8238000  12.5677570  93.6601690  71.7867320  12.0277670
  93.9629730  70.8965060  11.8487890  94.4045280  72.3437540  11.7999920
  92.0892380  62.7129120   5.6162040  91.2009080  63.0545090   5.5141920
  92.3733570  62.5129440   4.7242870  90.0525390  65.3134770  11.5001740
  90.6241500  64.5456970  11.5005380  90.0526930  65.6123530  10.5908350
  99.9105340  74.1325620   9.3547010  99.2916780  74.5883120   8.7841450
 100.7657120  74.2877080   8.9536710  99.1043590  70.1164610  10.9614050
  99.0351870  69.1754550  10.8003180  99.8663450  70.2066020  11.5336620
  91.2950260  60.7219130  13.2870670  91.1153100  59.8244880  13.5673430
  90.8930340  61.2691000  13.9617620 100.1348760  62.9234990  11.1882980
 100.5113580  62.0506870  11.0756650 100.0368270  63.2593690  10.2973420
  94.2653770  61.2960620   6.6500420  94.3720520  62.1964350   6.9569180
  93.3546130  61.2478590   6.3595070  91.9136930  63.2179630  11.8953010
  92.5947040  63.4818000  12.5140410  91.5984980  62.3780500  12.2291020
  96.1061500  64.2646990  10.9825600  96.6139720  64.7627960  11.6230620
  96.6374740  63.4882190  10.8064960  94.3897600  58.9045550  15.2489020
  94.3916040  59.4217940  14.4434920  93.5601910  58.4275730  15.2258950
 100.7768690  69.0164860   6.7478920 100.1585960  69.4814310   6.1841640
 101.2891940  69.7092340   7.1648430  95.6400450  68.5440730  13.4262520
  95.3069830  69.1709650  14.0683590  95.8167130  69.0702610  12.6464190
  94.0712930  60.6155510  13.2559470  94.4129740  61.4597560  12.9613340
  93.1328740  60.7639250  13.3724810  94.8519550  70.5121530  15.2411700
  95.4693550  71.1872610  14.9596150  93.9912670  70.9209510  15.1499200
  90.1451890  69.7021390   4.1218550  89.7679870  70.1908490   3.3903450
  90.4024960  70.3746670   4.7525080  97.7540820  58.1037780   9.5804060
  98.0615800  57.5484670   8.8639560  96.8241520  58.2382240   9.3977050
 100.1421580  66.1686610   6.3164180  99.2150860  66.1023990   6.5452650
 100.2946400  67.1066740   6.2019420 100.1290660  62.4403610   3.3131340
  99.1894330  62.6017570   3.3983800 100.4473920  63.1589290   2.7667330
  95.7478220  66.6951350   9.0983910  95.3435220  65.9828600   8.6029810
  95.8341340  66.3504590   9.9871950  96.2159920  70.3818910  11.2623120
  95.9188210  69.7764380  10.5830900  97.1659740  70.4196220  11.1512480
  94.4606840  63.4694560  12.8782950  95.0121430  63.5789900  12.1036200
  94.9750350  63.8432160  13.5938180  95.3078350  70.1200600  17.9130920
  94.4106880  70.3440570  18.1604320  95.3331220  70.2435540  16.9642320
  94.1349570  66.9913920  16.4888290  93.9957340  67.8636720  16.8575690
  93.2530930  66.6486730  16.3436230 100.4578950  71.9089790   7.7953420
 100.8974860  72.6514120   7.3808810 100.3965840  72.1516360   8.7192380
  95.9329920  72.9335620  18.6973440  95.9045350  73.3378570  17.8301870
  95.7694890  72.0045980  18.5345040  92.4482850  65.5896330   6.5990560
  92.3280450  66.3158420   5.9871830  92.1383740  64.8199240   6.1218470
  90.0868220  68.7611470  12.4059200  90.1648640  68.8960240  11.4614920
  90.7009900  68.0527360  12.5987320  91.3315850  70.4611660   8.8165380
  90.9243930  70.6026250   7.9618980  92.2228860  70.1771820   8.6136590
 101.1494730  74.6103570  15.7232430 101.6639400  74.5211580  16.5254860
 100.3063810  74.9563270  16.0160340  95.6037510  74.6757440   6.9288050
  95.4279990  73.7592980   6.7155850  94.7493250  75.0344730   7.1685850
  90.1427740  69.8025640  14.9453660  90.3058780  69.3331000  14.1273030
  90.6080190  69.2949200  15.6102500  94.9146510  58.9331400   9.9814230
  94.4714660  59.7140940   9.6498750  95.4731500  59.2561290  10.6885170
  99.2016320  61.7999920  15.5849550  98.7395690  62.0082940  16.3969490
  98.7994430  60.9859270  15.2820220 101.2970540  64.5210620  18.8145000
 101.6223950  63.6874370  18.4747230 102.0850870  65.0439140  18.9623330
  98.0305330  58.5542100   4.8620060  97.4059510  58.5501970   5.5873370
  97.9435450  57.6873060   4.4656030  96.9522410  59.4778730  11.8403830
  97.2494740  60.3841560  11.7595850  97.5007970  58.9897510  11.2263400
  94.7060730  64.0564970   7.7095480  94.4801650  63.8402140   8.6142100
  93.9253260  64.4893430   7.3641450 101.9358490  64.0628340   6.3086130
 101.3367380  64.7864140   6.1249750 102.4838100  64.0005120   5.5262580
  97.1459940  64.9550550  18.3755750  97.0503540  64.0145280  18.2256150
  97.9891920  65.1765620  17.9803820 100.5423360  62.6991880   8.3389410
 100.9352930  63.0164080   7.5258100 100.9040210  61.8203760   8.4533930
  92.2770480  61.3664220  16.5289530  91.8833870  62.2139430  16.7362310
  91.5888880  60.7290590  16.7198170  98.8515530  61.4499190  19.5986270
  98.1613850  61.2571390  20.2332360  99.5947830  61.7333830  20.1310570
  89.5787530  59.2892680  10.5619610  89.2900580  59.8595540  11.2744590
  90.3233290  58.8097130  10.9250840 101.1278500  65.2897630  12.4340190
 100.3959620  65.7984440  12.7830290 100.7302840  64.4727610  12.1328970
  97.5655890  61.9651830  10.8392680  97.5691950  61.5241780   9.9897220
  98.4607010  62.2869160  10.9464500  93.4158270  61.8478320   9.7986890
  93.0758320  62.3253550  10.5553940  92.6535590  61.3943440   9.4387990
  97.6276040  62.9663910   3.8299440  97.7488860  62.9250390   4.7785260
  97.2424550  63.8288060   3.6746170 101.5904410  60.7431310  11.8463130
 101.6077150  61.1939960  12.6904980 101.3419990  59.8436950  12.0596570
  96.6397540  65.2765050   3.2282740  96.0714440  64.8283300   2.6018650
  97.3486540  65.6357830   2.6947890  91.7166720  69.1777070  17.1049470
  91.3321510  68.5370740  17.7032430  92.0278910  69.8813190  17.6744200
  97.8663860  66.0253610  12.5858090  98.2333990  65.5512180  13.3319430
  97.6768920  66.8995180  12.9266430  90.7304350  60.7697300   8.7151560
  90.4451270  60.4052970   9.5530180  90.6683210  60.0377760   8.1014700
  95.6563230  65.0662250  14.9042300  95.3520300  65.9454230  15.1292660
  96.6109690  65.1262040  14.9399740  94.1845020  69.2723240   5.5009150
  93.4107280  68.7320860   5.3407870  94.9139650  68.7529850   5.1626910
 100.4042940  59.6626560   5.4364930  99.5907550  59.1639730   5.3610240
 100.2104890  60.5024810   5.0201280 100.3251800  68.3397660  17.1804540
 100.2589110  67.4193330  16.9262130  99.6956940  68.4373100  17.8949180
  94.2282420  68.9403620   9.1387960  94.7461090  68.1371880   9.0844850
  93.7766440  68.8782760   9.9804790  99.1151920  70.2069900   4.4115260
  99.4567620  70.9512130   3.9158580  98.2864630  70.5201020   4.7740090
  91.7126960  65.9064990  16.0513660  91.3541900  66.5718840  16.6387000
  91.4181520  65.0748540  16.4226280  94.9140080  66.3649230  18.9353210
  94.6140220  66.5106410  18.0381030  95.6851320  65.8054520  18.8426600
 100.2568530  71.1618230  16.9308340 100.2713070  70.2299190  16.7127250
  99.5493630  71.2477990  17.5698110 101.9979330  69.5285740   9.7760770
 102.3503150  68.9313870   9.1162140 101.1141660  69.2029970   9.9469020
  98.0842610  70.2883430   7.1831180  98.7713740  70.8352640   7.5638770
  97.2975030  70.8324160   7.2180790  90.2235010  65.9056250   2.6748260
  91.0929860  66.1881050   2.9584180  89.7325330  66.7192120   2.5597070
  97.3869820  67.2929460   6.7956540  97.8432600  68.1034710   7.0216730
  97.0358030  66.9752600   7.6275030  99.6902430  72.8035800  14.0248840
 100.3344650  73.0095180  14.7022260 100.0531870  72.0424200  13.5719690
  93.2881600  57.6367110   7.2679060  93.1596230  57.6285010   8.2163980
  92.4643620  57.9750200   6.9170070 100.9634510  70.8068150  12.7426290
 101.6056740  70.1061310  12.8558460 101.4883860  71.5866590  12.5623180
  90.5906260  75.1183630   3.2409890  90.9503900  75.7172970   2.5867160
  90.4498600  75.6643520   4.0144920  90.2875530  59.3958230  16.7285760
  89.5734050  59.5955150  17.3338370  90.7070570  58.6197800  17.1000560
  90.5748120  73.3838490  17.7152290  90.6839240  72.4433230  17.5747680
  89.9228680  73.6493240  17.0666020  98.5660710  71.6554380  19.1150410
  98.2457580  70.9363620  19.6596100  97.8919070  72.3309450  19.1886470
  96.6074880  72.5014830   4.0583560  96.5984980  73.2344520   3.4428070
  95.6873240  72.2546410   4.1510520  92.2081520  67.7229720   4.8030320
  91.6009470  68.4628620   4.8125620  92.6830870  67.8129080   3.9768520
 101.7814310  61.8880540  14.4787210 102.1495130  61.0675750  14.8066780
 100.9212510  61.9482430  14.8942860  99.5934480  72.5643070   2.7208750
  99.6946460  72.3607060   1.7910730  98.6936220  72.3101350   2.9256530
  97.1160370  63.1223430   6.7032650  96.4076520  63.5909770   7.1446260
  97.4004850  62.4645440   7.3377840  98.7416300  64.5420130  14.7025180
  99.2401550  65.0165950  15.3677030  98.8839250  63.6183650  14.9095210
 101.1475800  59.8474090   8.1428440 101.0243580  59.8660220   7.1937950
 102.0960360  59.8953030   8.2626840  98.2352590  75.0829390   7.4156420
  98.4894090  75.0450780   6.4935790  97.2865070  74.9562720   7.4084670
  95.3195390  61.4308510   4.0783360  96.1685920  61.8678660   4.0123550
  94.9526660  61.7428770   4.9055420  94.2186810  67.6840870   2.5518890
  94.9850080  67.5722230   3.1144320  94.2961500  66.9878840   1.8995660
  92.9133570  65.1165940   3.2351780  92.9937160  64.1693450   3.3469180
  93.8053320  65.4472820   3.3412440  93.7148280  75.2661330  10.3386320
  94.4510760  74.7176790  10.6094890  94.0989200  76.1317340  10.1992310
  90.5993760  71.3334900   6.2127830  89.6733540  71.5756040   6.2033240
  91.0650190  72.1609160   6.0912580  92.7206560  74.4507400  19.5271900
  93.5219290  74.7719450  19.9407300  92.2058380  74.0902980  20.2491810
 101.5571190  70.5587270  19.4747310 100.9509350  70.5818870  18.7343060
 101.2525300  69.8270310  20.0114560  90.4404370  66.9380860  18.4707950
  90.9443390  66.3588140  19.0424180  89.7011790  67.2221090  19.0084320
  97.4942310  68.3451850  18.0043470  96.7287980  68.9136850  17.9198140
  97.6758270  68.0528060  17.1111700 100.5830720  68.7215080   2.6296230
 100.0340820  69.1684380   3.2738970 101.2049980  68.2164330   3.1533900
  92.4727450  65.0810450  19.3658020  92.5132790  64.7824320  20.2743250
  93.3272950  65.4818060  19.2065540  96.2505840  67.6806000   4.5261530
  96.6722260  67.5145870   5.3692920  96.3756680  66.8706230   4.0316670
  94.4133260  63.6602550  17.3332510  93.8829720  63.1693500  16.7055850
  95.0821330  64.0886750  16.7990440  94.9005560  60.6264920  17.4129800
  94.8062430  60.0085670  16.6880670  94.3202950  61.3531210  17.1859710
  97.6667000  59.1838160  14.4457190  97.2184300  59.2062420  13.6002740
  97.0332200  58.7857180  15.0427490  98.0726550  68.0792490  15.0669630
  98.4914660  68.9225220  14.8945870  97.1535180  68.2164530  14.8376410
 100.4090450  65.8108670  16.4507470 100.5286660  65.2149810  17.1902310
 101.2684450  65.8478360  16.0308770  95.9233970  74.3845500  16.1827360
  95.3855060  75.1091560  15.8636060  96.1767930  73.9075840  15.3924700
  97.1759220  62.3530020  17.7083290  97.7658910  62.0445870  18.3961110
  96.3579460  61.8809770  17.8643190  98.7796180  75.6196710  16.4414010
  98.7054880  76.5231850  16.7486380  97.8775020  75.3008610  16.4136080
  97.1632470  59.7974470   2.4453770  96.8154470  59.1198460   1.8656220
  97.3645240  59.3363980   3.2597160  99.3281510  74.7855220   4.0640370
 100.2232300  75.1240190   4.0859130  99.3599140  74.0634630   3.4364650
  92.9677670  70.1582270   2.2927370  93.4052540  70.7011940   2.9484950
  93.4525400  69.3329220   2.3023710  90.1823470  72.9471300   9.7447630
  90.5126480  72.0792360   9.5126270  90.6114470  73.1529820  10.5752590
  94.7785390  71.2780310   7.4049600  94.4780930  71.1545280   8.3053510
  94.6722880  70.4188900   6.9965330  90.6713680  73.8141890  12.4829260
  90.2344670  73.9942690  13.3153410  91.2391360  74.5716510  12.3410980
  90.5038110  66.3262120   8.8418140  89.8486950  66.0573760   8.1977840
  91.3416060  66.2166600   8.3920120  91.5414040  66.7114690  13.3821480
  91.9087080  66.6242090  14.2617500  90.9724860  65.9481240  13.2828340
  91.0930040  63.6223780  17.2879900  90.1986090  63.5890540  17.6273610
  91.6327590  63.8210570  18.0531150  89.7176190  63.5361050   4.7843470
  88.8140270  63.7991250   4.6095130  90.2016810  63.8072220   4.0043430
  92.2603400  62.5926590   2.6937850  92.9695100  62.1709810   2.2085130
  91.5443340  62.6601820   2.0621200  91.5969750  57.8972110  11.6363120
  92.2445940  57.3469490  11.1958280  92.0171590  58.1515260  12.4578930
  91.3501750  58.0527780  14.3788440  91.0016570  58.5091600  15.1446620
  91.0189450  57.1584910  14.4610870  92.9566120  71.2247380  18.5441630
  92.9135750  70.8540290  19.4256090  93.0877130  72.1624950  18.6843450
  96.6572150  72.7806970  14.1451350  96.4163510  73.0481530  13.2581870
  97.5974790  72.9512700  14.2002210  98.8626570  59.2439660  17.9007860
  98.8015460  59.8361490  18.6503270  99.8026950  59.1365620  17.7558120
 101.5001130  58.9009720  17.5400150 102.1141540  59.2189010  16.8781230
 102.0450690  58.4158310  18.1596010  92.0222390  57.5803980  17.6539210
  92.5705380  57.3992030  16.8905320  92.0877700  56.7898090  18.1895520
  92.7954150  74.1709630  15.6639410  92.2014470  74.0394330  16.4029450
  92.7877990  73.3347770  15.1981510 102.2409170  57.4641860  13.8669440
 101.3669010  57.7976970  13.6642370 102.1319920  56.9915040  14.6921310
  92.4266380  71.5368010  14.6147450  91.7000440  70.9173300  14.5473400
  92.4875530  71.9308620  13.7445530  96.0311480  73.7513010  11.3996860
  96.5476500  73.1400370  10.8745120  96.6808860  74.2541790  11.8907870
  98.7706980  74.6421500  12.2265840  99.0584790  74.3875800  11.3498850
  99.2830200  74.0898860  12.8171410  99.9883990  58.3811700  12.8062350
  99.2055780  58.8557200  13.0859110  99.6946920  57.4766530  12.6975530
  90.7096380  74.8542400   7.8244210  90.5418420  74.2213080   8.5226100
  89.8430890  75.0601800   7.4738400  91.3324400  58.6859180   5.3276070
  92.0903760  58.7988060   4.7540100  90.8701570  59.5228380   5.2819500
  97.8738210  60.7998450   8.3178380  97.0612720  60.4255340   7.9774260
  98.3779850  60.0443530   8.6199570  92.3159080  73.5475630   5.2694350
  91.7906700  73.9283660   4.5656310  92.2403660  74.1726400   5.9904060
  93.7049550  59.2123230   3.8678040  94.2342310  58.4253030   3.7385990
  94.3377870  59.8914420   4.1013570  95.8987390  58.9498370   6.9223430
  95.2690130  58.2485680   7.0893560  95.3592530  59.7102500   6.7056590
  98.8379340  75.5637600  19.5934040  99.7646650  75.3281870  19.6370000
  98.8229770  76.3909600  19.1120070  96.0242950  58.2282350  19.3575920
  95.7427220  58.7315950  18.5936740  96.4062650  57.4304100  18.9918050
  94.9152050  75.4958010   4.1443600  95.6470870  75.2117290   3.5967490
  95.1745720  75.2571290   5.0342980  94.0766840  71.6122740   4.1489930
  93.4475720  72.0807840   4.6975760  94.1914670  70.7671960   4.5836120
 101.5316560  46.8884910  65.3965090 101.4510610  45.9739520  65.1256800
 101.1180980  47.3851980  64.6904800  99.6634600  48.6663930  67.2774360
  98.8876700  48.1864370  67.5672930 100.3147530  47.9869580  67.1030520
  93.6800430  48.9783740  68.1550120  92.8485310  48.7232450  68.5546630
  94.2881410  49.0494510  68.8908040  93.6601690  53.0123830  68.3508140
  93.9629730  52.1221570  68.1718360  94.4045280  53.5694050  68.1230390
  92.0892380  43.9385630  61.9392510  91.2009080  44.2801600  61.8372390
  92.3733570  43.7385950  61.0473340  90.0525390  46.5391280  67.8232210
  90.6241500  45.7713480  67.8235850  90.0526930  46.8380040  66.9138820
  99.9105340  55.3582130  65.6777480  99.2916780  55.8139630  65.1071920
 100.7657120  55.5133590  65.2767180  99.1043590  51.3421120  67.2844520
  99.0351870  50.4011060  67.1233650  99.8663450  51.4322530  67.8567090
  91.2950260  41.9475640  69.6101140  91.1153100  41.0501390  69.8903900
  90.8930340  42.4947510  70.2848090 100.1348760  44.1491500  67.5113450
 100.5113580  43.2763380  67.3987120 100.0368270  44.4850200  66.6203890
  94.2653770  42.5217130  62.9730890  94.3720520  43.4220860  63.2799650
  93.3546130  42.4735100  62.6825540  91.9136930  44.4436140  68.2183480
  92.5947040  44.7074510  68.8370880  91.5984980  43.6037010  68.5521490
  96.1061500  45.4903500  67.3056070  96.6139720  45.9884470  67.9461090
  96.6374740  44.7138700  67.1295430  94.3897600  40.1302060  71.5719490
  94.3916040  40.6474450  70.7665390  93.5601910  39.6532240  71.5489420
 100.7768690  50.2421370  63.0709390 100.1585960  50.7070820  62.5072110
 101.2891940  50.9348850  63.4878900  95.6400450  49.7697240  69.7492990
  95.3069830  50.3966160  70.3914060  95.8167130  50.2959120  68.9694660
  94.0712930  41.8412020  69.5789940  94.4129740  42.6854070  69.2843810
  93.1328740  41.9895760  69.6955280  94.8519550  51.7378040  71.5642170
  95.4693550  52.4129120  71.2826620  93.9912670  52.1466020  71.4729670
  90.1451890  50.9277900  60.4449020  89.7679870  51.4165000  59.7133920
  90.4024960  51.6003180  61.0755550  97.7540820  39.3294290  65.9034530
  98.0615800  38.7741180  65.1870030  96.8241520  39.4638750  65.7207520
 100.1421580  47.3943120  62.6394650  99.2150860  47.3280500  62.8683120
 100.2946400  48.3323250  62.5249890 100.1290660  43.6660120  59.6361810
  99.1894330  43.8274080  59.7214270 100.4473920  44.3845800  59.0897800
  95.7478220  47.9207860  65.4214380  95.3435220  47.2085110  64.9260280
  95.8341340  47.5761100  66.3102420  96.2159920  51.6075420  67.5853590
  95.9188210  51.0020890  66.9061370  97.1659740  51.6452730  67.4742950
  94.4606840  44.6951070  69.2013420  95.0121430  44.8046410  68.4266670
  94.9750350  45.0688670  69.9168650  95.3078350  51.3457110  74.2361390
  94.4106880  51.5697080  74.4834790  95.3331220  51.4692050  73.2872790
  94.1349570  48.2170430  72.8118760  93.9957340  49.0893230  73.1806160
  93.2530930  47.8743240  72.6666700 100.4578950  53.1346300  64.1183890
 100.8974860  53.8770630  63.7039280 100.3965840  53.3772870  65.0422850
  95.9329920  54.1592130  75.0203910  95.9045350  54.5635080  74.1532340
  95.7694890  53.2302490  74.8575510  92.4482850  46.8152840  62.9221030
  92.3280450  47.5414930  62.3102300  92.1383740  46.0455750  62.4448940
  90.0868220  49.9867980  68.7289670  90.1648640  50.1216750  67.7845390
  90.7009900  49.2783870  68.9217790  91.3315850  51.6868170  65.1395850
  90.9243930  51.8282760  64.2849450  92.2228860  51.4028330  64.9367060
 101.1494730  55.8360080  72.0462900 101.6639400  55.7468090  72.8485330
 100.3063810  56.1819780  72.3390810  95.6037510  55.9013950  63.2518520
  95.4279990  54.9849490  63.0386320  94.7493250  56.2601240  63.4916320
  90.1427740  51.0282150  71.2684130  90.3058780  50.5587510  70.4503500
  90.6080190  50.5205710  71.9332970  94.9146510  40.1587910  66.3044700
  94.4714660  40.9397450  65.9729220  95.4731500  40.4817800  67.0115640
  99.2016320  43.0256430  71.9080020  98.7395690  43.2339450  72.7199960
  98.7994430  42.2115780  71.6050690 101.2970540  45.7467130  75.1375470
 101.6223950  44.9130880  74.7977700 102.0850870  46.2695650  75.2853800
  98.0305330  39.7798610  61.1850530  97.4059510  39.7758480  61.9103840
  97.9435450  38.9129570  60.7886500  96.9522410  40.7035240  68.1634300
  97.2494740  41.6098070  68.0826320  97.5007970  40.2154020  67.5493870
  94.7060730  45.2821480  64.0325950  94.4801650  45.0658650  64.9372570
  93.9253260  45.7149940  63.6871920 101.9358490  45.2884850  62.6316600
 101.3367380  46.0120650  62.4480220 102.4838100  45.2261630  61.8493050
  97.1459940  46.1807060  74.6986220  97.0503540  45.2401790  74.5486620
  97.9891920  46.4022130  74.3034290 100.5423360  43.9248390  64.6619880
 100.9352930  44.2420590  63.8488570 100.9040210  43.0460270  64.7764400
  92.2770480  42.5920730  72.8520000  91.8833870  43.4395940  73.0592780
  91.5888880  41.9547100  73.0428640  89.5787530  40.5149190  66.8850080
  89.2900580  41.0852050  67.5975060  90.3233290  40.0353640  67.2481310
  89.7657760  44.4569310  58.0952800  89.6832430  45.4000070  58.2367790
  89.4140820  44.3144220  57.2165150 101.1278500  46.5154140  68.7570660
 100.3959620  47.0240950  69.1060760 100.7302840  45.6984120  68.4559440
  97.5655890  43.1908340  67.1623150  97.5691950  42.7498290  66.3127690
  98.4607010  43.5125670  67.2694970  93.4158270  43.0734830  66.1217360
  93.0758320  43.5510060  66.8784410  92.6535590  42.6199950  65.7618460
  97.6276040  44.1920420  60.1529910  97.7488860  44.1506900  61.1015730
  97.2424550  45.0544570  59.9976640 101.5904410  41.9687820  68.1693600
 101.6077150  42.4196470  69.0135450 101.3419990  41.0693460  68.3827040
  96.6397540  46.5021560  59.5513210  96.0714440  46.0539810  58.9249120
  97.3486540  46.8614340  59.0178360  91.7166720  50.4033580  73.4279940
  91.3321510  49.7627250  74.0262900  92.0278910  51.1069700  73.9974670
  97.8663860  47.2510120  68.9088560  98.2333990  46.7768690  69.6549900
  97.6768920  48.1251690  69.2496900  90.7304350  41.9953810  65.0382030
  90.4451270  41.6309480  65.8760650  90.6683210  41.2634270  64.4245170
  95.6563230  46.2918760  71.2272770  95.3520300  47.1710740  71.4523130
  96.6109690  46.3518550  71.2630210  94.1845020  50.4979750  61.8239620
  93.4107280  49.9577370  61.6638340  94.9139650  49.9786360  61.4857380
 100.4042940  40.8883070  61.7595400  99.5907550  40.3896240  61.6840710
 100.2104890  41.7281320  61.3431750 100.3251800  49.5654170  73.5035010
 100.2589110  48.6449840  73.2492600  99.6956940  49.6629610  74.2179650
  94.2282420  50.1660130  65.4618430  94.7461090  49.3628390  65.4075320
  93.7766440  50.1039270  66.3035260  99.1151920  51.4326410  60.7345730
  99.4567620  52.1768640  60.2389050  98.2864630  51.7457530  61.0970560
  91.7126960  47.1321500  72.3744130  91.3541900  47.7975350  72.9617470
  91.4181520  46.3005050  72.7456750  94.9140080  47.5905740  75.2583680
  94.6140220  47.7362920  74.3611500  95.6851320  47.0311030  75.1657070
 100.2568530  52.3874740  73.2538810 100.2713070  51.4555700  73.0357720
  99.5493630  52.4734500  73.8928580 101.9979330  50.7542250  66.0991240
 102.3503150  50.1570380  65.4392610 101.1141660  50.4286480  66.2699490
  98.0842610  51.5139940  63.5061650  98.7713740  52.0609150  63.8869240
  97.2975030  52.0580670  63.5411260  90.2235010  47.1312760  58.9978730
  91.0929860  47.4137560  59.2814650  89.7325330  47.9448630  58.8827540
  97.3869820  48.5185970  63.1187010  97.8432600  49.3291220  63.3447200
  97.0358030  48.2009110  63.9505500  99.6902430  54.0292310  70.3479310
 100.3344650  54.2351690  71.0252730 100.0531870  53.2680710  69.8950160
  93.2881600  38.8623620  63.5909530  93.1596230  38.8541520  64.5394450
  92.4643620  39.2006710  63.2400540 100.9634510  52.0324660  69.0656760
 101.6056740  51.3317820  69.1788930 101.4883860  52.8123100  68.8853650
  90.5906260  56.3440140  59.5640360  90.9503900  56.9429480  58.9097630
  90.4498600  56.8900030  60.3375390  90.2875530  40.6214740  73.0516230
  89.5734050  40.8211660  73.6568840  90.7070570  39.8454310  73.4231030
  90.5748120  54.6095000  74.0382760  90.6839240  53.6689740  73.8978150
  89.9228680  54.8749750  73.3896490  98.5660710  52.8810890  75.4380880
  98.2457580  52.1620130  75.9826570  97.8919070  53.5565960  75.5116940
  96.6074880  53.7271340  60.3814030  96.5984980  54.4601030  59.7658540
  95.6873240  53.4802920  60.4740990  92.2081520  48.9486230  61.1260790
  91.6009470  49.6885130  61.1356090  92.6830870  49.0385590  60.2998990
 101.7814310  43.1137050  70.8017680 102.1495130  42.2932260  71.1297250
 100.9212510  43.1738940  71.2173330  99.5934480  53.7899580  59.0439220
  99.6946460  53.5863570  58.1141200  98.6936220  53.5357860  59.2487000
  97.1160370  44.3479940  63.0263120  96.4076520  44.8166280  63.4676730
  97.4004850  43.6901950  63.6608310  98.7416300  45.7676640  71.0255650
  99.2401550  46.2422460  71.6907500  98.8839250  44.8440160  71.2325680
 101.1475800  41.0730600  64.4658910 101.0243580  41.0916730  63.5168420
 102.0960360  41.1209540  64.5857310  98.2352590  56.3085900  63.7386890
  98.4894090  56.2707290  62.8166260  97.2865070  56.1819230  63.7315140
  95.3195390  42.6565020  60.4013830  96.1685920  43.0935170  60.3354020
  94.9526660  42.9685280  61.2285890  94.2186810  48.9097380  58.8749360
  94.9850080  48.7978740  59.4374790  94.2961500  48.2135350  58.2226130
  92.9133570  46.3422450  59.5582250  92.9937160  45.3949960  59.6699650
  93.8053320  46.6729330  59.6642910  93.7148280  56.4917840  66.6616790
  94.4510760  55.9433300  66.9325360  94.0989200  57.3573850  66.5222780
  90.5993760  52.5591410  62.5358300  89.6733540  52.8012550  62.5263710
  91.0650190  53.3865670  62.4143050  96.8250590  55.6648150  58.4842360
  97.6179200  55.9536980  58.0324150  96.3054940  55.2340320  57.8054840
  90.4404370  48.1637370  74.7938420  90.9443390  47.5844650  75.3654650
  89.7011790  48.4477600  75.3314790  97.3427990  50.8851560  58.3484710
  97.2378630  50.2703910  59.0746090  97.1752210  50.3617450  57.5647720
  97.4942310  49.5708360  74.3273940  96.7287980  50.1393360  74.2428610
  97.6758270  49.2784570  73.4342170 100.5830720  49.9471590  58.9526700
 100.0340820  50.3940890  59.5969440 101.2049980  49.4420840  59.4764370
  96.2505840  48.9062510  60.8492000  96.6722260  48.7402380  61.6923390
  96.3756680  48.0962740  60.3547140  94.4133260  44.8859060  73.6562980
  93.8829720  44.3950010  73.0286320  95.0821330  45.3143260  73.1220910
  98.7633480  47.9300120  58.0969100  99.2839140  47.2149140  57.7310250
  99.4101880  48.5685990  58.3969610  94.9005560  41.8521430  73.7360270
  94.8062430  41.2342180  73.0111140  94.3202950  42.5787720  73.5090180
  97.6667000  40.4094670  70.7687660  97.2184300  40.4318930  69.9233210
  97.0332200  40.0113690  71.3657960  98.0726550  49.3049000  71.3900100
  98.4914660  50.1481730  71.2176340  97.1535180  49.4421040  71.1606880
 100.4090450  47.0365180  72.7737940 100.5286660  46.4406320  73.5132780
 101.2684450  47.0734870  72.3539240  95.1464740  44.9795740  57.7950160
  94.9453800  44.1163100  58.1563500  94.9756790  44.8929100  56.8571760
  95.9233970  55.6102010  72.5057830  95.3855060  56.3348070  72.1866530
  96.1767930  55.1332350  71.7155170  97.1759220  43.5786530  74.0313760
  97.7658910  43.2702380  74.7191580  96.3579460  43.1066280  74.1873660
  93.9447540  42.0796360  57.7828040  94.2473440  42.0863790  56.8747190
  94.6842130  41.7294220  58.2795700  98.7796180  56.8453220  72.7644480
  98.7054880  57.7488360  73.0716850  97.8775020  56.5265120  72.7366550
  97.1632470  41.0230980  58.7684240  96.8154470  40.3454970  58.1886690
  97.3645240  40.5620490  59.5827630  99.3281510  56.0111730  60.3870840
 100.2232300  56.3496700  60.4089600  99.3599140  55.2891140  59.7595120
  92.9677670  51.3838780  58.6157840  93.4052540  51.9268450  59.2715420
  93.4525400  50.5585730  58.6254180  90.1823470  54.1727810  66.0678100
  90.5126480  53.3048870  65.8356740  90.6114470  54.3786330  66.8983060
  94.7785390  52.5036820  63.7280070  94.4780930  52.3801790  64.6283980
  94.6722880  51.6445410  63.3195800  90.6713680  55.0398400  68.8059730
  90.2344670  55.2199200  69.6383880  91.2391360  55.7973020  68.6641450
  90.5038110  47.5518630  65.1648610  89.8486950  47.2830270  64.5208310
  91.3416060  47.4423110  64.7150590  91.5414040  47.9371200  69.7051950
  91.9087080  47.8498600  70.5847970  90.9724860  47.1737750  69.6058810
  91.0930040  44.8480290  73.6110370  90.1986090  44.8147050  73.9504080
  91.6327590  45.0467080  74.3761620  89.7176190  44.7617560  61.1073940
  88.8140270  45.0247760  60.9325600  90.2016810  45.0328730  60.3273900
  92.2603400  43.8183100  59.0168320  92.9695100  43.3966320  58.5315600
  91.5443340  43.8858330  58.3851670  91.9077560  39.8722430  58.0570970
  92.6305690  40.4131370  58.3752190  92.1802080  39.5985850  57.1812510
  91.5969750  39.1228620  67.9593590  92.2445940  38.5726000  67.5188750
  92.0171590  39.3771770  68.7809400  91.3501750  39.2784290  70.7018910
  91.0016570  39.7348110  71.4677090  91.0189450  38.3841420  70.7841340
  92.9566120  52.4503890  74.8672100  92.9135750  52.0796800  75.7486560
  93.0877130  53.3881460  75.0073920  96.6572150  54.0063480  70.4681820
  96.4163510  54.2738040  69.5812340  97.5974790  54.1769210  70.5232680
  98.8626570  40.4696170  74.2238330  98.8015460  41.0618000  74.9733740
  99.8026950  40.3622130  74.0788590 101.5001130  40.1266230  73.8630620
 102.1141540  40.4445520  73.2011700 102.0450690  39.6414820  74.4826480
  92.0222390  38.8060490  73.9769680  92.5705380  38.6248540  73.2135790
  92.0877700  38.0154600  74.5125990  92.7954150  55.3966140  71.9869880
  92.2014470  55.2650840  72.7259920  92.7877990  54.5604280  71.5211980
 102.2409170  38.6898370  70.1899910 101.3669010  39.0233480  69.9872840
 102.1319920  38.2171550  71.0151780  92.4266380  52.7624520  70.9377920
  91.7000440  52.1429810  70.8703870  92.4875530  53.1565130  70.0676000
  96.0311480  54.9769520  67.7227330  96.5476500  54.3656880  67.1975590
  96.6808860  55.4798300  68.2138340  98.7706980  55.8678010  68.5496310
  99.0584790  55.6132310  67.6729320  99.2830200  55.3155370  69.1401880
  99.9883990  39.6068210  69.1292820  99.2055780  40.0813710  69.4089580
  99.6946920  38.7023040  69.0206000  90.7096380  56.0798910  64.1474680
  90.5418420  55.4469590  64.8456570  89.8430890  56.2858310  63.7968870
  91.3324400  39.9115690  61.6506540  92.0903760  40.0244570  61.0770570
  90.8701570  40.7484890  61.6049970  97.8738210  42.0254960  64.6408850
  97.0612720  41.6511850  64.3004730  98.3779850  41.2700040  64.9430040
  92.3159080  54.7732140  61.5924820  91.7906700  55.1540170  60.8886780
  92.2403660  55.3982910  62.3134530  93.7049550  40.4379740  60.1908510
  94.2342310  39.6509540  60.0616460  94.3377870  41.1170930  60.4244040
  95.8987390  40.1754880  63.2453900  95.2690130  39.4742190  63.4124030
  95.3592530  40.9359010  63.0287060  98.8379340  56.7894110  75.9164510
  99.7646650  56.5538380  75.9600470  98.8229770  57.6166110  75.4350540
  96.0242950  39.4538860  75.6806390  95.7427220  39.9572460  74.9167210
  96.4062650  38.6560610  75.3148520  94.9152050  56.7214520  60.4674070
  95.6470870  56.4373800  59.9197960  95.1745720  56.4827800  61.3573450
  94.0766840  52.8379250  60.4720400  93.4475720  53.3064350  61.0206230
  94.1914670  51.9928470  60.9066590 101.5316560  46.8884910  46.6221600
 101.4510610  45.9739520  46.3513310 101.1180980  47.3851980  45.9161310
  99.6634600  48.6663930  48.5030870  98.8876700  48.1864370  48.7929440
 100.3147530  47.9869580  48.3287030  93.6800430  48.9783740  49.3806630
  92.8485310  48.7232450  49.7803140  94.2881410  49.0494510  50.1164550
  93.6601690  53.0123830  49.5764650  93.9629730  52.1221570  49.3974870
  94.4045280  53.5694050  49.3486900  92.0892380  43.9385630  43.1649020
  91.2009080  44.2801600  43.0628900  92.3733570  43.7385950  42.2729850
  90.0525390  46.5391280  49.0488720  90.6241500  45.7713480  49.0492360
  90.0526930  46.8380040  48.1395330  99.9105340  55.3582130  46.9033990
  99.2916780  55.8139630  46.3328430 100.7657120  55.5133590  46.5023690
  99.1043590  51.3421120  48.5101030  99.0351870  50.4011060  48.3490160
  99.8663450  51.4322530  49.0823600  91.2950260  41.9475640  50.8357650
  91.1153100  41.0501390  51.1160410  90.8930340  42.4947510  51.5104600
 100.1348760  44.1491500  48.7369960 100.5113580  43.2763380  48.6243630
 100.0368270  44.4850200  47.8460400  94.2653770  42.5217130  44.1987400
  94.3720520  43.4220860  44.5056160  93.3546130  42.4735100  43.9082050
  91.9136930  44.4436140  49.4439990  92.5947040  44.7074510  50.0627390
  91.5984980  43.6037010  49.7778000  96.1061500  45.4903500  48.5312580
  96.6139720  45.9884470  49.1717600  96.6374740  44.7138700  48.3551940
  94.3897600  40.1302060  52.7976000  94.3916040  40.6474450  51.9921900
  93.5601910  39.6532240  52.7745930 100.7768690  50.2421370  44.2965900
 100.1585960  50.7070820  43.7328620 101.2891940  50.9348850  44.7135410
  95.6400450  49.7697240  50.9749500  95.3069830  50.3966160  51.6170570
  95.8167130  50.2959120  50.1951170  94.0712930  41.8412020  50.8046450
  94.4129740  42.6854070  50.5100320  93.1328740  41.9895760  50.9211790
  94.8519550  51.7378040  52.7898680  95.4693550  52.4129120  52.5083130
  93.9912670  52.1466020  52.6986180  90.1451890  50.9277900  41.6705530
  89.7679870  51.4165000  40.9390430  90.4024960  51.6003180  42.3012060
  97.7540820  39.3294290  47.1291040  98.0615800  38.7741180  46.4126540
  96.8241520  39.4638750  46.9464030 100.1421580  47.3943120  43.8651160
  99.2150860  47.3280500  44.0939630 100.2946400  48.3323250  43.7506400
 100.1290660  43.6660120  40.8618320  99.1894330  43.8274080  40.9470780
 100.4473920  44.3845800  40.3154310  95.7478220  47.9207860  46.6470890
  95.3435220  47.2085110  46.1516790  95.8341340  47.5761100  47.5358930
  96.2159920  51.6075420  48.8110100  95.9188210  51.0020890  48.1317880
  97.1659740  51.6452730  48.6999460  94.4606840  44.6951070  50.4269930
  95.0121430  44.8046410  49.6523180  94.9750350  45.0688670  51.1425160
  95.3078350  51.3457110  55.4617900  94.4106880  51.5697080  55.7091300
  95.3331220  51.4692050  54.5129300  94.1349570  48.2170430  54.0375270
  93.9957340  49.0893230  54.4062670  93.2530930  47.8743240  53.8923210
 100.4578950  53.1346300  45.3440400 100.8974860  53.8770630  44.9295790
 100.3965840  53.3772870  46.2679360  95.9329920  54.1592130  56.2460420
  95.9045350  54.5635080  55.3788850  95.7694890  53.2302490  56.0832020
  92.4482850  46.8152840  44.1477540  92.3280450  47.5414930  43.5358810
  92.1383740  46.0455750  43.6705450  90.0868220  49.9867980  49.9546180
  90.1648640  50.1216750  49.0101900  90.7009900  49.2783870  50.1474300
  91.3315850  51.6868170  46.3652360  90.9243930  51.8282760  45.5105960
  92.2228860  51.4028330  46.1623570 101.1494730  55.8360080  53.2719410
 101.6639400  55.7468090  54.0741840 100.3063810  56.1819780  53.5647320
  95.6037510  55.9013950  44.4775030  95.4279990  54.9849490  44.2642830
  94.7493250  56.2601240  44.7172830  90.1427740  51.0282150  52.4940640
  90.3058780  50.5587510  51.6760010  90.6080190  50.5205710  53.1589480
  94.9146510  40.1587910  47.5301210  94.4714660  40.9397450  47.1985730
  95.4731500  40.4817800  48.2372150  99.2016320  43.0256430  53.1336530
  98.7395690  43.2339450  53.9456470  98.7994430  42.2115780  52.8307200
 101.2970540  45.7467130  56.3631980 101.6223950  44.9130880  56.0234210
 102.0850870  46.2695650  56.5110310  98.0305330  39.7798610  42.4107040
  97.4059510  39.7758480  43.1360350  97.9435450  38.9129570  42.0143010
  96.9522410  40.7035240  49.3890810  97.2494740  41.6098070  49.3082830
  97.5007970  40.2154020  48.7750380  94.7060730  45.2821480  45.2582460
  94.4801650  45.0658650  46.1629080  93.9253260  45.7149940  44.9128430
 101.9358490  45.2884850  43.8573110 101.3367380  46.0120650  43.6736730
 102.4838100  45.2261630  43.0749560  97.1459940  46.1807060  55.9242730
  97.0503540  45.2401790  55.7743130  97.9891920  46.4022130  55.5290800
 100.5423360  43.9248390  45.8876390 100.9352930  44.2420590  45.0745080
 100.9040210  43.0460270  46.0020910  92.2770480  42.5920730  54.0776510
  91.8833870  43.4395940  54.2849290  91.5888880  41.9547100  54.2685150
  98.8515530  42.6755700  57.1473250  98.1613850  42.4827900  57.7819340
  99.5947830  42.9590340  57.6797550  89.5787530  40.5149190  48.1106590
  89.2900580  41.0852050  48.8231570  90.3233290  40.0353640  48.4737820
  89.7657760  44.4569310  39.3209310  89.6832430  45.4000070  39.4624300
  89.4140820  44.3144220  38.4421660 101.1278500  46.5154140  49.9827170
 100.3959620  47.0240950  50.3317270 100.7302840  45.6984120  49.6815950
  97.5655890  43.1908340  48.3879660  97.5691950  42.7498290  47.5384200
  98.4607010  43.5125670  48.4951480  93.4158270  43.0734830  47.3473870
  93.0758320  43.5510060  48.1040920  92.6535590  42.6199950  46.9874970
  97.6276040  44.1920420  41.3786420  97.7488860  44.1506900  42.3272240
  97.2424550  45.0544570  41.2233150 101.5904410  41.9687820  49.3950110
 101.6077150  42.4196470  50.2391960 101.3419990  41.0693460  49.6083550
  96.6397540  46.5021560  40.7769720  96.0714440  46.0539810  40.1505630
  97.3486540  46.8614340  40.2434870  91.7166720  50.4033580  54.6536450
  91.3321510  49.7627250  55.2519410  92.0278910  51.1069700  55.2231180
  97.8663860  47.2510120  50.1345070  98.2333990  46.7768690  50.8806410
  97.6768920  48.1251690  50.4753410  90.7304350  41.9953810  46.2638540
  90.4451270  41.6309480  47.1017160  90.6683210  41.2634270  45.6501680
  95.6563230  46.2918760  52.4529280  95.3520300  47.1710740  52.6779640
  96.6109690  46.3518550  52.4886720  94.1845020  50.4979750  43.0496130
  93.4107280  49.9577370  42.8894850  94.9139650  49.9786360  42.7113890
 100.4042940  40.8883070  42.9851910  99.5907550  40.3896240  42.9097220
 100.2104890  41.7281320  42.5688260 100.3251800  49.5654170  54.7291520
 100.2589110  48.6449840  54.4749110  99.6956940  49.6629610  55.4436160
  94.2282420  50.1660130  46.6874940  94.7461090  49.3628390  46.6331830
  93.7766440  50.1039270  47.5291770  99.1151920  51.4326410  41.9602240
  99.4567620  52.1768640  41.4645560  98.2864630  51.7457530  42.3227070
  91.7126960  47.1321500  53.6000640  91.3541900  47.7975350  54.1873980
  91.4181520  46.3005050  53.9713260  94.9140080  47.5905740  56.4840190
  94.6140220  47.7362920  55.5868010  95.6851320  47.0311030  56.3913580
 100.2568530  52.3874740  54.4795320 100.2713070  51.4555700  54.2614230
  99.5493630  52.4734500  55.1185090 101.9979330  50.7542250  47.3247750
 102.3503150  50.1570380  46.6649120 101.1141660  50.4286480  47.4956000
  98.0842610  51.5139940  44.7318160  98.7713740  52.0609150  45.1125750
  97.2975030  52.0580670  44.7667770  90.2235010  47.1312760  40.2235240
  91.0929860  47.4137560  40.5071160  89.7325330  47.9448630  40.1084050
  97.3869820  48.5185970  44.3443520  97.8432600  49.3291220  44.5703710
  97.0358030  48.2009110  45.1762010  99.6902430  54.0292310  51.5735820
 100.3344650  54.2351690  52.2509240 100.0531870  53.2680710  51.1206670
  93.2881600  38.8623620  44.8166040  93.1596230  38.8541520  45.7650960
  92.4643620  39.2006710  44.4657050 100.9634510  52.0324660  50.2913270
 101.6056740  51.3317820  50.4045440 101.4883860  52.8123100  50.1110160
  90.5906260  56.3440140  40.7896870  90.9503900  56.9429480  40.1354140
  90.4498600  56.8900030  41.5631900  90.2875530  40.6214740  54.2772740
  89.5734050  40.8211660  54.8825350  90.7070570  39.8454310  54.6487540
  90.5748120  54.6095000  55.2639270  90.6839240  53.6689740  55.1234660
  89.9228680  54.8749750  54.6153000  98.5660710  52.8810890  56.6637390
  98.2457580  52.1620130  57.2083080  97.8919070  53.5565960  56.7373450
  96.6074880  53.7271340  41.6070540  96.5984980  54.4601030  40.9915050
  95.6873240  53.4802920  41.6997500  92.2081520  48.9486230  42.3517300
  91.6009470  49.6885130  42.3612600  92.6830870  49.0385590  41.5255500
 101.7814310  43.1137050  52.0274190 102.1495130  42.2932260  52.3553760
 100.9212510  43.1738940  52.4429840  99.5934480  53.7899580  40.2695730
  99.6946460  53.5863570  39.3397710  98.6936220  53.5357860  40.4743510
  97.1160370  44.3479940  44.2519630  96.4076520  44.8166280  44.6933240
  97.4004850  43.6901950  44.8864820  98.7416300  45.7676640  52.2512160
  99.2401550  46.2422460  52.9164010  98.8839250  44.8440160  52.4582190
 101.1475800  41.0730600  45.6915420 101.0243580  41.0916730  44.7424930
 102.0960360  41.1209540  45.8113820  98.2352590  56.3085900  44.9643400
  98.4894090  56.2707290  44.0422770  97.2865070  56.1819230  44.9571650
  95.3195390  42.6565020  41.6270340  96.1685920  43.0935170  41.5610530
  94.9526660  42.9685280  42.4542400  94.2186810  48.9097380  40.1005870
  94.9850080  48.7978740  40.6631300  94.2961500  48.2135350  39.4482640
  92.9133570  46.3422450  40.7838760  92.9937160  45.3949960  40.8956160
  93.8053320  46.6729330  40.8899420  93.7148280  56.4917840  47.8873300
  94.4510760  55.9433300  48.1581870  94.0989200  57.3573850  47.7479290
  90.5993760  52.5591410  43.7614810  89.6733540  52.8012550  43.7520220
  91.0650190  53.3865670  43.6399560  92.7206560  55.6763910  57.0758880
  93.5219290  55.9975960  57.4894280  92.2058380  55.3159490  57.7978790
  96.8250590  55.6648150  39.7098870  97.6179200  55.9536980  39.2580660
  96.3054940  55.2340320  39.0311350 101.5571190  51.7843780  57.0234290
 100.9509350  51.8075380  56.2830040 101.2525300  51.0526820  57.5601540
  90.4404370  48.1637370  56.0194930  90.9443390  47.5844650  56.5911160
  89.7011790  48.4477600  56.5571300  97.3427990  50.8851560  39.5741220
  97.2378630  50.2703910  40.3002600  97.1752210  50.3617450  38.7904230
  97.4942310  49.5708360  55.5530450  96.7287980  50.1393360  55.4685120
  97.6758270  49.2784570  54.6598680 100.5830720  49.9471590  40.1783210
 100.0340820  50.3940890  40.8225950 101.2049980  49.4420840  40.7020880
  92.4727450  46.3066960  56.9145000  92.5132790  46.0080830  57.8230230
  93.3272950  46.7074570  56.7552520  96.2505840  48.9062510  42.0748510
  96.6722260  48.7402380  42.9179900  96.3756680  48.0962740  41.5803650
  94.4133260  44.8859060  54.8819490  93.8829720  44.3950010  54.2542830
  95.0821330  45.3143260  54.3477420  98.7633480  47.9300120  39.3225610
  99.2839140  47.2149140  38.9566760  99.4101880  48.5685990  39.6226120
  94.9005560  41.8521430  54.9616780  94.8062430  41.2342180  54.2367650
  94.3202950  42.5787720  54.7346690  97.6667000  40.4094670  51.9944170
  97.2184300  40.4318930  51.1489720  97.0332200  40.0113690  52.5914470
  98.0726550  49.3049000  52.6156610  98.4914660  50.1481730  52.4432850
  97.1535180  49.4421040  52.3863390 100.4090450  47.0365180  53.9994450
 100.5286660  46.4406320  54.7389290 101.2684450  47.0734870  53.5795750
  95.1464740  44.9795740  39.0206670  94.9453800  44.1163100  39.3820010
  94.9756790  44.8929100  38.0828270  95.9233970  55.6102010  53.7314340
  95.3855060  56.3348070  53.4123040  96.1767930  55.1332350  52.9411680
  97.1759220  43.5786530  55.2570270  97.7658910  43.2702380  55.9448090
  96.3579460  43.1066280  55.4130170  93.9447540  42.0796360  39.0084550
  94.2473440  42.0863790  38.1003700  94.6842130  41.7294220  39.5052210
  98.7796180  56.8453220  53.9900990  98.7054880  57.7488360  54.2973360
  97.8775020  56.5265120  53.9623060  97.1632470  41.0230980  39.9940750
  96.8154470  40.3454970  39.4143200  97.3645240  40.5620490  40.8084140
  99.3281510  56.0111730  41.6127350 100.2232300  56.3496700  41.6346110
  99.3599140  55.2891140  40.9851630  92.9677670  51.3838780  39.8414350
  93.4052540  51.9268450  40.4971930  93.4525400  50.5585730  39.8510690
  90.1823470  54.1727810  47.2934610  90.5126480  53.3048870  47.0613250
  90.6114470  54.3786330  48.1239570  94.7785390  52.5036820  44.9536580
  94.4780930  52.3801790  45.8540490  94.6722880  51.6445410  44.5452310
  90.6713680  55.0398400  50.0316240  90.2344670  55.2199200  50.8640390
  91.2391360  55.7973020  49.8897960  90.5038110  47.5518630  46.3905120
  89.8486950  47.2830270  45.7464820  91.3416060  47.4423110  45.9407100
  91.5414040  47.9371200  50.9308460  91.9087080  47.8498600  51.8104480
  90.9724860  47.1737750  50.8315320  91.0930040  44.8480290  54.8366880
  90.1986090  44.8147050  55.1760590  91.6327590  45.0467080  55.6018130
  89.7176190  44.7617560  42.3330450  88.8140270  45.0247760  42.1582110
  90.2016810  45.0328730  41.5530410  92.2603400  43.8183100  40.2424830
  92.9695100  43.3966320  39.7572110  91.5443340  43.8858330  39.6108180
  91.9077560  39.8722430  39.2827480  92.6305690  40.4131370  39.6008700
  92.1802080  39.5985850  38.4069020  91.5969750  39.1228620  49.1850100
  92.2445940  38.5726000  48.7445260  92.0171590  39.3771770  50.0065910
  91.3501750  39.2784290  51.9275420  91.0016570  39.7348110  52.6933600
  91.0189450  38.3841420  52.0097850  92.9566120  52.4503890  56.0928610
  92.9135750  52.0796800  56.9743070  93.0877130  53.3881460  56.2330430
  96.6572150  54.0063480  51.6938330  96.4163510  54.2738040  50.8068850
  97.5974790  54.1769210  51.7489190  98.8626570  40.4696170  55.4494840
  98.8015460  41.0618000  56.1990250  99.8026950  40.3622130  55.3045100
 101.5001130  40.1266230  55.0887130 102.1141540  40.4445520  54.4268210
 102.0450690  39.6414820  55.7082990  92.0222390  38.8060490  55.2026190
  92.5705380  38.6248540  54.4392300  92.0877700  38.0154600  55.7382500
  92.7954150  55.3966140  53.2126390  92.2014470  55.2650840  53.9516430
  92.7877990  54.5604280  52.7468490 102.2409170  38.6898370  51.4156420
 101.3669010  39.0233480  51.2129350 102.1319920  38.2171550  52.2408290
  92.4266380  52.7624520  52.1634430  91.7000440  52.1429810  52.0960380
  92.4875530  53.1565130  51.2932510  96.0311480  54.9769520  48.9483840
  96.5476500  54.3656880  48.4232100  96.6808860  55.4798300  49.4394850
  98.7706980  55.8678010  49.7752820  99.0584790  55.6132310  48.8985830
  99.2830200  55.3155370  50.3658390  99.9883990  39.6068210  50.3549330
  99.2055780  40.0813710  50.6346090  99.6946920  38.7023040  50.2462510
  90.7096380  56.0798910  45.3731190  90.5418420  55.4469590  46.0713080
  89.8430890  56.2858310  45.0225380  91.3324400  39.9115690  42.8763050
  92.0903760  40.0244570  42.3027080  90.8701570  40.7484890  42.8306480
  97.8738210  42.0254960  45.8665360  97.0612720  41.6511850  45.5261240
  98.3779850  41.2700040  46.1686550  92.3159080  54.7732140  42.8181330
  91.7906700  55.1540170  42.1143290  92.2403660  55.3982910  43.5391040
  93.7049550  40.4379740  41.4165020  94.2342310  39.6509540  41.2872970
  94.3377870  41.1170930  41.6500550  95.8987390  40.1754880  44.4710410
  95.2690130  39.4742190  44.6380540  95.3592530  40.9359010  44.2543570
  98.8379340  56.7894110  57.1421020  99.7646650  56.5538380  57.1856980
  98.8229770  57.6166110  56.6607050  96.0242950  39.4538860  56.9062900
  95.7427220  39.9572460  56.1423720  96.4062650  38.6560610  56.5405030
  94.9152050  56.7214520  41.6930580  95.6470870  56.4373800  41.1454470
  95.1745720  56.4827800  42.5829960  94.0766840  52.8379250  41.6976910
  93.4475720  53.3064350  42.2462740  94.1914670  51.9928470  42.1323100
 101.5316560  46.8884910  27.8478110 101.4510610  45.9739520  27.5769820
 101.1180980  47.3851980  27.1417820  99.6634600  48.6663930  29.7287380
  98.8876700  48.1864370  30.0185950 100.3147530  47.9869580  29.5543540
  93.6800430  48.9783740  30.6063140  92.8485310  48.7232450  31.0059650
  94.2881410  49.0494510  31.3421060  93.6601690  53.0123830  30.8021160
  93.9629730  52.1221570  30.6231380  94.4045280  53.5694050  30.5743410
  92.0892380  43.9385630  24.3905530  91.2009080  44.2801600  24.2885410
  92.3733570  43.7385950  23.4986360  90.0525390  46.5391280  30.2745230
  90.6241500  45.7713480  30.2748870  90.0526930  46.8380040  29.3651840
  99.9105340  55.3582130  28.1290500  99.2916780  55.8139630  27.5584940
 100.7657120  55.5133590  27.7280200  99.1043590  51.3421120  29.7357540
  99.0351870  50.4011060  29.5746670  99.8663450  51.4322530  30.3080110
  91.2950260  41.9475640  32.0614160  91.1153100  41.0501390  32.3416920
  90.8930340  42.4947510  32.7361110 100.1348760  44.1491500  29.9626470
 100.5113580  43.2763380  29.8500140 100.0368270  44.4850200  29.0716910
  94.2653770  42.5217130  25.4243910  94.3720520  43.4220860  25.7312670
  93.3546130  42.4735100  25.1338560  91.9136930  44.4436140  30.6696500
  92.5947040  44.7074510  31.2883900  91.5984980  43.6037010  31.0034510
  96.1061500  45.4903500  29.7569090  96.6139720  45.9884470  30.3974110
  96.6374740  44.7138700  29.5808450  94.3897600  40.1302060  34.0232510
  94.3916040  40.6474450  33.2178410  93.5601910  39.6532240  34.0002440
 100.7768690  50.2421370  25.5222410 100.1585960  50.7070820  24.9585130
 101.2891940  50.9348850  25.9391920  95.6400450  49.7697240  32.2006010
  95.3069830  50.3966160  32.8427080  95.8167130  50.2959120  31.4207680
  94.0712930  41.8412020  32.0302960  94.4129740  42.6854070  31.7356830
  93.1328740  41.9895760  32.1468300  94.8519550  51.7378040  34.0155190
  95.4693550  52.4129120  33.7339640  93.9912670  52.1466020  33.9242690
  90.1451890  50.9277900  22.8962040  89.7679870  51.4165000  22.1646940
  90.4024960  51.6003180  23.5268570  97.7540820  39.3294290  28.3547550
  98.0615800  38.7741180  27.6383050  96.8241520  39.4638750  28.1720540
 100.1421580  47.3943120  25.0907670  99.2150860  47.3280500  25.3196140
 100.2946400  48.3323250  24.9762910 100.1290660  43.6660120  22.0874830
  99.1894330  43.8274080  22.1727290 100.4473920  44.3845800  21.5410820
  95.7478220  47.9207860  27.8727400  95.3435220  47.2085110  27.3773300
  95.8341340  47.5761100  28.7615440  96.2159920  51.6075420  30.0366610
  95.9188210  51.0020890  29.3574390  97.1659740  51.6452730  29.9255970
  94.4606840  44.6951070  31.6526440  95.0121430  44.8046410  30.8779690
  94.9750350  45.0688670  32.3681670  95.3078350  51.3457110  36.6874410
  94.4106880  51.5697080  36.9347810  95.3331220  51.4692050  35.7385810
  94.1349570  48.2170430  35.2631780  93.9957340  49.0893230  35.6319180
  93.2530930  47.8743240  35.1179720 100.4578950  53.1346300  26.5696910
 100.8974860  53.8770630  26.1552300 100.3965840  53.3772870  27.4935870
  95.9329920  54.1592130  37.4716930  95.9045350  54.5635080  36.6045360
  95.7694890  53.2302490  37.3088530  92.4482850  46.8152840  25.3734050
  92.3280450  47.5414930  24.7615320  92.1383740  46.0455750  24.8961960
  90.0868220  49.9867980  31.1802690  90.1648640  50.1216750  30.2358410
  90.7009900  49.2783870  31.3730810  91.3315850  51.6868170  27.5908870
  90.9243930  51.8282760  26.7362470  92.2228860  51.4028330  27.3880080
 101.1494730  55.8360080  34.4975920 101.6639400  55.7468090  35.2998350
 100.3063810  56.1819780  34.7903830  95.6037510  55.9013950  25.7031540
  95.4279990  54.9849490  25.4899340  94.7493250  56.2601240  25.9429340
  90.1427740  51.0282150  33.7197150  90.3058780  50.5587510  32.9016520
  90.6080190  50.5205710  34.3845990  94.9146510  40.1587910  28.7557720
  94.4714660  40.9397450  28.4242240  95.4731500  40.4817800  29.4628660
  99.2016320  43.0256430  34.3593040  98.7395690  43.2339450  35.1712980
  98.7994430  42.2115780  34.0563710 101.2970540  45.7467130  37.5888490
 101.6223950  44.9130880  37.2490720 102.0850870  46.2695650  37.7366820
  98.0305330  39.7798610  23.6363550  97.4059510  39.7758480  24.3616860
  97.9435450  38.9129570  23.2399520  96.9522410  40.7035240  30.6147320
  97.2494740  41.6098070  30.5339340  97.5007970  40.2154020  30.0006890
  94.7060730  45.2821480  26.4838970  94.4801650  45.0658650  27.3885590
  93.9253260  45.7149940  26.1384940 101.9358490  45.2884850  25.0829620
 101.3367380  46.0120650  24.8993240 102.4838100  45.2261630  24.3006070
  97.1459940  46.1807060  37.1499240  97.0503540  45.2401790  36.9999640
  97.9891920  46.4022130  36.7547310 100.5423360  43.9248390  27.1132900
 100.9352930  44.2420590  26.3001590 100.9040210  43.0460270  27.2277420
  92.2770480  42.5920730  35.3033020  91.8833870  43.4395940  35.5105800
  91.5888880  41.9547100  35.4941660  98.8515530  42.6755700  38.3729760
  98.1613850  42.4827900  39.0075850  99.5947830  42.9590340  38.9054060
  89.5787530  40.5149190  29.3363100  89.2900580  41.0852050  30.0488080
  90.3233290  40.0353640  29.6994330  89.7657760  44.4569310  20.5465820
  89.6832430  45.4000070  20.6880810  89.4140820  44.3144220  19.6678170
 101.1278500  46.5154140  31.2083680 100.3959620  47.0240950  31.5573780
 100.7302840  45.6984120  30.9072460  97.5655890  43.1908340  29.6136170
  97.5691950  42.7498290  28.7640710  98.4607010  43.5125670  29.7207990
  93.4158270  43.0734830  28.5730380  93.0758320  43.5510060  29.3297430
  92.6535590  42.6199950  28.2131480  97.6276040  44.1920420  22.6042930
  97.7488860  44.1506900  23.5528750  97.2424550  45.0544570  22.4489660
 101.5904410  41.9687820  30.6206620 101.6077150  42.4196470  31.4648470
 101.3419990  41.0693460  30.8340060  96.6397540  46.5021560  22.0026230
  96.0714440  46.0539810  21.3762140  97.3486540  46.8614340  21.4691380
  91.7166720  50.4033580  35.8792960  91.3321510  49.7627250  36.4775920
  92.0278910  51.1069700  36.4487690  97.8663860  47.2510120  31.3601580
  98.2333990  46.7768690  32.1062920  97.6768920  48.1251690  31.7009920
  90.7304350  41.9953810  27.4895050  90.4451270  41.6309480  28.3273670
  90.6683210  41.2634270  26.8758190  95.6563230  46.2918760  33.6785790
  95.3520300  47.1710740  33.9036150  96.6109690  46.3518550  33.7143230
  94.1845020  50.4979750  24.2752640  93.4107280  49.9577370  24.1151360
  94.9139650  49.9786360  23.9370400 100.4042940  40.8883070  24.2108420
  99.5907550  40.3896240  24.1353730 100.2104890  41.7281320  23.7944770
 100.3251800  49.5654170  35.9548030 100.2589110  48.6449840  35.7005620
  99.6956940  49.6629610  36.6692670  94.2282420  50.1660130  27.9131450
  94.7461090  49.3628390  27.8588340  93.7766440  50.1039270  28.7548280
  99.1151920  51.4326410  23.1858750  99.4567620  52.1768640  22.6902070
  98.2864630  51.7457530  23.5483580  91.7126960  47.1321500  34.8257150
  91.3541900  47.7975350  35.4130490  91.4181520  46.3005050  35.1969770
  94.9140080  47.5905740  37.7096700  94.6140220  47.7362920  36.8124520
  95.6851320  47.0311030  37.6170090 100.2568530  52.3874740  35.7051830
 100.2713070  51.4555700  35.4870740  99.5493630  52.4734500  36.3441600
 101.9979330  50.7542250  28.5504260 102.3503150  50.1570380  27.8905630
 101.1141660  50.4286480  28.7212510  98.0842610  51.5139940  25.9574670
  98.7713740  52.0609150  26.3382260  97.2975030  52.0580670  25.9924280
  90.2235010  47.1312760  21.4491750  91.0929860  47.4137560  21.7327670
  89.7325330  47.9448630  21.3340560  97.3869820  48.5185970  25.5700030
  97.8432600  49.3291220  25.7960220  97.0358030  48.2009110  26.4018520
  99.6902430  54.0292310  32.7992330 100.3344650  54.2351690  33.4765750
 100.0531870  53.2680710  32.3463180  93.2881600  38.8623620  26.0422550
  93.1596230  38.8541520  26.9907470  92.4643620  39.2006710  25.6913560
 100.9634510  52.0324660  31.5169780 101.6056740  51.3317820  31.6301950
 101.4883860  52.8123100  31.3366670  90.5906260  56.3440140  22.0153380
  90.9503900  56.9429480  21.3610650  90.4498600  56.8900030  22.7888410
  90.2875530  40.6214740  35.5029250  89.5734050  40.8211660  36.1081860
  90.7070570  39.8454310  35.8744050  90.5748120  54.6095000  36.4895780
  90.6839240  53.6689740  36.3491170  89.9228680  54.8749750  35.8409510
  98.5660710  52.8810890  37.8893900  98.2457580  52.1620130  38.4339590
  97.8919070  53.5565960  37.9629960  96.6074880  53.7271340  22.8327050
  96.5984980  54.4601030  22.2171560  95.6873240  53.4802920  22.9254010
  92.2081520  48.9486230  23.5773810  91.6009470  49.6885130  23.5869110
  92.6830870  49.0385590  22.7512010 101.7814310  43.1137050  33.2530700
 102.1495130  42.2932260  33.5810270 100.9212510  43.1738940  33.6686350
  99.5934480  53.7899580  21.4952240  99.6946460  53.5863570  20.5654220
  98.6936220  53.5357860  21.7000020  97.1160370  44.3479940  25.4776140
  96.4076520  44.8166280  25.9189750  97.4004850  43.6901950  26.1121330
  98.7416300  45.7676640  33.4768670  99.2401550  46.2422460  34.1420520
  98.8839250  44.8440160  33.6838700 101.1475800  41.0730600  26.9171930
 101.0243580  41.0916730  25.9681440 102.0960360  41.1209540  27.0370330
  98.2352590  56.3085900  26.1899910  98.4894090  56.2707290  25.2679280
  97.2865070  56.1819230  26.1828160  95.3195390  42.6565020  22.8526850
  96.1685920  43.0935170  22.7867040  94.9526660  42.9685280  23.6798910
  94.2186810  48.9097380  21.3262380  94.9850080  48.7978740  21.8887810
  94.2961500  48.2135350  20.6739150  92.9133570  46.3422450  22.0095270
  92.9937160  45.3949960  22.1212670  93.8053320  46.6729330  22.1155930
  93.7148280  56.4917840  29.1129810  94.4510760  55.9433300  29.3838380
  94.0989200  57.3573850  28.9735800  90.5993760  52.5591410  24.9871320
  89.6733540  52.8012550  24.9776730  91.0650190  53.3865670  24.8656070
  92.7206560  55.6763910  38.3015390  93.5219290  55.9975960  38.7150790
  92.2058380  55.3159490  39.0235300  96.8250590  55.6648150  20.9355380
  97.6179200  55.9536980  20.4837170  96.3054940  55.2340320  20.2567860
 101.5571190  51.7843780  38.2490800 100.9509350  51.8075380  37.5086550
 101.2525300  51.0526820  38.7858050  90.4404370  48.1637370  37.2451440
  90.9443390  47.5844650  37.8167670  89.7011790  48.4477600  37.7827810
  97.3427990  50.8851560  20.7997730  97.2378630  50.2703910  21.5259110
  97.1752210  50.3617450  20.0160740  97.4942310  49.5708360  36.7786960
  96.7287980  50.1393360  36.6941630  97.6758270  49.2784570  35.8855190
 100.5830720  49.9471590  21.4039720 100.0340820  50.3940890  22.0482460
 101.2049980  49.4420840  21.9277390  92.4727450  46.3066960  38.1401510
  92.5132790  46.0080830  39.0486740  93.3272950  46.7074570  37.9809030
  96.2505840  48.9062510  23.3005020  96.6722260  48.7402380  24.1436410
  96.3756680  48.0962740  22.8060160  94.4133260  44.8859060  36.1076000
  93.8829720  44.3950010  35.4799340  95.0821330  45.3143260  35.5733930
  98.7633480  47.9300120  20.5482120  99.2839140  47.2149140  20.1823270
  99.4101880  48.5685990  20.8482630  94.9005560  41.8521430  36.1873290
  94.8062430  41.2342180  35.4624160  94.3202950  42.5787720  35.9603200
  97.6667000  40.4094670  33.2200680  97.2184300  40.4318930  32.3746230
  97.0332200  40.0113690  33.8170980  98.0726550  49.3049000  33.8413120
  98.4914660  50.1481730  33.6689360  97.1535180  49.4421040  33.6119900
 100.4090450  47.0365180  35.2250960 100.5286660  46.4406320  35.9645800
 101.2684450  47.0734870  34.8052260  95.1464740  44.9795740  20.2463180
  94.9453800  44.1163100  20.6076520  94.9756790  44.8929100  19.3084780
  95.9233970  55.6102010  34.9570850  95.3855060  56.3348070  34.6379550
  96.1767930  55.1332350  34.1668190  97.1759220  43.5786530  36.4826780
  97.7658910  43.2702380  37.1704600  96.3579460  43.1066280  36.6386680
  93.9447540  42.0796360  20.2341060  94.2473440  42.0863790  19.3260210
  94.6842130  41.7294220  20.7308720  98.7796180  56.8453220  35.2157500
  98.7054880  57.7488360  35.5229870  97.8775020  56.5265120  35.1879570
  97.1632470  41.0230980  21.2197260  96.8154470  40.3454970  20.6399710
  97.3645240  40.5620490  22.0340650  99.3281510  56.0111730  22.8383860
 100.2232300  56.3496700  22.8602620  99.3599140  55.2891140  22.2108140
  92.9677670  51.3838780  21.0670860  93.4052540  51.9268450  21.7228440
  93.4525400  50.5585730  21.0767200  90.1823470  54.1727810  28.5191120
  90.5126480  53.3048870  28.2869760  90.6114470  54.3786330  29.3496080
  94.7785390  52.5036820  26.1793090  94.4780930  52.3801790  27.0797000
  94.6722880  51.6445410  25.7708820  90.6713680  55.0398400  31.2572750
  90.2344670  55.2199200  32.0896900  91.2391360  55.7973020  31.1154470
  90.5038110  47.5518630  27.6161630  89.8486950  47.2830270  26.9721330
  91.3416060  47.4423110  27.1663610  91.5414040  47.9371200  32.1564970
  91.9087080  47.8498600  33.0360990  90.9724860  47.1737750  32.0571830
  91.0930040  44.8480290  36.0623390  90.1986090  44.8147050  36.4017100
  91.6327590  45.0467080  36.8274640  89.7176190  44.7617560  23.5586960
  88.8140270  45.0247760  23.3838620  90.2016810  45.0328730  22.7786920
  92.2603400  43.8183100  21.4681340  92.9695100  43.3966320  20.9828620
  91.5443340  43.8858330  20.8364690  91.9077560  39.8722430  20.5083990
  92.6305690  40.4131370  20.8265210  92.1802080  39.5985850  19.6325530
  91.5969750  39.1228620  30.4106610  92.2445940  38.5726000  29.9701770
  92.0171590  39.3771770  31.2322420  91.3501750  39.2784290  33.1531930
  91.0016570  39.7348110  33.9190110  91.0189450  38.3841420  33.2354360
  92.9566120  52.4503890  37.3185120  92.9135750  52.0796800  38.1999580
  93.0877130  53.3881460  37.4586940  96.6572150  54.0063480  32.9194840
  96.4163510  54.2738040  32.0325360  97.5974790  54.1769210  32.9745700
  98.8626570  40.4696170  36.6751350  98.8015460  41.0618000  37.4246760
  99.8026950  40.3622130  36.5301610 101.5001130  40.1266230  36.3143640
 102.1141540  40.4445520  35.6524720 102.0450690  39.6414820  36.9339500
  92.0222390  38.8060490  36.4282700  92.5705380  38.6248540  35.6648810
  92.0877700  38.0154600  36.9639010  92.7954150  55.3966140  34.4382900
  92.2014470  55.2650840  35.1772940  92.7877990  54.5604280  33.9725000
 102.2409170  38.6898370  32.6412930 101.3669010  39.0233480  32.4385860
 102.1319920  38.2171550  33.4664800  92.4266380  52.7624520  33.3890940
  91.7000440  52.1429810  33.3216890  92.4875530  53.1565130  32.5189020
  96.0311480  54.9769520  30.1740350  96.5476500  54.3656880  29.6488610
  96.6808860  55.4798300  30.6651360  98.7706980  55.8678010  31.0009330
  99.0584790  55.6132310  30.1242340  99.2830200  55.3155370  31.5914900
  99.9883990  39.6068210  31.5805840  99.2055780  40.0813710  31.8602600
  99.6946920  38.7023040  31.4719020  90.7096380  56.0798910  26.5987700
  90.5418420  55.4469590  27.2969590  89.8430890  56.2858310  26.2481890
  91.3324400  39.9115690  24.1019560  92.0903760  40.0244570  23.5283590
  90.8701570  40.7484890  24.0562990  97.8738210  42.0254960  27.0921870
  97.0612720  41.6511850  26.7517750  98.3779850  41.2700040  27.3943060
  92.3159080  54.7732140  24.0437840  91.7906700  55.1540170  23.3399800
  92.2403660  55.3982910  24.7647550  93.7049550  40.4379740  22.6421530
  94.2342310  39.6509540  22.5129480  94.3377870  41.1170930  22.8757060
  95.8987390  40.1754880  25.6966920  95.2690130  39.4742190  25.8637050
  95.3592530  40.9359010  25.4800080  98.8379340  56.7894110  38.3677530
  99.7646650  56.5538380  38.4113490  98.8229770  57.6166110  37.8863560
  96.0242950  39.4538860  38.1319410  95.7427220  39.9572460  37.3680230
  96.4062650  38.6560610  37.7661540  94.9152050  56.7214520  22.9187090
  95.6470870  56.4373800  22.3710980  95.1745720  56.4827800  23.8086470
  94.0766840  52.8379250  22.9233420  93.4475720  53.3064350  23.4719250
  94.1914670  51.9928470  23.3579610 101.5316560  46.8884910   9.0734620
 101.4510610  45.9739520   8.8026330 101.1180980  47.3851980   8.3674330
  99.6634600  48.6663930  10.9543890  98.8876700  48.1864370  11.2442460
 100.3147530  47.9869580  10.7800050  93.6800430  48.9783740  11.8319650
  92.8485310  48.7232450  12.2316160  94.2881410  49.0494510  12.5677570
  93.6601690  53.0123830  12.0277670  93.9629730  52.1221570  11.8487890
  94.4045280  53.5694050  11.7999920  92.0892380  43.9385630   5.6162040
  91.2009080  44.2801600   5.5141920  92.3733570  43.7385950   4.7242870
  90.0525390  46.5391280  11.5001740  90.6241500  45.7713480  11.5005380
  90.0526930  46.8380040  10.5908350  99.9105340  55.3582130   9.3547010
  99.2916780  55.8139630   8.7841450 100.7657120  55.5133590   8.9536710
  99.1043590  51.3421120  10.9614050  99.0351870  50.4011060  10.8003180
  99.8663450  51.4322530  11.5336620  91.2950260  41.9475640  13.2870670
  91.1153100  41.0501390  13.5673430  90.8930340  42.4947510  13.9617620
 100.1348760  44.1491500  11.1882980 100.5113580  43.2763380  11.0756650
 100.0368270  44.4850200  10.2973420  94.2653770  42.5217130   6.6500420
  94.3720520  43.4220860   6.9569180  93.3546130  42.4735100   6.3595070
  91.9136930  44.4436140  11.8953010  92.5947040  44.7074510  12.5140410
  91.5984980  43.6037010  12.2291020  96.1061500  45.4903500  10.9825600
  96.6139720  45.9884470  11.6230620  96.6374740  44.7138700  10.8064960
  94.3897600  40.1302060  15.2489020  94.3916040  40.6474450  14.4434920
  93.5601910  39.6532240  15.2258950 100.7768690  50.2421370   6.7478920
 100.1585960  50.7070820   6.1841640 101.2891940  50.9348850   7.1648430
  95.6400450  49.7697240  13.4262520  95.3069830  50.3966160  14.0683590
  95.8167130  50.2959120  12.6464190  94.0712930  41.8412020  13.2559470
  94.4129740  42.6854070  12.9613340  93.1328740  41.9895760  13.3724810
  94.8519550  51.7378040  15.2411700  95.4693550  52.4129120  14.9596150
  93.9912670  52.1466020  15.1499200  90.1451890  50.9277900   4.1218550
  89.7679870  51.4165000   3.3903450  90.4024960  51.6003180   4.7525080
  97.7540820  39.3294290   9.5804060  98.0615800  38.7741180   8.8639560
  96.8241520  39.4638750   9.3977050 100.1421580  47.3943120   6.3164180
  99.2150860  47.3280500   6.5452650 100.2946400  48.3323250   6.2019420
 100.1290660  43.6660120   3.3131340  99.1894330  43.8274080   3.3983800
 100.4473920  44.3845800   2.7667330  95.7478220  47.9207860   9.0983910
  95.3435220  47.2085110   8.6029810  95.8341340  47.5761100   9.9871950
  96.2159920  51.6075420  11.2623120  95.9188210  51.0020890  10.5830900
  97.1659740  51.6452730  11.1512480  94.4606840  44.6951070  12.8782950
  95.0121430  44.8046410  12.1036200  94.9750350  45.0688670  13.5938180
  95.3078350  51.3457110  17.9130920  94.4106880  51.5697080  18.1604320
  95.3331220  51.4692050  16.9642320  94.1349570  48.2170430  16.4888290
  93.9957340  49.0893230  16.8575690  93.2530930  47.8743240  16.3436230
 100.4578950  53.1346300   7.7953420 100.8974860  53.8770630   7.3808810
 100.3965840  53.3772870   8.7192380  95.9329920  54.1592130  18.6973440
  95.9045350  54.5635080  17.8301870  95.7694890  53.2302490  18.5345040
  92.4482850  46.8152840   6.5990560  92.3280450  47.5414930   5.9871830
  92.1383740  46.0455750   6.1218470  90.0868220  49.9867980  12.4059200
  90.1648640  50.1216750  11.4614920  90.7009900  49.2783870  12.5987320
  91.3315850  51.6868170   8.8165380  90.9243930  51.8282760   7.9618980
  92.2228860  51.4028330   8.6136590 101.1494730  55.8360080  15.7232430
 101.6639400  55.7468090  16.5254860 100.3063810  56.1819780  16.0160340
  95.6037510  55.9013950   6.9288050  95.4279990  54.9849490   6.7155850
  94.7493250  56.2601240   7.1685850  90.1427740  51.0282150  14.9453660
  90.3058780  50.5587510  14.1273030  90.6080190  50.5205710  15.6102500
  94.9146510  40.1587910   9.9814230  94.4714660  40.9397450   9.6498750
  95.4731500  40.4817800  10.6885170  99.2016320  43.0256430  15.5849550
  98.7395690  43.2339450  16.3969490  98.7994430  42.2115780  15.2820220
 101.2970540  45.7467130  18.8145000 101.6223950  44.9130880  18.4747230
 102.0850870  46.2695650  18.9623330  98.0305330  39.7798610   4.8620060
  97.4059510  39.7758480   5.5873370  97.9435450  38.9129570   4.4656030
  96.9522410  40.7035240  11.8403830  97.2494740  41.6098070  11.7595850
  97.5007970  40.2154020  11.2263400  94.7060730  45.2821480   7.7095480
  94.4801650  45.0658650   8.6142100  93.9253260  45.7149940   7.3641450
 101.9358490  45.2884850   6.3086130 101.3367380  46.0120650   6.1249750
 102.4838100  45.2261630   5.5262580  97.1459940  46.1807060  18.3755750
  97.0503540  45.2401790  18.2256150  97.9891920  46.4022130  17.9803820
 100.5423360  43.9248390   8.3389410 100.9352930  44.2420590   7.5258100
 100.9040210  43.0460270   8.4533930  92.2770480  42.5920730  16.5289530
  91.8833870  43.4395940  16.7362310  91.5888880  41.9547100  16.7198170
  98.8515530  42.6755700  19.5986270  98.1613850  42.4827900  20.2332360
  99.5947830  42.9590340  20.1310570  89.5787530  40.5149190  10.5619610
  89.2900580  41.0852050  11.2744590  90.3233290  40.0353640  10.9250840
 101.1278500  46.5154140  12.4340190 100.3959620  47.0240950  12.7830290
 100.7302840  45.6984120  12.1328970  97.5655890  43.1908340  10.8392680
  97.5691950  42.7498290   9.9897220  98.4607010  43.5125670  10.9464500
  93.4158270  43.0734830   9.7986890  93.0758320  43.5510060  10.5553940
  92.6535590  42.6199950   9.4387990  97.6276040  44.1920420   3.8299440
  97.7488860  44.1506900   4.7785260  97.2424550  45.0544570   3.6746170
 101.5904410  41.9687820  11.8463130 101.6077150  42.4196470  12.6904980
 101.3419990  41.0693460  12.0596570  96.6397540  46.5021560   3.2282740
  96.0714440  46.0539810   2.6018650  97.3486540  46.8614340   2.6947890
  91.7166720  50.4033580  17.1049470  91.3321510  49.7627250  17.7032430
  92.0278910  51.1069700  17.6744200  97.8663860  47.2510120  12.5858090
  98.2333990  46.7768690  13.3319430  97.6768920  48.1251690  12.9266430
  90.7304350  41.9953810   8.7151560  90.4451270  41.6309480   9.5530180
  90.6683210  41.2634270   8.1014700  95.6563230  46.2918760  14.9042300
  95.3520300  47.1710740  15.1292660  96.6109690  46.3518550  14.9399740
  94.1845020  50.4979750   5.5009150  93.4107280  49.9577370   5.3407870
  94.9139650  49.9786360   5.1626910 100.4042940  40.8883070   5.4364930
  99.5907550  40.3896240   5.3610240 100.2104890  41.7281320   5.0201280
 100.3251800  49.5654170  17.1804540 100.2589110  48.6449840  16.9262130
  99.6956940  49.6629610  17.8949180  94.2282420  50.1660130   9.1387960
  94.7461090  49.3628390   9.0844850  93.7766440  50.1039270   9.9804790
  99.1151920  51.4326410   4.4115260  99.4567620  52.1768640   3.9158580
  98.2864630  51.7457530   4.7740090  91.7126960  47.1321500  16.0513660
  91.3541900  47.7975350  16.6387000  91.4181520  46.3005050  16.4226280
  94.9140080  47.5905740  18.9353210  94.6140220  47.7362920  18.0381030
  95.6851320  47.0311030  18.8426600 100.2568530  52.3874740  16.9308340
 100.2713070  51.4555700  16.7127250  99.5493630  52.4734500  17.5698110
 101.9979330  50.7542250   9.7760770 102.3503150  50.1570380   9.1162140
 101.1141660  50.4286480   9.9469020  98.0842610  51.5139940   7.1831180
  98.7713740  52.0609150   7.5638770  97.2975030  52.0580670   7.2180790
  90.2235010  47.1312760   2.6748260  91.0929860  47.4137560   2.9584180
  89.7325330  47.9448630   2.5597070  97.3869820  48.5185970   6.7956540
  97.8432600  49.3291220   7.0216730  97.0358030  48.2009110   7.6275030
  99.6902430  54.0292310  14.0248840 100.3344650  54.2351690  14.7022260
 100.0531870  53.2680710  13.5719690  93.2881600  38.8623620   7.2679060
  93.1596230  38.8541520   8.2163980  92.4643620  39.2006710   6.9170070
 100.9634510  52.0324660  12.7426290 101.6056740  51.3317820  12.8558460
 101.4883860  52.8123100  12.5623180  90.5906260  56.3440140   3.2409890
  90.9503900  56.9429480   2.5867160  90.4498600  56.8900030   4.0144920
  90.2875530  40.6214740  16.7285760  89.5734050  40.8211660  17.3338370
  90.7070570  39.8454310  17.1000560  90.5748120  54.6095000  17.7152290
  90.6839240  53.6689740  17.5747680  89.9228680  54.8749750  17.0666020
  98.5660710  52.8810890  19.1150410  98.2457580  52.1620130  19.6596100
  97.8919070  53.5565960  19.1886470  96.6074880  53.7271340   4.0583560
  96.5984980  54.4601030   3.4428070  95.6873240  53.4802920   4.1510520
  92.2081520  48.9486230   4.8030320  91.6009470  49.6885130   4.8125620
  92.6830870  49.0385590   3.9768520 101.7814310  43.1137050  14.4787210
 102.1495130  42.2932260  14.8066780 100.9212510  43.1738940  14.8942860
  99.5934480  53.7899580   2.7208750  99.6946460  53.5863570   1.7910730
  98.6936220  53.5357860   2.9256530  97.1160370  44.3479940   6.7032650
  96.4076520  44.8166280   7.1446260  97.4004850  43.6901950   7.3377840
  98.7416300  45.7676640  14.7025180  99.2401550  46.2422460  15.3677030
  98.8839250  44.8440160  14.9095210 101.1475800  41.0730600   8.1428440
 101.0243580  41.0916730   7.1937950 102.0960360  41.1209540   8.2626840
  98.2352590  56.3085900   7.4156420  98.4894090  56.2707290   6.4935790
  97.2865070  56.1819230   7.4084670  95.3195390  42.6565020   4.0783360
  96.1685920  43.0935170   4.0123550  94.9526660  42.9685280   4.9055420
  94.2186810  48.9097380   2.5518890  94.9850080  48.7978740   3.1144320
  94.2961500  48.2135350   1.8995660  92.9133570  46.3422450   3.2351780
  92.9937160  45.3949960   3.3469180  93.8053320  46.6729330   3.3412440
  93.7148280  56.4917840  10.3386320  94.4510760  55.9433300  10.6094890
  94.0989200  57.3573850  10.1992310  90.5993760  52.5591410   6.2127830
  89.6733540  52.8012550   6.2033240  91.0650190  53.3865670   6.0912580
  92.7206560  55.6763910  19.5271900  93.5219290  55.9975960  19.9407300
  92.2058380  55.3159490  20.2491810 101.5571190  51.7843780  19.4747310
 100.9509350  51.8075380  18.7343060 101.2525300  51.0526820  20.0114560
  90.4404370  48.1637370  18.4707950  90.9443390  47.5844650  19.0424180
  89.7011790  48.4477600  19.0084320  97.4942310  49.5708360  18.0043470
  96.7287980  50.1393360  17.9198140  97.6758270  49.2784570  17.1111700
 100.5830720  49.9471590   2.6296230 100.0340820  50.3940890   3.2738970
 101.2049980  49.4420840   3.1533900  92.4727450  46.3066960  19.3658020
  92.5132790  46.0080830  20.2743250  93.3272950  46.7074570  19.2065540
  96.2505840  48.9062510   4.5261530  96.6722260  48.7402380   5.3692920
  96.3756680  48.0962740   4.0316670  94.4133260  44.8859060  17.3332510
  93.8829720  44.3950010  16.7055850  95.0821330  45.3143260  16.7990440
  94.9005560  41.8521430  17.4129800  94.8062430  41.2342180  16.6880670
  94.3202950  42.5787720  17.1859710  97.6667000  40.4094670  14.4457190
  97.2184300  40.4318930  13.6002740  97.0332200  40.0113690  15.0427490
  98.0726550  49.3049000  15.0669630  98.4914660  50.1481730  14.8945870
  97.1535180  49.4421040  14.8376410 100.4090450  47.0365180  16.4507470
 100.5286660  46.4406320  17.1902310 101.2684450  47.0734870  16.0308770
  95.9233970  55.6102010  16.1827360  95.3855060  56.3348070  15.8636060
  96.1767930  55.1332350  15.3924700  97.1759220  43.5786530  17.7083290
  97.7658910  43.2702380  18.3961110  96.3579460  43.1066280  17.8643190
  98.7796180  56.8453220  16.4414010  98.7054880  57.7488360  16.7486380
  97.8775020  56.5265120  16.4136080  97.1632470  41.0230980   2.4453770
  96.8154470  40.3454970   1.8656220  97.3645240  40.5620490   3.2597160
  99.3281510  56.0111730   4.0640370 100.2232300  56.3496700   4.0859130
  99.3599140  55.2891140   3.4364650  92.9677670  51.3838780   2.2927370
  93.4052540  51.9268450   2.9484950  93.4525400  50.5585730   2.3023710
  90.1823470  54.1727810   9.7447630  90.5126480  53.3048870   9.5126270
  90.6114470  54.3786330  10.5752590  94.7785390  52.5036820   7.4049600
  94.4780930  52.3801790   8.3053510  94.6722880  51.6445410   6.9965330
  90.6713680  55.0398400  12.4829260  90.2344670  55.2199200  13.3153410
  91.2391360  55.7973020  12.3410980  90.5038110  47.5518630   8.8418140
  89.8486950  47.2830270   8.1977840  91.3416060  47.4423110   8.3920120
  91.5414040  47.9371200  13.3821480  91.9087080  47.8498600  14.2617500
  90.9724860  47.1737750  13.2828340  91.0930040  44.8480290  17.2879900
  90.1986090  44.8147050  17.6273610  91.6327590  45.0467080  18.0531150
  89.7176190  44.7617560   4.7843470  88.8140270  45.0247760   4.6095130
  90.2016810  45.0328730   4.0043430  92.2603400  43.8183100   2.6937850
  92.9695100  43.3966320   2.2085130  91.5443340  43.8858330   2.0621200
  91.5969750  39.1228620  11.6363120  92.2445940  38.5726000  11.1958280
  92.0171590  39.3771770  12.4578930  91.3501750  39.2784290  14.3788440
  91.0016570  39.7348110  15.1446620  91.0189450  38.3841420  14.4610870
  92.9566120  52.4503890  18.5441630  92.9135750  52.0796800  19.4256090
  93.0877130  53.3881460  18.6843450  96.6572150  54.0063480  14.1451350
  96.4163510  54.2738040  13.2581870  97.5974790  54.1769210  14.2002210
  98.8626570  40.4696170  17.9007860  98.8015460  41.0618000  18.6503270
  99.8026950  40.3622130  17.7558120 101.5001130  40.1266230  17.5400150
 102.1141540  40.4445520  16.8781230 102.0450690  39.6414820  18.1596010
  92.0222390  38.8060490  17.6539210  92.5705380  38.6248540  16.8905320
  92.0877700  38.0154600  18.1895520  92.7954150  55.3966140  15.6639410
  92.2014470  55.2650840  16.4029450  92.7877990  54.5604280  15.1981510
 102.2409170  38.6898370  13.8669440 101.3669010  39.0233480  13.6642370
 102.1319920  38.2171550  14.6921310  92.4266380  52.7624520  14.6147450
  91.7000440  52.1429810  14.5473400  92.4875530  53.1565130  13.7445530
  96.0311480  54.9769520  11.3996860  96.5476500  54.3656880  10.8745120
  96.6808860  55.4798300  11.8907870  98.7706980  55.8678010  12.2265840
  99.0584790  55.6132310  11.3498850  99.2830200  55.3155370  12.8171410
  99.9883990  39.6068210  12.8062350  99.2055780  40.0813710  13.0859110
  99.6946920  38.7023040  12.6975530  90.7096380  56.0798910   7.8244210
  90.5418420  55.4469590   8.5226100  89.8430890  56.2858310   7.4738400
  91.3324400  39.9115690   5.3276070  92.0903760  40.0244570   4.7540100
  90.8701570  40.7484890   5.2819500  97.8738210  42.0254960   8.3178380
  97.0612720  41.6511850   7.9774260  98.3779850  41.2700040   8.6199570
  92.3159080  54.7732140   5.2694350  91.7906700  55.1540170   4.5656310
  92.2403660  55.3982910   5.9904060  93.7049550  40.4379740   3.8678040
  94.2342310  39.6509540   3.7385990  94.3377870  41.1170930   4.1013570
  95.8987390  40.1754880   6.9223430  95.2690130  39.4742190   7.0893560
  95.3592530  40.9359010   6.7056590  98.8379340  56.7894110  19.5934040
  99.7646650  56.5538380  19.6370000  98.8229770  57.6166110  19.1120070
  96.0242950  39.4538860  19.3575920  95.7427220  39.9572460  18.5936740
  96.4062650  38.6560610  18.9918050  94.9152050  56.7214520   4.1443600
  95.6470870  56.4373800   3.5967490  95.1745720  56.4827800   5.0342980
  94.0766840  52.8379250   4.1489930  93.4475720  53.3064350   4.6975760
  94.1914670  51.9928470   4.5836120 101.5316560  28.1141420  65.3965090
 101.4510610  27.1996030  65.1256800 101.1180980  28.6108490  64.6904800
  99.6634600  29.8920440  67.2774360  98.8876700  29.4120880  67.5672930
 100.3147530  29.2126090  67.1030520  93.6800430  30.2040250  68.1550120
  92.8485310  29.9488960  68.5546630  94.2881410  30.2751020  68.8908040
  93.6601690  34.2380340  68.3508140  93.9629730  33.3478080  68.1718360
  94.4045280  34.7950560  68.1230390  92.0892380  25.1642140  61.9392510
  91.2009080  25.5058110  61.8372390  92.3733570  24.9642460  61.0473340
  90.0525390  27.7647790  67.8232210  90.6241500  26.9969990  67.8235850
  90.0526930  28.0636550  66.9138820  99.9105340  36.5838640  65.6777480
  99.2916780  37.0396140  65.1071920 100.7657120  36.7390100  65.2767180
  99.1043590  32.5677630  67.2844520  99.0351870  31.6267570  67.1233650
  99.8663450  32.6579040  67.8567090  91.2950260  23.1732150  69.6101140
  91.1153100  22.2757900  69.8903900  90.8930340  23.7204020  70.2848090
 100.1348760  25.3748010  67.5113450 100.5113580  24.5019890  67.3987120
 100.0368270  25.7106710  66.6203890  94.2653770  23.7473640  62.9730890
  94.3720520  24.6477370  63.2799650  93.3546130  23.6991610  62.6825540
  91.9136930  25.6692650  68.2183480  92.5947040  25.9331020  68.8370880
  91.5984980  24.8293520  68.5521490  96.1061500  26.7160010  67.3056070
  96.6139720  27.2140980  67.9461090  96.6374740  25.9395210  67.1295430
  94.3897600  21.3558570  71.5719490  94.3916040  21.8730960  70.7665390
  93.5601910  20.8788750  71.5489420 100.7768690  31.4677880  63.0709390
 100.1585960  31.9327330  62.5072110 101.2891940  32.1605360  63.4878900
  95.6400450  30.9953750  69.7492990  95.3069830  31.6222670  70.3914060
  95.8167130  31.5215630  68.9694660  94.0712930  23.0668530  69.5789940
  94.4129740  23.9110580  69.2843810  93.1328740  23.2152270  69.6955280
  94.8519550  32.9634550  71.5642170  95.4693550  33.6385630  71.2826620
  93.9912670  33.3722530  71.4729670  90.1451890  32.1534410  60.4449020
  89.7679870  32.6421510  59.7133920  90.4024960  32.8259690  61.0755550
  97.7540820  20.5550800  65.9034530  98.0615800  19.9997690  65.1870030
  96.8241520  20.6895260  65.7207520 100.1421580  28.6199630  62.6394650
  99.2150860  28.5537010  62.8683120 100.2946400  29.5579760  62.5249890
 100.1290660  24.8916630  59.6361810  99.1894330  25.0530590  59.7214270
 100.4473920  25.6102310  59.0897800  95.7478220  29.1464370  65.4214380
  95.3435220  28.4341620  64.9260280  95.8341340  28.8017610  66.3102420
  96.2159920  32.8331930  67.5853590  95.9188210  32.2277400  66.9061370
  97.1659740  32.8709240  67.4742950  94.4606840  25.9207580  69.2013420
  95.0121430  26.0302920  68.4266670  94.9750350  26.2945180  69.9168650
  95.3078350  32.5713620  74.2361390  94.4106880  32.7953590  74.4834790
  95.3331220  32.6948560  73.2872790  94.1349570  29.4426940  72.8118760
  93.9957340  30.3149740  73.1806160  93.2530930  29.0999750  72.6666700
 100.4578950  34.3602810  64.1183890 100.8974860  35.1027140  63.7039280
 100.3965840  34.6029380  65.0422850  95.9329920  35.3848640  75.0203910
  95.9045350  35.7891590  74.1532340  95.7694890  34.4559000  74.8575510
  92.4482850  28.0409350  62.9221030  92.3280450  28.7671440  62.3102300
  92.1383740  27.2712260  62.4448940  90.0868220  31.2124490  68.7289670
  90.1648640  31.3473260  67.7845390  90.7009900  30.5040380  68.9217790
  91.3315850  32.9124680  65.1395850  90.9243930  33.0539270  64.2849450
  92.2228860  32.6284840  64.9367060 101.1494730  37.0616590  72.0462900
 101.6639400  36.9724600  72.8485330 100.3063810  37.4076290  72.3390810
  95.6037510  37.1270460  63.2518520  95.4279990  36.2106000  63.0386320
  94.7493250  37.4857750  63.4916320  90.1427740  32.2538660  71.2684130
  90.3058780  31.7844020  70.4503500  90.6080190  31.7462220  71.9332970
  94.9146510  21.3844420  66.3044700  94.4714660  22.1653960  65.9729220
  95.4731500  21.7074310  67.0115640  99.2016320  24.2512940  71.9080020
  98.7395690  24.4595960  72.7199960  98.7994430  23.4372290  71.6050690
 101.2970540  26.9723640  75.1375470 101.6223950  26.1387390  74.7977700
 102.0850870  27.4952160  75.2853800  98.0305330  21.0055120  61.1850530
  97.4059510  21.0014990  61.9103840  97.9435450  20.1386080  60.7886500
  96.9522410  21.9291750  68.1634300  97.2494740  22.8354580  68.0826320
  97.5007970  21.4410530  67.5493870  94.7060730  26.5077990  64.0325950
  94.4801650  26.2915160  64.9372570  93.9253260  26.9406450  63.6871920
 101.9358490  26.5141360  62.6316600 101.3367380  27.2377160  62.4480220
 102.4838100  26.4518140  61.8493050  97.1459940  27.4063570  74.6986220
  97.0503540  26.4658300  74.5486620  97.9891920  27.6278640  74.3034290
 100.5423360  25.1504900  64.6619880 100.9352930  25.4677100  63.8488570
 100.9040210  24.2716780  64.7764400  92.2770480  23.8177240  72.8520000
  91.8833870  24.6652450  73.0592780  91.5888880  23.1803610  73.0428640
  89.5787530  21.7405700  66.8850080  89.2900580  22.3108560  67.5975060
  90.3233290  21.2610150  67.2481310  89.7657760  25.6825820  58.0952800
  89.6832430  26.6256580  58.2367790  89.4140820  25.5400730  57.2165150
 101.1278500  27.7410650  68.7570660 100.3959620  28.2497460  69.1060760
 100.7302840  26.9240630  68.4559440  97.5655890  24.4164850  67.1623150
  97.5691950  23.9754800  66.3127690  98.4607010  24.7382180  67.2694970
  93.4158270  24.2991340  66.1217360  93.0758320  24.7766570  66.8784410
  92.6535590  23.8456460  65.7618460  97.6276040  25.4176930  60.1529910
  97.7488860  25.3763410  61.1015730  97.2424550  26.2801080  59.9976640
 101.5904410  23.1944330  68.1693600 101.6077150  23.6452980  69.0135450
 101.3419990  22.2949970  68.3827040  96.6397540  27.7278070  59.5513210
  96.0714440  27.2796320  58.9249120  97.3486540  28.0870850  59.0178360
  91.7166720  31.6290090  73.4279940  91.3321510  30.9883760  74.0262900
  92.0278910  32.3326210  73.9974670  97.8663860  28.4766630  68.9088560
  98.2333990  28.0025200  69.6549900  97.6768920  29.3508200  69.2496900
  90.7304350  23.2210320  65.0382030  90.4451270  22.8565990  65.8760650
  90.6683210  22.4890780  64.4245170  95.6563230  27.5175270  71.2272770
  95.3520300  28.3967250  71.4523130  96.6109690  27.5775060  71.2630210
  94.1845020  31.7236260  61.8239620  93.4107280  31.1833880  61.6638340
  94.9139650  31.2042870  61.4857380 100.4042940  22.1139580  61.7595400
  99.5907550  21.6152750  61.6840710 100.2104890  22.9537830  61.3431750
 100.3251800  30.7910680  73.5035010 100.2589110  29.8706350  73.2492600
  99.6956940  30.8886120  74.2179650  94.2282420  31.3916640  65.4618430
  94.7461090  30.5884900  65.4075320  93.7766440  31.3295780  66.3035260
  99.1151920  32.6582920  60.7345730  99.4567620  33.4025150  60.2389050
  98.2864630  32.9714040  61.0970560  91.7126960  28.3578010  72.3744130
  91.3541900  29.0231860  72.9617470  91.4181520  27.5261560  72.7456750
  94.9140080  28.8162250  75.2583680  94.6140220  28.9619430  74.3611500
  95.6851320  28.2567540  75.1657070 100.2568530  33.6131250  73.2538810
 100.2713070  32.6812210  73.0357720  99.5493630  33.6991010  73.8928580
 101.9979330  31.9798760  66.0991240 102.3503150  31.3826890  65.4392610
 101.1141660  31.6542990  66.2699490  98.0842610  32.7396450  63.5061650
  98.7713740  33.2865660  63.8869240  97.2975030  33.2837180  63.5411260
  90.2235010  28.3569270  58.9978730  91.0929860  28.6394070  59.2814650
  89.7325330  29.1705140  58.8827540  97.3869820  29.7442480  63.1187010
  97.8432600  30.5547730  63.3447200  97.0358030  29.4265620  63.9505500
  99.6902430  35.2548820  70.3479310 100.3344650  35.4608200  71.0252730
 100.0531870  34.4937220  69.8950160  93.2881600  20.0880130  63.5909530
  93.1596230  20.0798030  64.5394450  92.4643620  20.4263220  63.2400540
 100.9634510  33.2581170  69.0656760 101.6056740  32.5574330  69.1788930
 101.4883860  34.0379610  68.8853650  90.5906260  37.5696650  59.5640360
  90.9503900  38.1685990  58.9097630  90.4498600  38.1156540  60.3375390
  90.2875530  21.8471250  73.0516230  89.5734050  22.0468170  73.6568840
  90.7070570  21.0710820  73.4231030  90.5748120  35.8351510  74.0382760
  90.6839240  34.8946250  73.8978150  89.9228680  36.1006260  73.3896490
  98.5660710  34.1067400  75.4380880  98.2457580  33.3876640  75.9826570
  97.8919070  34.7822470  75.5116940  96.6074880  34.9527850  60.3814030
  96.5984980  35.6857540  59.7658540  95.6873240  34.7059430  60.4740990
  92.2081520  30.1742740  61.1260790  91.6009470  30.9141640  61.1356090
  92.6830870  30.2642100  60.2998990 101.7814310  24.3393560  70.8017680
 102.1495130  23.5188770  71.1297250 100.9212510  24.3995450  71.2173330
  99.5934480  35.0156090  59.0439220  99.6946460  34.8120080  58.1141200
  98.6936220  34.7614370  59.2487000  97.1160370  25.5736450  63.0263120
  96.4076520  26.0422790  63.4676730  97.4004850  24.9158460  63.6608310
  98.7416300  26.9933150  71.0255650  99.2401550  27.4678970  71.6907500
  98.8839250  26.0696670  71.2325680 101.1475800  22.2987110  64.4658910
 101.0243580  22.3173240  63.5168420 102.0960360  22.3466050  64.5857310
  98.2352590  37.5342410  63.7386890  98.4894090  37.4963800  62.8166260
  97.2865070  37.4075740  63.7315140  95.3195390  23.8821530  60.4013830
  96.1685920  24.3191680  60.3354020  94.9526660  24.1941790  61.2285890
  94.2186810  30.1353890  58.8749360  94.9850080  30.0235250  59.4374790
  94.2961500  29.4391860  58.2226130  92.9133570  27.5678960  59.5582250
  92.9937160  26.6206470  59.6699650  93.8053320  27.8985840  59.6642910
  93.7148280  37.7174350  66.6616790  94.4510760  37.1689810  66.9325360
  94.0989200  38.5830360  66.5222780  90.5993760  33.7847920  62.5358300
  89.6733540  34.0269060  62.5263710  91.0650190  34.6122180  62.4143050
  96.8250590  36.8904660  58.4842360  97.6179200  37.1793490  58.0324150
  96.3054940  36.4596830  57.8054840  90.4404370  29.3893880  74.7938420
  90.9443390  28.8101160  75.3654650  89.7011790  29.6734110  75.3314790
  97.3427990  32.1108070  58.3484710  97.2378630  31.4960420  59.0746090
  97.1752210  31.5873960  57.5647720  97.4942310  30.7964870  74.3273940
  96.7287980  31.3649870  74.2428610  97.6758270  30.5041080  73.4342170
 100.5830720  31.1728100  58.9526700 100.0340820  31.6197400  59.5969440
 101.2049980  30.6677350  59.4764370  96.2505840  30.1319020  60.8492000
  96.6722260  29.9658890  61.6923390  96.3756680  29.3219250  60.3547140
  94.4133260  26.1115570  73.6562980  93.8829720  25.6206520  73.0286320
  95.0821330  26.5399770  73.1220910  98.7633480  29.1556630  58.0969100
  99.2839140  28.4405650  57.7310250  99.4101880  29.7942500  58.3969610
  94.9005560  23.0777940  73.7360270  94.8062430  22.4598690  73.0111140
  94.3202950  23.8044230  73.5090180  97.6667000  21.6351180  70.7687660
  97.2184300  21.6575440  69.9233210  97.0332200  21.2370200  71.3657960
  98.0726550  30.5305510  71.3900100  98.4914660  31.3738240  71.2176340
  97.1535180  30.6677550  71.1606880 100.4090450  28.2621690  72.7737940
 100.5286660  27.6662830  73.5132780 101.2684450  28.2991380  72.3539240
  95.1464740  26.2052250  57.7950160  94.9453800  25.3419610  58.1563500
  94.9756790  26.1185610  56.8571760  95.9233970  36.8358520  72.5057830
  95.3855060  37.5604580  72.1866530  96.1767930  36.3588860  71.7155170
  97.1759220  24.8043040  74.0313760  97.7658910  24.4958890  74.7191580
  96.3579460  24.3322790  74.1873660  93.9447540  23.3052870  57.7828040
  94.2473440  23.3120300  56.8747190  94.6842130  22.9550730  58.2795700
  98.7796180  38.0709730  72.7644480  98.7054880  38.9744870  73.0716850
  97.8775020  37.7521630  72.7366550  97.1632470  22.2487490  58.7684240
  96.8154470  21.5711480  58.1886690  97.3645240  21.7877000  59.5827630
  99.3281510  37.2368240  60.3870840 100.2232300  37.5753210  60.4089600
  99.3599140  36.5147650  59.7595120  92.9677670  32.6095290  58.6157840
  93.4052540  33.1524960  59.2715420  93.4525400  31.7842240  58.6254180
  90.1823470  35.3984320  66.0678100  90.5126480  34.5305380  65.8356740
  90.6114470  35.6042840  66.8983060  94.7785390  33.7293330  63.7280070
  94.4780930  33.6058300  64.6283980  94.6722880  32.8701920  63.3195800
  90.6713680  36.2654910  68.8059730  90.2344670  36.4455710  69.6383880
  91.2391360  37.0229530  68.6641450  90.5038110  28.7775140  65.1648610
  89.8486950  28.5086780  64.5208310  91.3416060  28.6679620  64.7150590
  91.5414040  29.1627710  69.7051950  91.9087080  29.0755110  70.5847970
  90.9724860  28.3994260  69.6058810  91.0930040  26.0736800  73.6110370
  90.1986090  26.0403560  73.9504080  91.6327590  26.2723590  74.3761620
  89.7176190  25.9874070  61.1073940  88.8140270  26.2504270  60.9325600
  90.2016810  26.2585240  60.3273900  92.2603400  25.0439610  59.0168320
  92.9695100  24.6222830  58.5315600  91.5443340  25.1114840  58.3851670
  91.9077560  21.0978940  58.0570970  92.6305690  21.6387880  58.3752190
  92.1802080  20.8242360  57.1812510  91.5969750  20.3485130  67.9593590
  92.2445940  19.7982510  67.5188750  92.0171590  20.6028280  68.7809400
  91.3501750  20.5040800  70.7018910  91.0016570  20.9604620  71.4677090
  91.0189450  19.6097930  70.7841340  92.9566120  33.6760400  74.8672100
  92.9135750  33.3053310  75.7486560  93.0877130  34.6137970  75.0073920
  96.6572150  35.2319990  70.4681820  96.4163510  35.4994550  69.5812340
  97.5974790  35.4025720  70.5232680  98.8626570  21.6952680  74.2238330
  98.8015460  22.2874510  74.9733740  99.8026950  21.5878640  74.0788590
 101.5001130  21.3522740  73.8630620 102.1141540  21.6702030  73.2011700
 102.0450690  20.8671330  74.4826480  92.0222390  20.0317000  73.9769680
  92.5705380  19.8505050  73.2135790  92.0877700  19.2411110  74.5125990
  92.7954150  36.6222650  71.9869880  92.2014470  36.4907350  72.7259920
  92.7877990  35.7860790  71.5211980 102.2409170  19.9154880  70.1899910
 101.3669010  20.2489990  69.9872840 102.1319920  19.4428060  71.0151780
  92.4266380  33.9881030  70.9377920  91.7000440  33.3686320  70.8703870
  92.4875530  34.3821640  70.0676000  96.0311480  36.2026030  67.7227330
  96.5476500  35.5913390  67.1975590  96.6808860  36.7054810  68.2138340
  98.7706980  37.0934520  68.5496310  99.0584790  36.8388820  67.6729320
  99.2830200  36.5411880  69.1401880  99.9883990  20.8324720  69.1292820
  99.2055780  21.3070220  69.4089580  99.6946920  19.9279550  69.0206000
  90.7096380  37.3055420  64.1474680  90.5418420  36.6726100  64.8456570
  89.8430890  37.5114820  63.7968870  91.3324400  21.1372200  61.6506540
  92.0903760  21.2501080  61.0770570  90.8701570  21.9741400  61.6049970
  97.8738210  23.2511470  64.6408850  97.0612720  22.8768360  64.3004730
  98.3779850  22.4956550  64.9430040  92.3159080  35.9988650  61.5924820
  91.7906700  36.3796680  60.8886780  92.2403660  36.6239420  62.3134530
  93.7049550  21.6636250  60.1908510  94.2342310  20.8766050  60.0616460
  94.3377870  22.3427440  60.4244040  95.8987390  21.4011390  63.2453900
  95.2690130  20.6998700  63.4124030  95.3592530  22.1615520  63.0287060
  98.8379340  38.0150620  75.9164510  99.7646650  37.7794890  75.9600470
  98.8229770  38.8422620  75.4350540  96.0242950  20.6795370  75.6806390
  95.7427220  21.1828970  74.9167210  96.4062650  19.8817120  75.3148520
  94.9152050  37.9471030  60.4674070  95.6470870  37.6630310  59.9197960
  95.1745720  37.7084310  61.3573450  94.0766840  34.0635760  60.4720400
  93.4475720  34.5320860  61.0206230  94.1914670  33.2184980  60.9066590
 101.5316560  28.1141420  46.6221600 101.4510610  27.1996030  46.3513310
 101.1180980  28.6108490  45.9161310  99.6634600  29.8920440  48.5030870
  98.8876700  29.4120880  48.7929440 100.3147530  29.2126090  48.3287030
  93.6800430  30.2040250  49.3806630  92.8485310  29.9488960  49.7803140
  94.2881410  30.2751020  50.1164550  93.6601690  34.2380340  49.5764650
  93.9629730  33.3478080  49.3974870  94.4045280  34.7950560  49.3486900
  92.0892380  25.1642140  43.1649020  91.2009080  25.5058110  43.0628900
  92.3733570  24.9642460  42.2729850  90.0525390  27.7647790  49.0488720
  90.6241500  26.9969990  49.0492360  90.0526930  28.0636550  48.1395330
  99.9105340  36.5838640  46.9033990  99.2916780  37.0396140  46.3328430
 100.7657120  36.7390100  46.5023690  99.1043590  32.5677630  48.5101030
  99.0351870  31.6267570  48.3490160  99.8663450  32.6579040  49.0823600
  91.2950260  23.1732150  50.8357650  91.1153100  22.2757900  51.1160410
  90.8930340  23.7204020  51.5104600 100.1348760  25.3748010  48.7369960
 100.5113580  24.5019890  48.6243630 100.0368270  25.7106710  47.8460400
  94.2653770  23.7473640  44.1987400  94.3720520  24.6477370  44.5056160
  93.3546130  23.6991610  43.9082050  91.9136930  25.6692650  49.4439990
  92.5947040  25.9331020  50.0627390  91.5984980  24.8293520  49.7778000
  96.1061500  26.7160010  48.5312580  96.6139720  27.2140980  49.1717600
  96.6374740  25.9395210  48.3551940  94.3897600  21.3558570  52.7976000
  94.3916040  21.8730960  51.9921900  93.5601910  20.8788750  52.7745930
 100.7768690  31.4677880  44.2965900 100.1585960  31.9327330  43.7328620
 101.2891940  32.1605360  44.7135410  95.6400450  30.9953750  50.9749500
  95.3069830  31.6222670  51.6170570  95.8167130  31.5215630  50.1951170
  94.0712930  23.0668530  50.8046450  94.4129740  23.9110580  50.5100320
  93.1328740  23.2152270  50.9211790  94.8519550  32.9634550  52.7898680
  95.4693550  33.6385630  52.5083130  93.9912670  33.3722530  52.6986180
  90.1451890  32.1534410  41.6705530  89.7679870  32.6421510  40.9390430
  90.4024960  32.8259690  42.3012060  97.7540820  20.5550800  47.1291040
  98.0615800  19.9997690  46.4126540  96.8241520  20.6895260  46.9464030
 100.1421580  28.6199630  43.8651160  99.2150860  28.5537010  44.0939630
 100.2946400  29.5579760  43.7506400 100.1290660  24.8916630  40.8618320
  99.1894330  25.0530590  40.9470780 100.4473920  25.6102310  40.3154310
  95.7478220  29.1464370  46.6470890  95.3435220  28.4341620  46.1516790
  95.8341340  28.8017610  47.5358930  96.2159920  32.8331930  48.8110100
  95.9188210  32.2277400  48.1317880  97.1659740  32.8709240  48.6999460
  94.4606840  25.9207580  50.4269930  95.0121430  26.0302920  49.6523180
  94.9750350  26.2945180  51.1425160  95.3078350  32.5713620  55.4617900
  94.4106880  32.7953590  55.7091300  95.3331220  32.6948560  54.5129300
  94.1349570  29.4426940  54.0375270  93.9957340  30.3149740  54.4062670
  93.2530930  29.0999750  53.8923210 100.4578950  34.3602810  45.3440400
 100.8974860  35.1027140  44.9295790 100.3965840  34.6029380  46.2679360
  95.9329920  35.3848640  56.2460420  95.9045350  35.7891590  55.3788850
  95.7694890  34.4559000  56.0832020  92.4482850  28.0409350  44.1477540
  92.3280450  28.7671440  43.5358810  92.1383740  27.2712260  43.6705450
  90.0868220  31.2124490  49.9546180  90.1648640  31.3473260  49.0101900
  90.7009900  30.5040380  50.1474300  91.3315850  32.9124680  46.3652360
  90.9243930  33.0539270  45.5105960  92.2228860  32.6284840  46.1623570
 101.1494730  37.0616590  53.2719410 101.6639400  36.9724600  54.0741840
 100.3063810  37.4076290  53.5647320  95.6037510  37.1270460  44.4775030
  95.4279990  36.2106000  44.2642830  94.7493250  37.4857750  44.7172830
  90.1427740  32.2538660  52.4940640  90.3058780  31.7844020  51.6760010
  90.6080190  31.7462220  53.1589480  94.9146510  21.3844420  47.5301210
  94.4714660  22.1653960  47.1985730  95.4731500  21.7074310  48.2372150
  99.2016320  24.2512940  53.1336530  98.7395690  24.4595960  53.9456470
  98.7994430  23.4372290  52.8307200 101.2970540  26.9723640  56.3631980
 101.6223950  26.1387390  56.0234210 102.0850870  27.4952160  56.5110310
  98.0305330  21.0055120  42.4107040  97.4059510  21.0014990  43.1360350
  97.9435450  20.1386080  42.0143010  96.9522410  21.9291750  49.3890810
  97.2494740  22.8354580  49.3082830  97.5007970  21.4410530  48.7750380
  94.7060730  26.5077990  45.2582460  94.4801650  26.2915160  46.1629080
  93.9253260  26.9406450  44.9128430 101.9358490  26.5141360  43.8573110
 101.3367380  27.2377160  43.6736730 102.4838100  26.4518140  43.0749560
  97.1459940  27.4063570  55.9242730  97.0503540  26.4658300  55.7743130
  97.9891920  27.6278640  55.5290800 100.5423360  25.1504900  45.8876390
 100.9352930  25.4677100  45.0745080 100.9040210  24.2716780  46.0020910
  92.2770480  23.8177240  54.0776510  91.8833870  24.6652450  54.2849290
  91.5888880  23.1803610  54.2685150  98.8515530  23.9012210  57.1473250
  98.1613850  23.7084410  57.7819340  99.5947830  24.1846850  57.6797550
  89.5787530  21.7405700  48.1106590  89.2900580  22.3108560  48.8231570
  90.3233290  21.2610150  48.4737820  89.7657760  25.6825820  39.3209310
  89.6832430  26.6256580  39.4624300  89.4140820  25.5400730  38.4421660
 101.1278500  27.7410650  49.9827170 100.3959620  28.2497460  50.3317270
 100.7302840  26.9240630  49.6815950  97.5655890  24.4164850  48.3879660
  97.5691950  23.9754800  47.5384200  98.4607010  24.7382180  48.4951480
  93.4158270  24.2991340  47.3473870  93.0758320  24.7766570  48.1040920
  92.6535590  23.8456460  46.9874970  97.6276040  25.4176930  41.3786420
  97.7488860  25.3763410  42.3272240  97.2424550  26.2801080  41.2233150
 101.5904410  23.1944330  49.3950110 101.6077150  23.6452980  50.2391960
 101.3419990  22.2949970  49.6083550  96.6397540  27.7278070  40.7769720
  96.0714440  27.2796320  40.1505630  97.3486540  28.0870850  40.2434870
  91.7166720  31.6290090  54.6536450  91.3321510  30.9883760  55.2519410
  92.0278910  32.3326210  55.2231180  97.8663860  28.4766630  50.1345070
  98.2333990  28.0025200  50.8806410  97.6768920  29.3508200  50.4753410
  90.7304350  23.2210320  46.2638540  90.4451270  22.8565990  47.1017160
  90.6683210  22.4890780  45.6501680  95.6563230  27.5175270  52.4529280
  95.3520300  28.3967250  52.6779640  96.6109690  27.5775060  52.4886720
  94.1845020  31.7236260  43.0496130  93.4107280  31.1833880  42.8894850
  94.9139650  31.2042870  42.7113890 100.4042940  22.1139580  42.9851910
  99.5907550  21.6152750  42.9097220 100.2104890  22.9537830  42.5688260
 100.3251800  30.7910680  54.7291520 100.2589110  29.8706350  54.4749110
  99.6956940  30.8886120  55.4436160  94.2282420  31.3916640  46.6874940
  94.7461090  30.5884900  46.6331830  93.7766440  31.3295780  47.5291770
  99.1151920  32.6582920  41.9602240  99.4567620  33.4025150  41.4645560
  98.2864630  32.9714040  42.3227070  91.7126960  28.3578010  53.6000640
  91.3541900  29.0231860  54.1873980  91.4181520  27.5261560  53.9713260
  94.9140080  28.8162250  56.4840190  94.6140220  28.9619430  55.5868010
  95.6851320  28.2567540  56.3913580 100.2568530  33.6131250  54.4795320
 100.2713070  32.6812210  54.2614230  99.5493630  33.6991010  55.1185090
 101.9979330  31.9798760  47.3247750 102.3503150  31.3826890  46.6649120
 101.1141660  31.6542990  47.4956000  98.0842610  32.7396450  44.7318160
  98.7713740  33.2865660  45.1125750  97.2975030  33.2837180  44.7667770
  90.2235010  28.3569270  40.2235240  91.0929860  28.6394070  40.5071160
  89.7325330  29.1705140  40.1084050  97.3869820  29.7442480  44.3443520
  97.8432600  30.5547730  44.5703710  97.0358030  29.4265620  45.1762010
  99.6902430  35.2548820  51.5735820 100.3344650  35.4608200  52.2509240
 100.0531870  34.4937220  51.1206670  93.2881600  20.0880130  44.8166040
  93.1596230  20.0798030  45.7650960  92.4643620  20.4263220  44.4657050
 100.9634510  33.2581170  50.2913270 101.6056740  32.5574330  50.4045440
 101.4883860  34.0379610  50.1110160  90.5906260  37.5696650  40.7896870
  90.9503900  38.1685990  40.1354140  90.4498600  38.1156540  41.5631900
  90.2875530  21.8471250  54.2772740  89.5734050  22.0468170  54.8825350
  90.7070570  21.0710820  54.6487540  90.5748120  35.8351510  55.2639270
  90.6839240  34.8946250  55.1234660  89.9228680  36.1006260  54.6153000
  98.5660710  34.1067400  56.6637390  98.2457580  33.3876640  57.2083080
  97.8919070  34.7822470  56.7373450  96.6074880  34.9527850  41.6070540
  96.5984980  35.6857540  40.9915050  95.6873240  34.7059430  41.6997500
  92.2081520  30.1742740  42.3517300  91.6009470  30.9141640  42.3612600
  92.6830870  30.2642100  41.5255500 101.7814310  24.3393560  52.0274190
 102.1495130  23.5188770  52.3553760 100.9212510  24.3995450  52.4429840
  99.5934480  35.0156090  40.2695730  99.6946460  34.8120080  39.3397710
  98.6936220  34.7614370  40.4743510  97.1160370  25.5736450  44.2519630
  96.4076520  26.0422790  44.6933240  97.4004850  24.9158460  44.8864820
  98.7416300  26.9933150  52.2512160  99.2401550  27.4678970  52.9164010
  98.8839250  26.0696670  52.4582190 101.1475800  22.2987110  45.6915420
 101.0243580  22.3173240  44.7424930 102.0960360  22.3466050  45.8113820
  98.2352590  37.5342410  44.9643400  98.4894090  37.4963800  44.0422770
  97.2865070  37.4075740  44.9571650  95.3195390  23.8821530  41.6270340
  96.1685920  24.3191680  41.5610530  94.9526660  24.1941790  42.4542400
  94.2186810  30.1353890  40.1005870  94.9850080  30.0235250  40.6631300
  94.2961500  29.4391860  39.4482640  92.9133570  27.5678960  40.7838760
  92.9937160  26.6206470  40.8956160  93.8053320  27.8985840  40.8899420
  93.7148280  37.7174350  47.8873300  94.4510760  37.1689810  48.1581870
  94.0989200  38.5830360  47.7479290  90.5993760  33.7847920  43.7614810
  89.6733540  34.0269060  43.7520220  91.0650190  34.6122180  43.6399560
  92.7206560  36.9020420  57.0758880  93.5219290  37.2232470  57.4894280
  92.2058380  36.5416000  57.7978790  96.8250590  36.8904660  39.7098870
  97.6179200  37.1793490  39.2580660  96.3054940  36.4596830  39.0311350
 101.5571190  33.0100290  57.0234290 100.9509350  33.0331890  56.2830040
 101.2525300  32.2783330  57.5601540  90.4404370  29.3893880  56.0194930
  90.9443390  28.8101160  56.5911160  89.7011790  29.6734110  56.5571300
  97.3427990  32.1108070  39.5741220  97.2378630  31.4960420  40.3002600
  97.1752210  31.5873960  38.7904230  97.4942310  30.7964870  55.5530450
  96.7287980  31.3649870  55.4685120  97.6758270  30.5041080  54.6598680
 100.5830720  31.1728100  40.1783210 100.0340820  31.6197400  40.8225950
 101.2049980  30.6677350  40.7020880  92.4727450  27.5323470  56.9145000
  92.5132790  27.2337340  57.8230230  93.3272950  27.9331080  56.7552520
  96.2505840  30.1319020  42.0748510  96.6722260  29.9658890  42.9179900
  96.3756680  29.3219250  41.5803650  94.4133260  26.1115570  54.8819490
  93.8829720  25.6206520  54.2542830  95.0821330  26.5399770  54.3477420
  98.7633480  29.1556630  39.3225610  99.2839140  28.4405650  38.9566760
  99.4101880  29.7942500  39.6226120  94.9005560  23.0777940  54.9616780
  94.8062430  22.4598690  54.2367650  94.3202950  23.8044230  54.7346690
  97.6667000  21.6351180  51.9944170  97.2184300  21.6575440  51.1489720
  97.0332200  21.2370200  52.5914470  98.0726550  30.5305510  52.6156610
  98.4914660  31.3738240  52.4432850  97.1535180  30.6677550  52.3863390
 100.4090450  28.2621690  53.9994450 100.5286660  27.6662830  54.7389290
 101.2684450  28.2991380  53.5795750  95.1464740  26.2052250  39.0206670
  94.9453800  25.3419610  39.3820010  94.9756790  26.1185610  38.0828270
  95.9233970  36.8358520  53.7314340  95.3855060  37.5604580  53.4123040
  96.1767930  36.3588860  52.9411680  97.1759220  24.8043040  55.2570270
  97.7658910  24.4958890  55.9448090  96.3579460  24.3322790  55.4130170
  93.9447540  23.3052870  39.0084550  94.2473440  23.3120300  38.1003700
  94.6842130  22.9550730  39.5052210  98.7796180  38.0709730  53.9900990
  98.7054880  38.9744870  54.2973360  97.8775020  37.7521630  53.9623060
  97.1632470  22.2487490  39.9940750  96.8154470  21.5711480  39.4143200
  97.3645240  21.7877000  40.8084140  99.3281510  37.2368240  41.6127350
 100.2232300  37.5753210  41.6346110  99.3599140  36.5147650  40.9851630
  92.9677670  32.6095290  39.8414350  93.4052540  33.1524960  40.4971930
  93.4525400  31.7842240  39.8510690  90.1823470  35.3984320  47.2934610
  90.5126480  34.5305380  47.0613250  90.6114470  35.6042840  48.1239570
  94.7785390  33.7293330  44.9536580  94.4780930  33.6058300  45.8540490
  94.6722880  32.8701920  44.5452310  90.6713680  36.2654910  50.0316240
  90.2344670  36.4455710  50.8640390  91.2391360  37.0229530  49.8897960
  90.5038110  28.7775140  46.3905120  89.8486950  28.5086780  45.7464820
  91.3416060  28.6679620  45.9407100  91.5414040  29.1627710  50.9308460
  91.9087080  29.0755110  51.8104480  90.9724860  28.3994260  50.8315320
  91.0930040  26.0736800  54.8366880  90.1986090  26.0403560  55.1760590
  91.6327590  26.2723590  55.6018130  89.7176190  25.9874070  42.3330450
  88.8140270  26.2504270  42.1582110  90.2016810  26.2585240  41.5530410
  92.2603400  25.0439610  40.2424830  92.9695100  24.6222830  39.7572110
  91.5443340  25.1114840  39.6108180  91.9077560  21.0978940  39.2827480
  92.6305690  21.6387880  39.6008700  92.1802080  20.8242360  38.4069020
  91.5969750  20.3485130  49.1850100  92.2445940  19.7982510  48.7445260
  92.0171590  20.6028280  50.0065910  91.3501750  20.5040800  51.9275420
  91.0016570  20.9604620  52.6933600  91.0189450  19.6097930  52.0097850
  92.9566120  33.6760400  56.0928610  92.9135750  33.3053310  56.9743070
  93.0877130  34.6137970  56.2330430  96.6572150  35.2319990  51.6938330
  96.4163510  35.4994550  50.8068850  97.5974790  35.4025720  51.7489190
  98.8626570  21.6952680  55.4494840  98.8015460  22.2874510  56.1990250
  99.8026950  21.5878640  55.3045100 101.5001130  21.3522740  55.0887130
 102.1141540  21.6702030  54.4268210 102.0450690  20.8671330  55.7082990
  92.0222390  20.0317000  55.2026190  92.5705380  19.8505050  54.4392300
  92.0877700  19.2411110  55.7382500  92.7954150  36.6222650  53.2126390
  92.2014470  36.4907350  53.9516430  92.7877990  35.7860790  52.7468490
 102.2409170  19.9154880  51.4156420 101.3669010  20.2489990  51.2129350
 102.1319920  19.4428060  52.2408290  92.4266380  33.9881030  52.1634430
  91.7000440  33.3686320  52.0960380  92.4875530  34.3821640  51.2932510
  96.0311480  36.2026030  48.9483840  96.5476500  35.5913390  48.4232100
  96.6808860  36.7054810  49.4394850  98.7706980  37.0934520  49.7752820
  99.0584790  36.8388820  48.8985830  99.2830200  36.5411880  50.3658390
  99.9883990  20.8324720  50.3549330  99.2055780  21.3070220  50.6346090
  99.6946920  19.9279550  50.2462510  90.7096380  37.3055420  45.3731190
  90.5418420  36.6726100  46.0713080  89.8430890  37.5114820  45.0225380
  91.3324400  21.1372200  42.8763050  92.0903760  21.2501080  42.3027080
  90.8701570  21.9741400  42.8306480  97.8738210  23.2511470  45.8665360
  97.0612720  22.8768360  45.5261240  98.3779850  22.4956550  46.1686550
  92.3159080  35.9988650  42.8181330  91.7906700  36.3796680  42.1143290
  92.2403660  36.6239420  43.5391040  93.7049550  21.6636250  41.4165020
  94.2342310  20.8766050  41.2872970  94.3377870  22.3427440  41.6500550
  95.8987390  21.4011390  44.4710410  95.2690130  20.6998700  44.6380540
  95.3592530  22.1615520  44.2543570  98.8379340  38.0150620  57.1421020
  99.7646650  37.7794890  57.1856980  98.8229770  38.8422620  56.6607050
  96.0242950  20.6795370  56.9062900  95.7427220  21.1828970  56.1423720
  96.4062650  19.8817120  56.5405030  94.9152050  37.9471030  41.6930580
  95.6470870  37.6630310  41.1454470  95.1745720  37.7084310  42.5829960
  94.0766840  34.0635760  41.6976910  93.4475720  34.5320860  42.2462740
  94.1914670  33.2184980  42.1323100 101.5316560  28.1141420  27.8478110
 101.4510610  27.1996030  27.5769820 101.1180980  28.6108490  27.1417820
  99.6634600  29.8920440  29.7287380  98.8876700  29.4120880  30.0185950
 100.3147530  29.2126090  29.5543540  93.6800430  30.2040250  30.6063140
  92.8485310  29.9488960  31.0059650  94.2881410  30.2751020  31.3421060
  93.6601690  34.2380340  30.8021160  93.9629730  33.3478080  30.6231380
  94.4045280  34.7950560  30.5743410  92.0892380  25.1642140  24.3905530
  91.2009080  25.5058110  24.2885410  92.3733570  24.9642460  23.4986360
  90.0525390  27.7647790  30.2745230  90.6241500  26.9969990  30.2748870
  90.0526930  28.0636550  29.3651840  99.9105340  36.5838640  28.1290500
  99.2916780  37.0396140  27.5584940 100.7657120  36.7390100  27.7280200
  99.1043590  32.5677630  29.7357540  99.0351870  31.6267570  29.5746670
  99.8663450  32.6579040  30.3080110  91.2950260  23.1732150  32.0614160
  91.1153100  22.2757900  32.3416920  90.8930340  23.7204020  32.7361110
 100.1348760  25.3748010  29.9626470 100.5113580  24.5019890  29.8500140
 100.0368270  25.7106710  29.0716910  94.2653770  23.7473640  25.4243910
  94.3720520  24.6477370  25.7312670  93.3546130  23.6991610  25.1338560
  91.9136930  25.6692650  30.6696500  92.5947040  25.9331020  31.2883900
  91.5984980  24.8293520  31.0034510  96.1061500  26.7160010  29.7569090
  96.6139720  27.2140980  30.3974110  96.6374740  25.9395210  29.5808450
  94.3897600  21.3558570  34.0232510  94.3916040  21.8730960  33.2178410
  93.5601910  20.8788750  34.0002440 100.7768690  31.4677880  25.5222410
 100.1585960  31.9327330  24.9585130 101.2891940  32.1605360  25.9391920
  95.6400450  30.9953750  32.2006010  95.3069830  31.6222670  32.8427080
  95.8167130  31.5215630  31.4207680  94.0712930  23.0668530  32.0302960
  94.4129740  23.9110580  31.7356830  93.1328740  23.2152270  32.1468300
  94.8519550  32.9634550  34.0155190  95.4693550  33.6385630  33.7339640
  93.9912670  33.3722530  33.9242690  90.1451890  32.1534410  22.8962040
  89.7679870  32.6421510  22.1646940  90.4024960  32.8259690  23.5268570
  97.7540820  20.5550800  28.3547550  98.0615800  19.9997690  27.6383050
  96.8241520  20.6895260  28.1720540 100.1421580  28.6199630  25.0907670
  99.2150860  28.5537010  25.3196140 100.2946400  29.5579760  24.9762910
 100.1290660  24.8916630  22.0874830  99.1894330  25.0530590  22.1727290
 100.4473920  25.6102310  21.5410820  95.7478220  29.1464370  27.8727400
  95.3435220  28.4341620  27.3773300  95.8341340  28.8017610  28.7615440
  96.2159920  32.8331930  30.0366610  95.9188210  32.2277400  29.3574390
  97.1659740  32.8709240  29.9255970  94.4606840  25.9207580  31.6526440
  95.0121430  26.0302920  30.8779690  94.9750350  26.2945180  32.3681670
  95.3078350  32.5713620  36.6874410  94.4106880  32.7953590  36.9347810
  95.3331220  32.6948560  35.7385810  94.1349570  29.4426940  35.2631780
  93.9957340  30.3149740  35.6319180  93.2530930  29.0999750  35.1179720
 100.4578950  34.3602810  26.5696910 100.8974860  35.1027140  26.1552300
 100.3965840  34.6029380  27.4935870  95.9329920  35.3848640  37.4716930
  95.9045350  35.7891590  36.6045360  95.7694890  34.4559000  37.3088530
  92.4482850  28.0409350  25.3734050  92.3280450  28.7671440  24.7615320
  92.1383740  27.2712260  24.8961960  90.0868220  31.2124490  31.1802690
  90.1648640  31.3473260  30.2358410  90.7009900  30.5040380  31.3730810
  91.3315850  32.9124680  27.5908870  90.9243930  33.0539270  26.7362470
  92.2228860  32.6284840  27.3880080 101.1494730  37.0616590  34.4975920
 101.6639400  36.9724600  35.2998350 100.3063810  37.4076290  34.7903830
  95.6037510  37.1270460  25.7031540  95.4279990  36.2106000  25.4899340
  94.7493250  37.4857750  25.9429340  90.1427740  32.2538660  33.7197150
  90.3058780  31.7844020  32.9016520  90.6080190  31.7462220  34.3845990
  94.9146510  21.3844420  28.7557720  94.4714660  22.1653960  28.4242240
  95.4731500  21.7074310  29.4628660  99.2016320  24.2512940  34.3593040
  98.7395690  24.4595960  35.1712980  98.7994430  23.4372290  34.0563710
 101.2970540  26.9723640  37.5888490 101.6223950  26.1387390  37.2490720
 102.0850870  27.4952160  37.7366820  98.0305330  21.0055120  23.6363550
  97.4059510  21.0014990  24.3616860  97.9435450  20.1386080  23.2399520
  96.9522410  21.9291750  30.6147320  97.2494740  22.8354580  30.5339340
  97.5007970  21.4410530  30.0006890  94.7060730  26.5077990  26.4838970
  94.4801650  26.2915160  27.3885590  93.9253260  26.9406450  26.1384940
 101.9358490  26.5141360  25.0829620 101.3367380  27.2377160  24.8993240
 102.4838100  26.4518140  24.3006070  97.1459940  27.4063570  37.1499240
  97.0503540  26.4658300  36.9999640  97.9891920  27.6278640  36.7547310
 100.5423360  25.1504900  27.1132900 100.9352930  25.4677100  26.3001590
 100.9040210  24.2716780  27.2277420  92.2770480  23.8177240  35.3033020
  91.8833870  24.6652450  35.5105800  91.5888880  23.1803610  35.4941660
  98.8515530  23.9012210  38.3729760  98.1613850  23.7084410  39.0075850
  99.5947830  24.1846850  38.9054060  89.5787530  21.7405700  29.3363100
  89.2900580  22.3108560  30.0488080  90.3233290  21.2610150  29.6994330
  89.7657760  25.6825820  20.5465820  89.6832430  26.6256580  20.6880810
  89.4140820  25.5400730  19.6678170 101.1278500  27.7410650  31.2083680
 100.3959620  28.2497460  31.5573780 100.7302840  26.9240630  30.9072460
  97.5655890  24.4164850  29.6136170  97.5691950  23.9754800  28.7640710
  98.4607010  24.7382180  29.7207990  93.4158270  24.2991340  28.5730380
  93.0758320  24.7766570  29.3297430  92.6535590  23.8456460  28.2131480
  97.6276040  25.4176930  22.6042930  97.7488860  25.3763410  23.5528750
  97.2424550  26.2801080  22.4489660 101.5904410  23.1944330  30.6206620
 101.6077150  23.6452980  31.4648470 101.3419990  22.2949970  30.8340060
  96.6397540  27.7278070  22.0026230  96.0714440  27.2796320  21.3762140
  97.3486540  28.0870850  21.4691380  91.7166720  31.6290090  35.8792960
  91.3321510  30.9883760  36.4775920  92.0278910  32.3326210  36.4487690
  97.8663860  28.4766630  31.3601580  98.2333990  28.0025200  32.1062920
  97.6768920  29.3508200  31.7009920  90.7304350  23.2210320  27.4895050
  90.4451270  22.8565990  28.3273670  90.6683210  22.4890780  26.8758190
  95.6563230  27.5175270  33.6785790  95.3520300  28.3967250  33.9036150
  96.6109690  27.5775060  33.7143230  94.1845020  31.7236260  24.2752640
  93.4107280  31.1833880  24.1151360  94.9139650  31.2042870  23.9370400
 100.4042940  22.1139580  24.2108420  99.5907550  21.6152750  24.1353730
 100.2104890  22.9537830  23.7944770 100.3251800  30.7910680  35.9548030
 100.2589110  29.8706350  35.7005620  99.6956940  30.8886120  36.6692670
  94.2282420  31.3916640  27.9131450  94.7461090  30.5884900  27.8588340
  93.7766440  31.3295780  28.7548280  99.1151920  32.6582920  23.1858750
  99.4567620  33.4025150  22.6902070  98.2864630  32.9714040  23.5483580
  91.7126960  28.3578010  34.8257150  91.3541900  29.0231860  35.4130490
  91.4181520  27.5261560  35.1969770  94.9140080  28.8162250  37.7096700
  94.6140220  28.9619430  36.8124520  95.6851320  28.2567540  37.6170090
 100.2568530  33.6131250  35.7051830 100.2713070  32.6812210  35.4870740
  99.5493630  33.6991010  36.3441600 101.9979330  31.9798760  28.5504260
 102.3503150  31.3826890  27.8905630 101.1141660  31.6542990  28.7212510
  98.0842610  32.7396450  25.9574670  98.7713740  33.2865660  26.3382260
  97.2975030  33.2837180  25.9924280  90.2235010  28.3569270  21.4491750
  91.0929860  28.6394070  21.7327670  89.7325330  29.1705140  21.3340560
  97.3869820  29.7442480  25.5700030  97.8432600  30.5547730  25.7960220
  97.0358030  29.4265620  26.4018520  99.6902430  35.2548820  32.7992330
 100.3344650  35.4608200  33.4765750 100.0531870  34.4937220  32.3463180
  93.2881600  20.0880130  26.0422550  93.1596230  20.0798030  26.9907470
  92.4643620  20.4263220  25.6913560 100.9634510  33.2581170  31.5169780
 101.6056740  32.5574330  31.6301950 101.4883860  34.0379610  31.3366670
  90.5906260  37.5696650  22.0153380  90.9503900  38.1685990  21.3610650
  90.4498600  38.1156540  22.7888410  90.2875530  21.8471250  35.5029250
  89.5734050  22.0468170  36.1081860  90.7070570  21.0710820  35.8744050
  90.5748120  35.8351510  36.4895780  90.6839240  34.8946250  36.3491170
  89.9228680  36.1006260  35.8409510  98.5660710  34.1067400  37.8893900
  98.2457580  33.3876640  38.4339590  97.8919070  34.7822470  37.9629960
  96.6074880  34.9527850  22.8327050  96.5984980  35.6857540  22.2171560
  95.6873240  34.7059430  22.9254010  92.2081520  30.1742740  23.5773810
  91.6009470  30.9141640  23.5869110  92.6830870  30.2642100  22.7512010
 101.7814310  24.3393560  33.2530700 102.1495130  23.5188770  33.5810270
 100.9212510  24.3995450  33.6686350  99.5934480  35.0156090  21.4952240
  99.6946460  34.8120080  20.5654220  98.6936220  34.7614370  21.7000020
  97.1160370  25.5736450  25.4776140  96.4076520  26.0422790  25.9189750
  97.4004850  24.9158460  26.1121330  98.7416300  26.9933150  33.4768670
  99.2401550  27.4678970  34.1420520  98.8839250  26.0696670  33.6838700
 101.1475800  22.2987110  26.9171930 101.0243580  22.3173240  25.9681440
 102.0960360  22.3466050  27.0370330  98.2352590  37.5342410  26.1899910
  98.4894090  37.4963800  25.2679280  97.2865070  37.4075740  26.1828160
  95.3195390  23.8821530  22.8526850  96.1685920  24.3191680  22.7867040
  94.9526660  24.1941790  23.6798910  94.2186810  30.1353890  21.3262380
  94.9850080  30.0235250  21.8887810  94.2961500  29.4391860  20.6739150
  92.9133570  27.5678960  22.0095270  92.9937160  26.6206470  22.1212670
  93.8053320  27.8985840  22.1155930  93.7148280  37.7174350  29.1129810
  94.4510760  37.1689810  29.3838380  94.0989200  38.5830360  28.9735800
  90.5993760  33.7847920  24.9871320  89.6733540  34.0269060  24.9776730
  91.0650190  34.6122180  24.8656070  92.7206560  36.9020420  38.3015390
  93.5219290  37.2232470  38.7150790  92.2058380  36.5416000  39.0235300
  96.8250590  36.8904660  20.9355380  97.6179200  37.1793490  20.4837170
  96.3054940  36.4596830  20.2567860 101.5571190  33.0100290  38.2490800
 100.9509350  33.0331890  37.5086550 101.2525300  32.2783330  38.7858050
  90.4404370  29.3893880  37.2451440  90.9443390  28.8101160  37.8167670
  89.7011790  29.6734110  37.7827810  97.3427990  32.1108070  20.7997730
  97.2378630  31.4960420  21.5259110  97.1752210  31.5873960  20.0160740
  97.4942310  30.7964870  36.7786960  96.7287980  31.3649870  36.6941630
  97.6758270  30.5041080  35.8855190 100.5830720  31.1728100  21.4039720
 100.0340820  31.6197400  22.0482460 101.2049980  30.6677350  21.9277390
  92.4727450  27.5323470  38.1401510  92.5132790  27.2337340  39.0486740
  93.3272950  27.9331080  37.9809030  96.2505840  30.1319020  23.3005020
  96.6722260  29.9658890  24.1436410  96.3756680  29.3219250  22.8060160
  94.4133260  26.1115570  36.1076000  93.8829720  25.6206520  35.4799340
  95.0821330  26.5399770  35.5733930  98.7633480  29.1556630  20.5482120
  99.2839140  28.4405650  20.1823270  99.4101880  29.7942500  20.8482630
  94.9005560  23.0777940  36.1873290  94.8062430  22.4598690  35.4624160
  94.3202950  23.8044230  35.9603200  97.6667000  21.6351180  33.2200680
  97.2184300  21.6575440  32.3746230  97.0332200  21.2370200  33.8170980
  98.0726550  30.5305510  33.8413120  98.4914660  31.3738240  33.6689360
  97.1535180  30.6677550  33.6119900 100.4090450  28.2621690  35.2250960
 100.5286660  27.6662830  35.9645800 101.2684450  28.2991380  34.8052260
  95.1464740  26.2052250  20.2463180  94.9453800  25.3419610  20.6076520
  94.9756790  26.1185610  19.3084780  95.9233970  36.8358520  34.9570850
  95.3855060  37.5604580  34.6379550  96.1767930  36.3588860  34.1668190
  97.1759220  24.8043040  36.4826780  97.7658910  24.4958890  37.1704600
  96.3579460  24.3322790  36.6386680  93.9447540  23.3052870  20.2341060
  94.2473440  23.3120300  19.3260210  94.6842130  22.9550730  20.7308720
  98.7796180  38.0709730  35.2157500  98.7054880  38.9744870  35.5229870
  97.8775020  37.7521630  35.1879570  97.1632470  22.2487490  21.2197260
  96.8154470  21.5711480  20.6399710  97.3645240  21.7877000  22.0340650
  99.3281510  37.2368240  22.8383860 100.2232300  37.5753210  22.8602620
  99.3599140  36.5147650  22.2108140  92.9677670  32.6095290  21.0670860
  93.4052540  33.1524960  21.7228440  93.4525400  31.7842240  21.0767200
  90.1823470  35.3984320  28.5191120  90.5126480  34.5305380  28.2869760
  90.6114470  35.6042840  29.3496080  94.7785390  33.7293330  26.1793090
  94.4780930  33.6058300  27.0797000  94.6722880  32.8701920  25.7708820
  90.6713680  36.2654910  31.2572750  90.2344670  36.4455710  32.0896900
  91.2391360  37.0229530  31.1154470  90.5038110  28.7775140  27.6161630
  89.8486950  28.5086780  26.9721330  91.3416060  28.6679620  27.1663610
  91.5414040  29.1627710  32.1564970  91.9087080  29.0755110  33.0360990
  90.9724860  28.3994260  32.0571830  91.0930040  26.0736800  36.0623390
  90.1986090  26.0403560  36.4017100  91.6327590  26.2723590  36.8274640
  89.7176190  25.9874070  23.5586960  88.8140270  26.2504270  23.3838620
  90.2016810  26.2585240  22.7786920  92.2603400  25.0439610  21.4681340
  92.9695100  24.6222830  20.9828620  91.5443340  25.1114840  20.8364690
  91.9077560  21.0978940  20.5083990  92.6305690  21.6387880  20.8265210
  92.1802080  20.8242360  19.6325530  91.5969750  20.3485130  30.4106610
  92.2445940  19.7982510  29.9701770  92.0171590  20.6028280  31.2322420
  91.3501750  20.5040800  33.1531930  91.0016570  20.9604620  33.9190110
  91.0189450  19.6097930  33.2354360  92.9566120  33.6760400  37.3185120
  92.9135750  33.3053310  38.1999580  93.0877130  34.6137970  37.4586940
  96.6572150  35.2319990  32.9194840  96.4163510  35.4994550  32.0325360
  97.5974790  35.4025720  32.9745700  98.8626570  21.6952680  36.6751350
  98.8015460  22.2874510  37.4246760  99.8026950  21.5878640  36.5301610
 101.5001130  21.3522740  36.3143640 102.1141540  21.6702030  35.6524720
 102.0450690  20.8671330  36.9339500  92.0222390  20.0317000  36.4282700
  92.5705380  19.8505050  35.6648810  92.0877700  19.2411110  36.9639010
  92.7954150  36.6222650  34.4382900  92.2014470  36.4907350  35.1772940
  92.7877990  35.7860790  33.9725000 102.2409170  19.9154880  32.6412930
 101.3669010  20.2489990  32.4385860 102.1319920  19.4428060  33.4664800
  92.4266380  33.9881030  33.3890940  91.7000440  33.3686320  33.3216890
  92.4875530  34.3821640  32.5189020  96.0311480  36.2026030  30.1740350
  96.5476500  35.5913390  29.6488610  96.6808860  36.7054810  30.6651360
  98.7706980  37.0934520  31.0009330  99.0584790  36.8388820  30.1242340
  99.2830200  36.5411880  31.5914900  99.9883990  20.8324720  31.5805840
  99.2055780  21.3070220  31.8602600  99.6946920  19.9279550  31.4719020
  90.7096380  37.3055420  26.5987700  90.5418420  36.6726100  27.2969590
  89.8430890  37.5114820  26.2481890  91.3324400  21.1372200  24.1019560
  92.0903760  21.2501080  23.5283590  90.8701570  21.9741400  24.0562990
  97.8738210  23.2511470  27.0921870  97.0612720  22.8768360  26.7517750
  98.3779850  22.4956550  27.3943060  92.3159080  35.9988650  24.0437840
  91.7906700  36.3796680  23.3399800  92.2403660  36.6239420  24.7647550
  93.7049550  21.6636250  22.6421530  94.2342310  20.8766050  22.5129480
  94.3377870  22.3427440  22.8757060  95.8987390  21.4011390  25.6966920
  95.2690130  20.6998700  25.8637050  95.3592530  22.1615520  25.4800080
  98.8379340  38.0150620  38.3677530  99.7646650  37.7794890  38.4113490
  98.8229770  38.8422620  37.8863560  96.0242950  20.6795370  38.1319410
  95.7427220  21.1828970  37.3680230  96.4062650  19.8817120  37.7661540
  94.9152050  37.9471030  22.9187090  95.6470870  37.6630310  22.3710980
  95.1745720  37.7084310  23.8086470  94.0766840  34.0635760  22.9233420
  93.4475720  34.5320860  23.4719250  94.1914670  33.2184980  23.3579610
 101.5316560  28.1141420   9.0734620 101.4510610  27.1996030   8.8026330
 101.1180980  28.6108490   8.3674330  99.6634600  29.8920440  10.9543890
  98.8876700  29.4120880  11.2442460 100.3147530  29.2126090  10.7800050
  93.6800430  30.2040250  11.8319650  92.8485310  29.9488960  12.2316160
  94.2881410  30.2751020  12.5677570  93.6601690  34.2380340  12.0277670
  93.9629730  33.3478080  11.8487890  94.4045280  34.7950560  11.7999920
  92.0892380  25.1642140   5.6162040  91.2009080  25.5058110   5.5141920
  92.3733570  24.9642460   4.7242870  90.0525390  27.7647790  11.5001740
  90.6241500  26.9969990  11.5005380  90.0526930  28.0636550  10.5908350
  99.9105340  36.5838640   9.3547010  99.2916780  37.0396140   8.7841450
 100.7657120  36.7390100   8.9536710  99.1043590  32.5677630  10.9614050
  99.0351870  31.6267570  10.8003180  99.8663450  32.6579040  11.5336620
  91.2950260  23.1732150  13.2870670  91.1153100  22.2757900  13.5673430
  90.8930340  23.7204020  13.9617620 100.1348760  25.3748010  11.1882980
 100.5113580  24.5019890  11.0756650 100.0368270  25.7106710  10.2973420
  94.2653770  23.7473640   6.6500420  94.3720520  24.6477370   6.9569180
  93.3546130  23.6991610   6.3595070  91.9136930  25.6692650  11.8953010
  92.5947040  25.9331020  12.5140410  91.5984980  24.8293520  12.2291020
  96.1061500  26.7160010  10.9825600  96.6139720  27.2140980  11.6230620
  96.6374740  25.9395210  10.8064960  94.3897600  21.3558570  15.2489020
  94.3916040  21.8730960  14.4434920  93.5601910  20.8788750  15.2258950
 100.7768690  31.4677880   6.7478920 100.1585960  31.9327330   6.1841640
 101.2891940  32.1605360   7.1648430  95.6400450  30.9953750  13.4262520
  95.3069830  31.6222670  14.0683590  95.8167130  31.5215630  12.6464190
  94.0712930  23.0668530  13.2559470  94.4129740  23.9110580  12.9613340
  93.1328740  23.2152270  13.3724810  94.8519550  32.9634550  15.2411700
  95.4693550  33.6385630  14.9596150  93.9912670  33.3722530  15.1499200
  90.1451890  32.1534410   4.1218550  89.7679870  32.6421510   3.3903450
  90.4024960  32.8259690   4.7525080  97.7540820  20.5550800   9.5804060
  98.0615800  19.9997690   8.8639560  96.8241520  20.6895260   9.3977050
 100.1421580  28.6199630   6.3164180  99.2150860  28.5537010   6.5452650
 100.2946400  29.5579760   6.2019420 100.1290660  24.8916630   3.3131340
  99.1894330  25.0530590   3.3983800 100.4473920  25.6102310   2.7667330
  95.7478220  29.1464370   9.0983910  95.3435220  28.4341620   8.6029810
  95.8341340  28.8017610   9.9871950  96.2159920  32.8331930  11.2623120
  95.9188210  32.2277400  10.5830900  97.1659740  32.8709240  11.1512480
  94.4606840  25.9207580  12.8782950  95.0121430  26.0302920  12.1036200
  94.9750350  26.2945180  13.5938180  95.3078350  32.5713620  17.9130920
  94.4106880  32.7953590  18.1604320  95.3331220  32.6948560  16.9642320
  94.1349570  29.4426940  16.4888290  93.9957340  30.3149740  16.8575690
  93.2530930  29.0999750  16.3436230 100.4578950  34.3602810   7.7953420
 100.8974860  35.1027140   7.3808810 100.3965840  34.6029380   8.7192380
  95.9329920  35.3848640  18.6973440  95.9045350  35.7891590  17.8301870
  95.7694890  34.4559000  18.5345040  92.4482850  28.0409350   6.5990560
  92.3280450  28.7671440   5.9871830  92.1383740  27.2712260   6.1218470
  90.0868220  31.2124490  12.4059200  90.1648640  31.3473260  11.4614920
  90.7009900  30.5040380  12.5987320  91.3315850  32.9124680   8.8165380
  90.9243930  33.0539270   7.9618980  92.2228860  32.6284840   8.6136590
 101.1494730  37.0616590  15.7232430 101.6639400  36.9724600  16.5254860
 100.3063810  37.4076290  16.0160340  95.6037510  37.1270460   6.9288050
  95.4279990  36.2106000   6.7155850  94.7493250  37.4857750   7.1685850
  90.1427740  32.2538660  14.9453660  90.3058780  31.7844020  14.1273030
  90.6080190  31.7462220  15.6102500  94.9146510  21.3844420   9.9814230
  94.4714660  22.1653960   9.6498750  95.4731500  21.7074310  10.6885170
  99.2016320  24.2512940  15.5849550  98.7395690  24.4595960  16.3969490
  98.7994430  23.4372290  15.2820220 101.2970540  26.9723640  18.8145000
 101.6223950  26.1387390  18.4747230 102.0850870  27.4952160  18.9623330
  98.0305330  21.0055120   4.8620060  97.4059510  21.0014990   5.5873370
  97.9435450  20.1386080   4.4656030  96.9522410  21.9291750  11.8403830
  97.2494740  22.8354580  11.7595850  97.5007970  21.4410530  11.2263400
  94.7060730  26.5077990   7.7095480  94.4801650  26.2915160   8.6142100
  93.9253260  26.9406450   7.3641450 101.9358490  26.5141360   6.3086130
 101.3367380  27.2377160   6.1249750 102.4838100  26.4518140   5.5262580
  97.1459940  27.4063570  18.3755750  97.0503540  26.4658300  18.2256150
  97.9891920  27.6278640  17.9803820 100.5423360  25.1504900   8.3389410
 100.9352930  25.4677100   7.5258100 100.9040210  24.2716780   8.4533930
  92.2770480  23.8177240  16.5289530  91.8833870  24.6652450  16.7362310
  91.5888880  23.1803610  16.7198170  98.8515530  23.9012210  19.5986270
  98.1613850  23.7084410  20.2332360  99.5947830  24.1846850  20.1310570
  89.5787530  21.7405700  10.5619610  89.2900580  22.3108560  11.2744590
  90.3233290  21.2610150  10.9250840 101.1278500  27.7410650  12.4340190
 100.3959620  28.2497460  12.7830290 100.7302840  26.9240630  12.1328970
  97.5655890  24.4164850  10.8392680  97.5691950  23.9754800   9.9897220
  98.4607010  24.7382180  10.9464500  93.4158270  24.2991340   9.7986890
  93.0758320  24.7766570  10.5553940  92.6535590  23.8456460   9.4387990
  97.6276040  25.4176930   3.8299440  97.7488860  25.3763410   4.7785260
  97.2424550  26.2801080   3.6746170 101.5904410  23.1944330  11.8463130
 101.6077150  23.6452980  12.6904980 101.3419990  22.2949970  12.0596570
  96.6397540  27.7278070   3.2282740  96.0714440  27.2796320   2.6018650
  97.3486540  28.0870850   2.6947890  91.7166720  31.6290090  17.1049470
  91.3321510  30.9883760  17.7032430  92.0278910  32.3326210  17.6744200
  97.8663860  28.4766630  12.5858090  98.2333990  28.0025200  13.3319430
  97.6768920  29.3508200  12.9266430  90.7304350  23.2210320   8.7151560
  90.4451270  22.8565990   9.5530180  90.6683210  22.4890780   8.1014700
  95.6563230  27.5175270  14.9042300  95.3520300  28.3967250  15.1292660
  96.6109690  27.5775060  14.9399740  94.1845020  31.7236260   5.5009150
  93.4107280  31.1833880   5.3407870  94.9139650  31.2042870   5.1626910
 100.4042940  22.1139580   5.4364930  99.5907550  21.6152750   5.3610240
 100.2104890  22.9537830   5.0201280 100.3251800  30.7910680  17.1804540
 100.2589110  29.8706350  16.9262130  99.6956940  30.8886120  17.8949180
  94.2282420  31.3916640   9.1387960  94.7461090  30.5884900   9.0844850
  93.7766440  31.3295780   9.9804790  99.1151920  32.6582920   4.4115260
  99.4567620  33.4025150   3.9158580  98.2864630  32.9714040   4.7740090
  91.7126960  28.3578010  16.0513660  91.3541900  29.0231860  16.6387000
  91.4181520  27.5261560  16.4226280  94.9140080  28.8162250  18.9353210
  94.6140220  28.9619430  18.0381030  95.6851320  28.2567540  18.8426600
 100.2568530  33.6131250  16.9308340 100.2713070  32.6812210  16.7127250
  99.5493630  33.6991010  17.5698110 101.9979330  31.9798760   9.7760770
 102.3503150  31.3826890   9.1162140 101.1141660  31.6542990   9.9469020
  98.0842610  32.7396450   7.1831180  98.7713740  33.2865660   7.5638770
  97.2975030  33.2837180   7.2180790  90.2235010  28.3569270   2.6748260
  91.0929860  28.6394070   2.9584180  89.7325330  29.1705140   2.5597070
  97.3869820  29.7442480   6.7956540  97.8432600  30.5547730   7.0216730
  97.0358030  29.4265620   7.6275030  99.6902430  35.2548820  14.0248840
 100.3344650  35.4608200  14.7022260 100.0531870  34.4937220  13.5719690
  93.2881600  20.0880130   7.2679060  93.1596230  20.0798030   8.2163980
  92.4643620  20.4263220   6.9170070 100.9634510  33.2581170  12.7426290
 101.6056740  32.5574330  12.8558460 101.4883860  34.0379610  12.5623180
  90.5906260  37.5696650   3.2409890  90.9503900  38.1685990   2.5867160
  90.4498600  38.1156540   4.0144920  90.2875530  21.8471250  16.7285760
  89.5734050  22.0468170  17.3338370  90.7070570  21.0710820  17.1000560
  90.5748120  35.8351510  17.7152290  90.6839240  34.8946250  17.5747680
  89.9228680  36.1006260  17.0666020  98.5660710  34.1067400  19.1150410
  98.2457580  33.3876640  19.6596100  97.8919070  34.7822470  19.1886470
  96.6074880  34.9527850   4.0583560  96.5984980  35.6857540   3.4428070
  95.6873240  34.7059430   4.1510520  92.2081520  30.1742740   4.8030320
  91.6009470  30.9141640   4.8125620  92.6830870  30.2642100   3.9768520
 101.7814310  24.3393560  14.4787210 102.1495130  23.5188770  14.8066780
 100.9212510  24.3995450  14.8942860  99.5934480  35.0156090   2.7208750
  99.6946460  34.8120080   1.7910730  98.6936220  34.7614370   2.9256530
  97.1160370  25.5736450   6.7032650  96.4076520  26.0422790   7.1446260
  97.4004850  24.9158460   7.3377840  98.7416300  26.9933150  14.7025180
  99.2401550  27.4678970  15.3677030  98.8839250  26.0696670  14.9095210
 101.1475800  22.2987110   8.1428440 101.0243580  22.3173240   7.1937950
 102.0960360  22.3466050   8.2626840  98.2352590  37.5342410   7.4156420
  98.4894090  37.4963800   6.4935790  97.2865070  37.4075740   7.4084670
  95.3195390  23.8821530   4.0783360  96.1685920  24.3191680   4.0123550
  94.9526660  24.1941790   4.9055420  94.2186810  30.1353890   2.5518890
  94.9850080  30.0235250   3.1144320  94.2961500  29.4391860   1.8995660
  92.9133570  27.5678960   3.2351780  92.9937160  26.6206470   3.3469180
  93.8053320  27.8985840   3.3412440  93.7148280  37.7174350  10.3386320
  94.4510760  37.1689810  10.6094890  94.0989200  38.5830360  10.1992310
  90.5993760  33.7847920   6.2127830  89.6733540  34.0269060   6.2033240
  91.0650190  34.6122180   6.0912580  92.7206560  36.9020420  19.5271900
  93.5219290  37.2232470  19.9407300  92.2058380  36.5416000  20.2491810
 101.5571190  33.0100290  19.4747310 100.9509350  33.0331890  18.7343060
 101.2525300  32.2783330  20.0114560  90.4404370  29.3893880  18.4707950
  90.9443390  28.8101160  19.0424180  89.7011790  29.6734110  19.0084320
  97.4942310  30.7964870  18.0043470  96.7287980  31.3649870  17.9198140
  97.6758270  30.5041080  17.1111700 100.5830720  31.1728100   2.6296230
 100.0340820  31.6197400   3.2738970 101.2049980  30.6677350   3.1533900
  92.4727450  27.5323470  19.3658020  92.5132790  27.2337340  20.2743250
  93.3272950  27.9331080  19.2065540  96.2505840  30.1319020   4.5261530
  96.6722260  29.9658890   5.3692920  96.3756680  29.3219250   4.0316670
  94.4133260  26.1115570  17.3332510  93.8829720  25.6206520  16.7055850
  95.0821330  26.5399770  16.7990440  94.9005560  23.0777940  17.4129800
  94.8062430  22.4598690  16.6880670  94.3202950  23.8044230  17.1859710
  97.6667000  21.6351180  14.4457190  97.2184300  21.6575440  13.6002740
  97.0332200  21.2370200  15.0427490  98.0726550  30.5305510  15.0669630
  98.4914660  31.3738240  14.8945870  97.1535180  30.6677550  14.8376410
 100.4090450  28.2621690  16.4507470 100.5286660  27.6662830  17.1902310
 101.2684450  28.2991380  16.0308770  95.9233970  36.8358520  16.1827360
  95.3855060  37.5604580  15.8636060  96.1767930  36.3588860  15.3924700
  97.1759220  24.8043040  17.7083290  97.7658910  24.4958890  18.3961110
  96.3579460  24.3322790  17.8643190  98.7796180  38.0709730  16.4414010
  98.7054880  38.9744870  16.7486380  97.8775020  37.7521630  16.4136080
  97.1632470  22.2487490   2.4453770  96.8154470  21.5711480   1.8656220
  97.3645240  21.7877000   3.2597160  99.3281510  37.2368240   4.0640370
 100.2232300  37.5753210   4.0859130  99.3599140  36.5147650   3.4364650
  92.9677670  32.6095290   2.2927370  93.4052540  33.1524960   2.9484950
  93.4525400  31.7842240   2.3023710  90.1823470  35.3984320   9.7447630
  90.5126480  34.5305380   9.5126270  90.6114470  35.6042840  10.5752590
  94.7785390  33.7293330   7.4049600  94.4780930  33.6058300   8.3053510
  94.6722880  32.8701920   6.9965330  90.6713680  36.2654910  12.4829260
  90.2344670  36.4455710  13.3153410  91.2391360  37.0229530  12.3410980
  90.5038110  28.7775140   8.8418140  89.8486950  28.5086780   8.1977840
  91.3416060  28.6679620   8.3920120  91.5414040  29.1627710  13.3821480
  91.9087080  29.0755110  14.2617500  90.9724860  28.3994260  13.2828340
  91.0930040  26.0736800  17.2879900  90.1986090  26.0403560  17.6273610
  91.6327590  26.2723590  18.0531150  89.7176190  25.9874070   4.7843470
  88.8140270  26.2504270   4.6095130  90.2016810  26.2585240   4.0043430
  92.2603400  25.0439610   2.6937850  92.9695100  24.6222830   2.2085130
  91.5443340  25.1114840   2.0621200  91.5969750  20.3485130  11.6363120
  92.2445940  19.7982510  11.1958280  92.0171590  20.6028280  12.4578930
  91.3501750  20.5040800  14.3788440  91.0016570  20.9604620  15.1446620
  91.0189450  19.6097930  14.4610870  92.9566120  33.6760400  18.5441630
  92.9135750  33.3053310  19.4256090  93.0877130  34.6137970  18.6843450
  96.6572150  35.2319990  14.1451350  96.4163510  35.4994550  13.2581870
  97.5974790  35.4025720  14.2002210  98.8626570  21.6952680  17.9007860
  98.8015460  22.2874510  18.6503270  99.8026950  21.5878640  17.7558120
 101.5001130  21.3522740  17.5400150 102.1141540  21.6702030  16.8781230
 102.0450690  20.8671330  18.1596010  92.0222390  20.0317000  17.6539210
  92.5705380  19.8505050  16.8905320  92.0877700  19.2411110  18.1895520
  92.7954150  36.6222650  15.6639410  92.2014470  36.4907350  16.4029450
  92.7877990  35.7860790  15.1981510 102.2409170  19.9154880  13.8669440
 101.3669010  20.2489990  13.6642370 102.1319920  19.4428060  14.6921310
  92.4266380  33.9881030  14.6147450  91.7000440  33.3686320  14.5473400
  92.4875530  34.3821640  13.7445530  96.0311480  36.2026030  11.3996860
  96.5476500  35.5913390  10.8745120  96.6808860  36.7054810  11.8907870
  98.7706980  37.0934520  12.2265840  99.0584790  36.8388820  11.3498850
  99.2830200  36.5411880  12.8171410  99.9883990  20.8324720  12.8062350
  99.2055780  21.3070220  13.0859110  99.6946920  19.9279550  12.6975530
  90.7096380  37.3055420   7.8244210  90.5418420  36.6726100   8.5226100
  89.8430890  37.5114820   7.4738400  91.3324400  21.1372200   5.3276070
  92.0903760  21.2501080   4.7540100  90.8701570  21.9741400   5.2819500
  97.8738210  23.2511470   8.3178380  97.0612720  22.8768360   7.9774260
  98.3779850  22.4956550   8.6199570  92.3159080  35.9988650   5.2694350
  91.7906700  36.3796680   4.5656310  92.2403660  36.6239420   5.9904060
  93.7049550  21.6636250   3.8678040  94.2342310  20.8766050   3.7385990
  94.3377870  22.3427440   4.1013570  95.8987390  21.4011390   6.9223430
  95.2690130  20.6998700   7.0893560  95.3592530  22.1615520   6.7056590
  98.8379340  38.0150620  19.5934040  99.7646650  37.7794890  19.6370000
  98.8229770  38.8422620  19.1120070  96.0242950  20.6795370  19.3575920
  95.7427220  21.1828970  18.5936740  96.4062650  19.8817120  18.9918050
  94.9152050  37.9471030   4.1443600  95.6470870  37.6630310   3.5967490
  95.1745720  37.7084310   5.0342980  94.0766840  34.0635760   4.1489930
  93.4475720  34.5320860   4.6975760  94.1914670  33.2184980   4.5836120
 101.5316560   9.3397930  65.3965090 101.4510610   8.4252540  65.1256800
 101.1180980   9.8365000  64.6904800  99.6634600  11.1176950  67.2774360
  98.8876700  10.6377390  67.5672930 100.3147530  10.4382600  67.1030520
  93.6800430  11.4296760  68.1550120  92.8485310  11.1745470  68.5546630
  94.2881410  11.5007530  68.8908040  93.6601690  15.4636850  68.3508140
  93.9629730  14.5734590  68.1718360  94.4045280  16.0207070  68.1230390
  92.0892380   6.3898650  61.9392510  91.2009080   6.7314620  61.8372390
  92.3733570   6.1898970  61.0473340  90.0525390   8.9904300  67.8232210
  90.6241500   8.2226500  67.8235850  90.0526930   9.2893060  66.9138820
  99.9105340  17.8095150  65.6777480  99.2916780  18.2652650  65.1071920
 100.7657120  17.9646610  65.2767180  99.1043590  13.7934140  67.2844520
  99.0351870  12.8524080  67.1233650  99.8663450  13.8835550  67.8567090
  91.2950260   4.3988660  69.6101140  91.1153100   3.5014410  69.8903900
  90.8930340   4.9460530  70.2848090 100.1348760   6.6004520  67.5113450
 100.5113580   5.7276400  67.3987120 100.0368270   6.9363220  66.6203890
  94.2653770   4.9730150  62.9730890  94.3720520   5.8733880  63.2799650
  93.3546130   4.9248120  62.6825540  91.9136930   6.8949160  68.2183480
  92.5947040   7.1587530  68.8370880  91.5984980   6.0550030  68.5521490
  96.1061500   7.9416520  67.3056070  96.6139720   8.4397490  67.9461090
  96.6374740   7.1651720  67.1295430  94.3897600   2.5815080  71.5719490
  94.3916040   3.0987470  70.7665390  93.5601910   2.1045260  71.5489420
 100.7768690  12.6934390  63.0709390 100.1585960  13.1583840  62.5072110
 101.2891940  13.3861870  63.4878900  95.6400450  12.2210260  69.7492990
  95.3069830  12.8479180  70.3914060  95.8167130  12.7472140  68.9694660
  94.0712930   4.2925040  69.5789940  94.4129740   5.1367090  69.2843810
  93.1328740   4.4408780  69.6955280  94.8519550  14.1891060  71.5642170
  95.4693550  14.8642140  71.2826620  93.9912670  14.5979040  71.4729670
  90.1451890  13.3790920  60.4449020  89.7679870  13.8678020  59.7133920
  90.4024960  14.0516200  61.0755550 100.1421580   9.8456140  62.6394650
  99.2150860   9.7793520  62.8683120 100.2946400  10.7836270  62.5249890
 100.1290660   6.1173140  59.6361810  99.1894330   6.2787100  59.7214270
 100.4473920   6.8358820  59.0897800  95.7478220  10.3720880  65.4214380
  95.3435220   9.6598130  64.9260280  95.8341340  10.0274120  66.3102420
  96.2159920  14.0588440  67.5853590  95.9188210  13.4533910  66.9061370
  97.1659740  14.0965750  67.4742950  94.4606840   7.1464090  69.2013420
  95.0121430   7.2559430  68.4266670  94.9750350   7.5201690  69.9168650
  95.3078350  13.7970130  74.2361390  94.4106880  14.0210100  74.4834790
  95.3331220  13.9205070  73.2872790  94.1349570  10.6683450  72.8118760
  93.9957340  11.5406250  73.1806160  93.2530930  10.3256260  72.6666700
 100.4578950  15.5859320  64.1183890 100.8974860  16.3283650  63.7039280
 100.3965840  15.8285890  65.0422850  95.9329920  16.6105150  75.0203910
  95.9045350  17.0148100  74.1532340  95.7694890  15.6815510  74.8575510
  92.4482850   9.2665860  62.9221030  92.3280450   9.9927950  62.3102300
  92.1383740   8.4968770  62.4448940  90.0868220  12.4381000  68.7289670
  90.1648640  12.5729770  67.7845390  90.7009900  11.7296890  68.9217790
  91.3315850  14.1381190  65.1395850  90.9243930  14.2795780  64.2849450
  92.2228860  13.8541350  64.9367060 101.1494730  18.2873100  72.0462900
 101.6639400  18.1981110  72.8485330 100.3063810  18.6332800  72.3390810
  95.6037510  18.3526970  63.2518520  95.4279990  17.4362510  63.0386320
  94.7493250  18.7114260  63.4916320  90.1427740  13.4795170  71.2684130
  90.3058780  13.0100530  70.4503500  90.6080190  12.9718730  71.9332970
  94.9146510   2.6100930  66.3044700  94.4714660   3.3910470  65.9729220
  95.4731500   2.9330820  67.0115640  99.2016320   5.4769450  71.9080020
  98.7395690   5.6852470  72.7199960  98.7994430   4.6628800  71.6050690
 101.2970540   8.1980150  75.1375470 101.6223950   7.3643900  74.7977700
 102.0850870   8.7208670  75.2853800  96.9522410   3.1548260  68.1634300
  97.2494740   4.0611090  68.0826320  97.5007970   2.6667040  67.5493870
  94.7060730   7.7334500  64.0325950  94.4801650   7.5171670  64.9372570
  93.9253260   8.1662960  63.6871920 101.9358490   7.7397870  62.6316600
 101.3367380   8.4633670  62.4480220 102.4838100   7.6774650  61.8493050
  97.1459940   8.6320080  74.6986220  97.0503540   7.6914810  74.5486620
  97.9891920   8.8535150  74.3034290 100.5423360   6.3761410  64.6619880
 100.9352930   6.6933610  63.8488570 100.9040210   5.4973290  64.7764400
  92.2770480   5.0433750  72.8520000  91.8833870   5.8908960  73.0592780
  91.5888880   4.4060120  73.0428640  89.5787530   2.9662210  66.8850080
  89.2900580   3.5365070  67.5975060  90.3233290   2.4866660  67.2481310
  89.7657760   6.9082330  58.0952800  89.6832430   7.8513090  58.2367790
  89.4140820   6.7657240  57.2165150 101.1278500   8.9667160  68.7570660
 100.3959620   9.4753970  69.1060760 100.7302840   8.1497140  68.4559440
  97.5655890   5.6421360  67.1623150  97.5691950   5.2011310  66.3127690
  98.4607010   5.9638690  67.2694970  93.4158270   5.5247850  66.1217360
  93.0758320   6.0023080  66.8784410  92.6535590   5.0712970  65.7618460
  97.6276040   6.6433440  60.1529910  97.7488860   6.6019920  61.1015730
  97.2424550   7.5057590  59.9976640 101.5904410   4.4200840  68.1693600
 101.6077150   4.8709490  69.0135450 101.3419990   3.5206480  68.3827040
  96.6397540   8.9534580  59.5513210  96.0714440   8.5052830  58.9249120
  97.3486540   9.3127360  59.0178360  91.7166720  12.8546600  73.4279940
  91.3321510  12.2140270  74.0262900  92.0278910  13.5582720  73.9974670
  97.8663860   9.7023140  68.9088560  98.2333990   9.2281710  69.6549900
  97.6768920  10.5764710  69.2496900  90.7304350   4.4466830  65.0382030
  90.4451270   4.0822500  65.8760650  90.6683210   3.7147290  64.4245170
  95.6563230   8.7431780  71.2272770  95.3520300   9.6223760  71.4523130
  96.6109690   8.8031570  71.2630210  94.1845020  12.9492770  61.8239620
  93.4107280  12.4090390  61.6638340  94.9139650  12.4299380  61.4857380
 100.4042940   3.3396090  61.7595400  99.5907550   2.8409260  61.6840710
 100.2104890   4.1794340  61.3431750 100.3251800  12.0167190  73.5035010
 100.2589110  11.0962860  73.2492600  99.6956940  12.1142630  74.2179650
  94.2282420  12.6173150  65.4618430  94.7461090  11.8141410  65.4075320
  93.7766440  12.5552290  66.3035260  99.1151920  13.8839430  60.7345730
  99.4567620  14.6281660  60.2389050  98.2864630  14.1970550  61.0970560
  91.7126960   9.5834520  72.3744130  91.3541900  10.2488370  72.9617470
  91.4181520   8.7518070  72.7456750  94.9140080  10.0418760  75.2583680
  94.6140220  10.1875940  74.3611500  95.6851320   9.4824050  75.1657070
 100.2568530  14.8387760  73.2538810 100.2713070  13.9068720  73.0357720
  99.5493630  14.9247520  73.8928580 101.9979330  13.2055270  66.0991240
 102.3503150  12.6083400  65.4392610 101.1141660  12.8799500  66.2699490
  98.0842610  13.9652960  63.5061650  98.7713740  14.5122170  63.8869240
  97.2975030  14.5093690  63.5411260  90.2235010   9.5825780  58.9978730
  91.0929860   9.8650580  59.2814650  89.7325330  10.3961650  58.8827540
  97.3869820  10.9698990  63.1187010  97.8432600  11.7804240  63.3447200
  97.0358030  10.6522130  63.9505500  99.6902430  16.4805330  70.3479310
 100.3344650  16.6864710  71.0252730 100.0531870  15.7193730  69.8950160
 100.9634510  14.4837680  69.0656760 101.6056740  13.7830840  69.1788930
 101.4883860  15.2636120  68.8853650  90.5906260  18.7953160  59.5640360
  90.9503900  19.3942500  58.9097630  90.4498600  19.3413050  60.3375390
  90.2875530   3.0727760  73.0516230  89.5734050   3.2724680  73.6568840
  90.7070570   2.2967330  73.4231030  90.5748120  17.0608020  74.0382760
  90.6839240  16.1202760  73.8978150  89.9228680  17.3262770  73.3896490
  98.5660710  15.3323910  75.4380880  98.2457580  14.6133150  75.9826570
  97.8919070  16.0078980  75.5116940  96.6074880  16.1784360  60.3814030
  96.5984980  16.9114050  59.7658540  95.6873240  15.9315940  60.4740990
  92.2081520  11.3999250  61.1260790  91.6009470  12.1398150  61.1356090
  92.6830870  11.4898610  60.2998990 101.7814310   5.5650070  70.8017680
 102.1495130   4.7445280  71.1297250 100.9212510   5.6251960  71.2173330
  99.5934480  16.2412600  59.0439220  99.6946460  16.0376590  58.1141200
  98.6936220  15.9870880  59.2487000  97.1160370   6.7992960  63.0263120
  96.4076520   7.2679300  63.4676730  97.4004850   6.1414970  63.6608310
  98.7416300   8.2189660  71.0255650  99.2401550   8.6935480  71.6907500
  98.8839250   7.2953180  71.2325680 101.1475800   3.5243620  64.4658910
 101.0243580   3.5429750  63.5168420 102.0960360   3.5722560  64.5857310
  98.2352590  18.7598920  63.7386890  98.4894090  18.7220310  62.8166260
  97.2865070  18.6332250  63.7315140  95.3195390   5.1078040  60.4013830
  96.1685920   5.5448190  60.3354020  94.9526660   5.4198300  61.2285890
  94.2186810  11.3610400  58.8749360  94.9850080  11.2491760  59.4374790
  94.2961500  10.6648370  58.2226130  92.9133570   8.7935470  59.5582250
  92.9937160   7.8462980  59.6699650  93.8053320   9.1242350  59.6642910
  93.7148280  18.9430860  66.6616790  94.4510760  18.3946320  66.9325360
  94.0989200  19.8086870  66.5222780  90.5993760  15.0104430  62.5358300
  89.6733540  15.2525570  62.5263710  91.0650190  15.8378690  62.4143050
  96.8250590  18.1161170  58.4842360  97.6179200  18.4050000  58.0324150
  96.3054940  17.6853340  57.8054840  90.4404370  10.6150390  74.7938420
  90.9443390  10.0357670  75.3654650  89.7011790  10.8990620  75.3314790
  97.3427990  13.3364580  58.3484710  97.2378630  12.7216930  59.0746090
  97.1752210  12.8130470  57.5647720  97.4942310  12.0221380  74.3273940
  96.7287980  12.5906380  74.2428610  97.6758270  11.7297590  73.4342170
 100.5830720  12.3984610  58.9526700 100.0340820  12.8453910  59.5969440
 101.2049980  11.8933860  59.4764370  96.2505840  11.3575530  60.8492000
  96.6722260  11.1915400  61.6923390  96.3756680  10.5475760  60.3547140
  94.4133260   7.3372080  73.6562980  93.8829720   6.8463030  73.0286320
  95.0821330   7.7656280  73.1220910  98.7633480  10.3813140  58.0969100
  99.2839140   9.6662160  57.7310250  99.4101880  11.0199010  58.3969610
  94.9005560   4.3034450  73.7360270  94.8062430   3.6855200  73.0111140
  94.3202950   5.0300740  73.5090180  97.6667000   2.8607690  70.7687660
  97.2184300   2.8831950  69.9233210  97.0332200   2.4626710  71.3657960
  98.0726550  11.7562020  71.3900100  98.4914660  12.5994750  71.2176340
  97.1535180  11.8934060  71.1606880 100.4090450   9.4878200  72.7737940
 100.5286660   8.8919340  73.5132780 101.2684450   9.5247890  72.3539240
  95.1464740   7.4308760  57.7950160  94.9453800   6.5676120  58.1563500
  94.9756790   7.3442120  56.8571760  95.9233970  18.0615030  72.5057830
  95.3855060  18.7861090  72.1866530  96.1767930  17.5845370  71.7155170
  97.1759220   6.0299550  74.0313760  97.7658910   5.7215400  74.7191580
  96.3579460   5.5579300  74.1873660  93.9447540   4.5309380  57.7828040
  94.2473440   4.5376810  56.8747190  94.6842130   4.1807240  58.2795700
  98.7796180  19.2966240  72.7644480  98.7054880  20.2001380  73.0716850
  97.8775020  18.9778140  72.7366550  97.1632470   3.4744000  58.7684240
  96.8154470   2.7967990  58.1886690  97.3645240   3.0133510  59.5827630
  99.3281510  18.4624750  60.3870840 100.2232300  18.8009720  60.4089600
  99.3599140  17.7404160  59.7595120  92.9677670  13.8351800  58.6157840
  93.4052540  14.3781470  59.2715420  93.4525400  13.0098750  58.6254180
  90.1823470  16.6240830  66.0678100  90.5126480  15.7561890  65.8356740
  90.6114470  16.8299350  66.8983060  94.7785390  14.9549840  63.7280070
  94.4780930  14.8314810  64.6283980  94.6722880  14.0958430  63.3195800
  90.6713680  17.4911420  68.8059730  90.2344670  17.6712220  69.6383880
  91.2391360  18.2486040  68.6641450  90.5038110  10.0031650  65.1648610
  89.8486950   9.7343290  64.5208310  91.3416060   9.8936130  64.7150590
  91.5414040  10.3884220  69.7051950  91.9087080  10.3011620  70.5847970
  90.9724860   9.6250770  69.6058810  91.0930040   7.2993310  73.6110370
  90.1986090   7.2660070  73.9504080  91.6327590   7.4980100  74.3761620
  89.7176190   7.2130580  61.1073940  88.8140270   7.4760780  60.9325600
  90.2016810   7.4841750  60.3273900  92.2603400   6.2696120  59.0168320
  92.9695100   5.8479340  58.5315600  91.5443340   6.3371350  58.3851670
  91.9077560   2.3235450  58.0570970  92.6305690   2.8644390  58.3752190
  92.1802080   2.0498870  57.1812510  92.9566120  14.9016910  74.8672100
  92.9135750  14.5309820  75.7486560  93.0877130  15.8394480  75.0073920
  96.6572150  16.4576500  70.4681820  96.4163510  16.7251060  69.5812340
  97.5974790  16.6282230  70.5232680  98.8626570   2.9209190  74.2238330
  98.8015460   3.5131020  74.9733740  99.8026950   2.8135150  74.0788590
 101.5001130   2.5779250  73.8630620 102.1141540   2.8958540  73.2011700
 102.0450690   2.0927840  74.4826480  92.7954150  17.8479160  71.9869880
  92.2014470  17.7163860  72.7259920  92.7877990  17.0117300  71.5211980
  92.4266380  15.2137540  70.9377920  91.7000440  14.5942830  70.8703870
  92.4875530  15.6078150  70.0676000  96.0311480  17.4282540  67.7227330
  96.5476500  16.8169900  67.1975590  96.6808860  17.9311320  68.2138340
  98.7706980  18.3191030  68.5496310  99.0584790  18.0645330  67.6729320
  99.2830200  17.7668390  69.1401880  90.7096380  18.5311930  64.1474680
  90.5418420  17.8982610  64.8456570  89.8430890  18.7371330  63.7968870
  91.3324400   2.3628710  61.6506540  92.0903760   2.4757590  61.0770570
  90.8701570   3.1997910  61.6049970  97.8738210   4.4767980  64.6408850
  97.0612720   4.1024870  64.3004730  98.3779850   3.7213060  64.9430040
  92.3159080  17.2245160  61.5924820  91.7906700  17.6053190  60.8886780
  92.2403660  17.8495930  62.3134530  93.7049550   2.8892760  60.1908510
  94.2342310   2.1022560  60.0616460  94.3377870   3.5683950  60.4244040
  95.8987390   2.6267900  63.2453900  95.2690130   1.9255210  63.4124030
  95.3592530   3.3872030  63.0287060  98.8379340  19.2407130  75.9164510
  99.7646650  19.0051400  75.9600470  98.8229770  20.0679130  75.4350540
  94.9152050  19.1727540  60.4674070  95.6470870  18.8886820  59.9197960
  95.1745720  18.9340820  61.3573450  94.0766840  15.2892270  60.4720400
  93.4475720  15.7577370  61.0206230  94.1914670  14.4441490  60.9066590
 101.5316560   9.3397930  46.6221600 101.4510610   8.4252540  46.3513310
 101.1180980   9.8365000  45.9161310  99.6634600  11.1176950  48.5030870
  98.8876700  10.6377390  48.7929440 100.3147530  10.4382600  48.3287030
  93.6800430  11.4296760  49.3806630  92.8485310  11.1745470  49.7803140
  94.2881410  11.5007530  50.1164550  93.6601690  15.4636850  49.5764650
  93.9629730  14.5734590  49.3974870  94.4045280  16.0207070  49.3486900
  92.0892380   6.3898650  43.1649020  91.2009080   6.7314620  43.0628900
  92.3733570   6.1898970  42.2729850  90.0525390   8.9904300  49.0488720
  90.6241500   8.2226500  49.0492360  90.0526930   9.2893060  48.1395330
  99.9105340  17.8095150  46.9033990  99.2916780  18.2652650  46.3328430
 100.7657120  17.9646610  46.5023690  99.1043590  13.7934140  48.5101030
  99.0351870  12.8524080  48.3490160  99.8663450  13.8835550  49.0823600
  91.2950260   4.3988660  50.8357650  91.1153100   3.5014410  51.1160410
  90.8930340   4.9460530  51.5104600 100.1348760   6.6004520  48.7369960
 100.5113580   5.7276400  48.6243630 100.0368270   6.9363220  47.8460400
  94.2653770   4.9730150  44.1987400  94.3720520   5.8733880  44.5056160
  93.3546130   4.9248120  43.9082050  91.9136930   6.8949160  49.4439990
  92.5947040   7.1587530  50.0627390  91.5984980   6.0550030  49.7778000
  96.1061500   7.9416520  48.5312580  96.6139720   8.4397490  49.1717600
  96.6374740   7.1651720  48.3551940  94.3897600   2.5815080  52.7976000
  94.3916040   3.0987470  51.9921900  93.5601910   2.1045260  52.7745930
 100.7768690  12.6934390  44.2965900 100.1585960  13.1583840  43.7328620
 101.2891940  13.3861870  44.7135410  95.6400450  12.2210260  50.9749500
  95.3069830  12.8479180  51.6170570  95.8167130  12.7472140  50.1951170
  94.0712930   4.2925040  50.8046450  94.4129740   5.1367090  50.5100320
  93.1328740   4.4408780  50.9211790  94.8519550  14.1891060  52.7898680
  95.4693550  14.8642140  52.5083130  93.9912670  14.5979040  52.6986180
  90.1451890  13.3790920  41.6705530  89.7679870  13.8678020  40.9390430
  90.4024960  14.0516200  42.3012060 100.1421580   9.8456140  43.8651160
  99.2150860   9.7793520  44.0939630 100.2946400  10.7836270  43.7506400
 100.1290660   6.1173140  40.8618320  99.1894330   6.2787100  40.9470780
 100.4473920   6.8358820  40.3154310  95.7478220  10.3720880  46.6470890
  95.3435220   9.6598130  46.1516790  95.8341340  10.0274120  47.5358930
  96.2159920  14.0588440  48.8110100  95.9188210  13.4533910  48.1317880
  97.1659740  14.0965750  48.6999460  94.4606840   7.1464090  50.4269930
  95.0121430   7.2559430  49.6523180  94.9750350   7.5201690  51.1425160
  95.3078350  13.7970130  55.4617900  94.4106880  14.0210100  55.7091300
  95.3331220  13.9205070  54.5129300  94.1349570  10.6683450  54.0375270
  93.9957340  11.5406250  54.4062670  93.2530930  10.3256260  53.8923210
 100.4578950  15.5859320  45.3440400 100.8974860  16.3283650  44.9295790
 100.3965840  15.8285890  46.2679360  95.9329920  16.6105150  56.2460420
  95.9045350  17.0148100  55.3788850  95.7694890  15.6815510  56.0832020
  92.4482850   9.2665860  44.1477540  92.3280450   9.9927950  43.5358810
  92.1383740   8.4968770  43.6705450  90.0868220  12.4381000  49.9546180
  90.1648640  12.5729770  49.0101900  90.7009900  11.7296890  50.1474300
  91.3315850  14.1381190  46.3652360  90.9243930  14.2795780  45.5105960
  92.2228860  13.8541350  46.1623570 101.1494730  18.2873100  53.2719410
 101.6639400  18.1981110  54.0741840 100.3063810  18.6332800  53.5647320
  95.6037510  18.3526970  44.4775030  95.4279990  17.4362510  44.2642830
  94.7493250  18.7114260  44.7172830  90.1427740  13.4795170  52.4940640
  90.3058780  13.0100530  51.6760010  90.6080190  12.9718730  53.1589480
  94.9146510   2.6100930  47.5301210  94.4714660   3.3910470  47.1985730
  95.4731500   2.9330820  48.2372150  99.2016320   5.4769450  53.1336530
  98.7395690   5.6852470  53.9456470  98.7994430   4.6628800  52.8307200
 101.2970540   8.1980150  56.3631980 101.6223950   7.3643900  56.0234210
 102.0850870   8.7208670  56.5110310  96.9522410   3.1548260  49.3890810
  97.2494740   4.0611090  49.3082830  97.5007970   2.6667040  48.7750380
  94.7060730   7.7334500  45.2582460  94.4801650   7.5171670  46.1629080
  93.9253260   8.1662960  44.9128430 101.9358490   7.7397870  43.8573110
 101.3367380   8.4633670  43.6736730 102.4838100   7.6774650  43.0749560
  97.1459940   8.6320080  55.9242730  97.0503540   7.6914810  55.7743130
  97.9891920   8.8535150  55.5290800 100.5423360   6.3761410  45.8876390
 100.9352930   6.6933610  45.0745080 100.9040210   5.4973290  46.0020910
  92.2770480   5.0433750  54.0776510  91.8833870   5.8908960  54.2849290
  91.5888880   4.4060120  54.2685150  98.8515530   5.1268720  57.1473250
  98.1613850   4.9340920  57.7819340  99.5947830   5.4103360  57.6797550
  89.5787530   2.9662210  48.1106590  89.2900580   3.5365070  48.8231570
  90.3233290   2.4866660  48.4737820  89.7657760   6.9082330  39.3209310
  89.6832430   7.8513090  39.4624300  89.4140820   6.7657240  38.4421660
 101.1278500   8.9667160  49.9827170 100.3959620   9.4753970  50.3317270
 100.7302840   8.1497140  49.6815950  97.5655890   5.6421360  48.3879660
  97.5691950   5.2011310  47.5384200  98.4607010   5.9638690  48.4951480
  93.4158270   5.5247850  47.3473870  93.0758320   6.0023080  48.1040920
  92.6535590   5.0712970  46.9874970  97.6276040   6.6433440  41.3786420
  97.7488860   6.6019920  42.3272240  97.2424550   7.5057590  41.2233150
 101.5904410   4.4200840  49.3950110 101.6077150   4.8709490  50.2391960
 101.3419990   3.5206480  49.6083550  96.6397540   8.9534580  40.7769720
  96.0714440   8.5052830  40.1505630  97.3486540   9.3127360  40.2434870
  91.7166720  12.8546600  54.6536450  91.3321510  12.2140270  55.2519410
  92.0278910  13.5582720  55.2231180  97.8663860   9.7023140  50.1345070
  98.2333990   9.2281710  50.8806410  97.6768920  10.5764710  50.4753410
  90.7304350   4.4466830  46.2638540  90.4451270   4.0822500  47.1017160
  90.6683210   3.7147290  45.6501680  95.6563230   8.7431780  52.4529280
  95.3520300   9.6223760  52.6779640  96.6109690   8.8031570  52.4886720
  94.1845020  12.9492770  43.0496130  93.4107280  12.4090390  42.8894850
  94.9139650  12.4299380  42.7113890 100.4042940   3.3396090  42.9851910
  99.5907550   2.8409260  42.9097220 100.2104890   4.1794340  42.5688260
 100.3251800  12.0167190  54.7291520 100.2589110  11.0962860  54.4749110
  99.6956940  12.1142630  55.4436160  94.2282420  12.6173150  46.6874940
  94.7461090  11.8141410  46.6331830  93.7766440  12.5552290  47.5291770
  99.1151920  13.8839430  41.9602240  99.4567620  14.6281660  41.4645560
  98.2864630  14.1970550  42.3227070  91.7126960   9.5834520  53.6000640
  91.3541900  10.2488370  54.1873980  91.4181520   8.7518070  53.9713260
  94.9140080  10.0418760  56.4840190  94.6140220  10.1875940  55.5868010
  95.6851320   9.4824050  56.3913580 100.2568530  14.8387760  54.4795320
 100.2713070  13.9068720  54.2614230  99.5493630  14.9247520  55.1185090
 101.9979330  13.2055270  47.3247750 102.3503150  12.6083400  46.6649120
 101.1141660  12.8799500  47.4956000  98.0842610  13.9652960  44.7318160
  98.7713740  14.5122170  45.1125750  97.2975030  14.5093690  44.7667770
  90.2235010   9.5825780  40.2235240  91.0929860   9.8650580  40.5071160
  89.7325330  10.3961650  40.1084050  97.3869820  10.9698990  44.3443520
  97.8432600  11.7804240  44.5703710  97.0358030  10.6522130  45.1762010
  99.6902430  16.4805330  51.5735820 100.3344650  16.6864710  52.2509240
 100.0531870  15.7193730  51.1206670 100.9634510  14.4837680  50.2913270
 101.6056740  13.7830840  50.4045440 101.4883860  15.2636120  50.1110160
  90.5906260  18.7953160  40.7896870  90.9503900  19.3942500  40.1354140
  90.4498600  19.3413050  41.5631900  90.2875530   3.0727760  54.2772740
  89.5734050   3.2724680  54.8825350  90.7070570   2.2967330  54.6487540
  90.5748120  17.0608020  55.2639270  90.6839240  16.1202760  55.1234660
  89.9228680  17.3262770  54.6153000  98.5660710  15.3323910  56.6637390
  98.2457580  14.6133150  57.2083080  97.8919070  16.0078980  56.7373450
  96.6074880  16.1784360  41.6070540  96.5984980  16.9114050  40.9915050
  95.6873240  15.9315940  41.6997500  92.2081520  11.3999250  42.3517300
  91.6009470  12.1398150  42.3612600  92.6830870  11.4898610  41.5255500
 101.7814310   5.5650070  52.0274190 102.1495130   4.7445280  52.3553760
 100.9212510   5.6251960  52.4429840  99.5934480  16.2412600  40.2695730
  99.6946460  16.0376590  39.3397710  98.6936220  15.9870880  40.4743510
  97.1160370   6.7992960  44.2519630  96.4076520   7.2679300  44.6933240
  97.4004850   6.1414970  44.8864820  98.7416300   8.2189660  52.2512160
  99.2401550   8.6935480  52.9164010  98.8839250   7.2953180  52.4582190
 101.1475800   3.5243620  45.6915420 101.0243580   3.5429750  44.7424930
 102.0960360   3.5722560  45.8113820  98.2352590  18.7598920  44.9643400
  98.4894090  18.7220310  44.0422770  97.2865070  18.6332250  44.9571650
  95.3195390   5.1078040  41.6270340  96.1685920   5.5448190  41.5610530
  94.9526660   5.4198300  42.4542400  94.2186810  11.3610400  40.1005870
  94.9850080  11.2491760  40.6631300  94.2961500  10.6648370  39.4482640
  92.9133570   8.7935470  40.7838760  92.9937160   7.8462980  40.8956160
  93.8053320   9.1242350  40.8899420  93.7148280  18.9430860  47.8873300
  94.4510760  18.3946320  48.1581870  94.0989200  19.8086870  47.7479290
  90.5993760  15.0104430  43.7614810  89.6733540  15.2525570  43.7520220
  91.0650190  15.8378690  43.6399560  92.7206560  18.1276930  57.0758880
  93.5219290  18.4488980  57.4894280  92.2058380  17.7672510  57.7978790
  96.8250590  18.1161170  39.7098870  97.6179200  18.4050000  39.2580660
  96.3054940  17.6853340  39.0311350 101.5571190  14.2356800  57.0234290
 100.9509350  14.2588400  56.2830040 101.2525300  13.5039840  57.5601540
  90.4404370  10.6150390  56.0194930  90.9443390  10.0357670  56.5911160
  89.7011790  10.8990620  56.5571300  97.3427990  13.3364580  39.5741220
  97.2378630  12.7216930  40.3002600  97.1752210  12.8130470  38.7904230
  97.4942310  12.0221380  55.5530450  96.7287980  12.5906380  55.4685120
  97.6758270  11.7297590  54.6598680 100.5830720  12.3984610  40.1783210
 100.0340820  12.8453910  40.8225950 101.2049980  11.8933860  40.7020880
  92.4727450   8.7579980  56.9145000  92.5132790   8.4593850  57.8230230
  93.3272950   9.1587590  56.7552520  96.2505840  11.3575530  42.0748510
  96.6722260  11.1915400  42.9179900  96.3756680  10.5475760  41.5803650
  94.4133260   7.3372080  54.8819490  93.8829720   6.8463030  54.2542830
  95.0821330   7.7656280  54.3477420  98.7633480  10.3813140  39.3225610
  99.2839140   9.6662160  38.9566760  99.4101880  11.0199010  39.6226120
  94.9005560   4.3034450  54.9616780  94.8062430   3.6855200  54.2367650
  94.3202950   5.0300740  54.7346690  97.6667000   2.8607690  51.9944170
  97.2184300   2.8831950  51.1489720  97.0332200   2.4626710  52.5914470
  98.0726550  11.7562020  52.6156610  98.4914660  12.5994750  52.4432850
  97.1535180  11.8934060  52.3863390 100.4090450   9.4878200  53.9994450
 100.5286660   8.8919340  54.7389290 101.2684450   9.5247890  53.5795750
  95.1464740   7.4308760  39.0206670  94.9453800   6.5676120  39.3820010
  94.9756790   7.3442120  38.0828270  95.9233970  18.0615030  53.7314340
  95.3855060  18.7861090  53.4123040  96.1767930  17.5845370  52.9411680
  97.1759220   6.0299550  55.2570270  97.7658910   5.7215400  55.9448090
  96.3579460   5.5579300  55.4130170  93.9447540   4.5309380  39.0084550
  94.2473440   4.5376810  38.1003700  94.6842130   4.1807240  39.5052210
  98.7796180  19.2966240  53.9900990  98.7054880  20.2001380  54.2973360
  97.8775020  18.9778140  53.9623060  97.1632470   3.4744000  39.9940750
  96.8154470   2.7967990  39.4143200  97.3645240   3.0133510  40.8084140
  99.3281510  18.4624750  41.6127350 100.2232300  18.8009720  41.6346110
  99.3599140  17.7404160  40.9851630  92.9677670  13.8351800  39.8414350
  93.4052540  14.3781470  40.4971930  93.4525400  13.0098750  39.8510690
  90.1823470  16.6240830  47.2934610  90.5126480  15.7561890  47.0613250
  90.6114470  16.8299350  48.1239570  94.7785390  14.9549840  44.9536580
  94.4780930  14.8314810  45.8540490  94.6722880  14.0958430  44.5452310
  90.6713680  17.4911420  50.0316240  90.2344670  17.6712220  50.8640390
  91.2391360  18.2486040  49.8897960  90.5038110  10.0031650  46.3905120
  89.8486950   9.7343290  45.7464820  91.3416060   9.8936130  45.9407100
  91.5414040  10.3884220  50.9308460  91.9087080  10.3011620  51.8104480
  90.9724860   9.6250770  50.8315320  91.0930040   7.2993310  54.8366880
  90.1986090   7.2660070  55.1760590  91.6327590   7.4980100  55.6018130
  89.7176190   7.2130580  42.3330450  88.8140270   7.4760780  42.1582110
  90.2016810   7.4841750  41.5530410  92.2603400   6.2696120  40.2424830
  92.9695100   5.8479340  39.7572110  91.5443340   6.3371350  39.6108180
  91.9077560   2.3235450  39.2827480  92.6305690   2.8644390  39.6008700
  92.1802080   2.0498870  38.4069020  92.9566120  14.9016910  56.0928610
  92.9135750  14.5309820  56.9743070  93.0877130  15.8394480  56.2330430
  96.6572150  16.4576500  51.6938330  96.4163510  16.7251060  50.8068850
  97.5974790  16.6282230  51.7489190  98.8626570   2.9209190  55.4494840
  98.8015460   3.5131020  56.1990250  99.8026950   2.8135150  55.3045100
 101.5001130   2.5779250  55.0887130 102.1141540   2.8958540  54.4268210
 102.0450690   2.0927840  55.7082990  92.7954150  17.8479160  53.2126390
  92.2014470  17.7163860  53.9516430  92.7877990  17.0117300  52.7468490
  92.4266380  15.2137540  52.1634430  91.7000440  14.5942830  52.0960380
  92.4875530  15.6078150  51.2932510  96.0311480  17.4282540  48.9483840
  96.5476500  16.8169900  48.4232100  96.6808860  17.9311320  49.4394850
  98.7706980  18.3191030  49.7752820  99.0584790  18.0645330  48.8985830
  99.2830200  17.7668390  50.3658390  90.7096380  18.5311930  45.3731190
  90.5418420  17.8982610  46.0713080  89.8430890  18.7371330  45.0225380
  91.3324400   2.3628710  42.8763050  92.0903760   2.4757590  42.3027080
  90.8701570   3.1997910  42.8306480  97.8738210   4.4767980  45.8665360
  97.0612720   4.1024870  45.5261240  98.3779850   3.7213060  46.1686550
  92.3159080  17.2245160  42.8181330  91.7906700  17.6053190  42.1143290
  92.2403660  17.8495930  43.5391040  93.7049550   2.8892760  41.4165020
  94.2342310   2.1022560  41.2872970  94.3377870   3.5683950  41.6500550
  95.8987390   2.6267900  44.4710410  95.2690130   1.9255210  44.6380540
  95.3592530   3.3872030  44.2543570  98.8379340  19.2407130  57.1421020
  99.7646650  19.0051400  57.1856980  98.8229770  20.0679130  56.6607050
  94.9152050  19.1727540  41.6930580  95.6470870  18.8886820  41.1454470
  95.1745720  18.9340820  42.5829960  94.0766840  15.2892270  41.6976910
  93.4475720  15.7577370  42.2462740  94.1914670  14.4441490  42.1323100
 101.5316560   9.3397930  27.8478110 101.4510610   8.4252540  27.5769820
 101.1180980   9.8365000  27.1417820  99.6634600  11.1176950  29.7287380
  98.8876700  10.6377390  30.0185950 100.3147530  10.4382600  29.5543540
  93.6800430  11.4296760  30.6063140  92.8485310  11.1745470  31.0059650
  94.2881410  11.5007530  31.3421060  93.6601690  15.4636850  30.8021160
  93.9629730  14.5734590  30.6231380  94.4045280  16.0207070  30.5743410
  92.0892380   6.3898650  24.3905530  91.2009080   6.7314620  24.2885410
  92.3733570   6.1898970  23.4986360  90.0525390   8.9904300  30.2745230
  90.6241500   8.2226500  30.2748870  90.0526930   9.2893060  29.3651840
  99.9105340  17.8095150  28.1290500  99.2916780  18.2652650  27.5584940
 100.7657120  17.9646610  27.7280200  99.1043590  13.7934140  29.7357540
  99.0351870  12.8524080  29.5746670  99.8663450  13.8835550  30.3080110
  91.2950260   4.3988660  32.0614160  91.1153100   3.5014410  32.3416920
  90.8930340   4.9460530  32.7361110 100.1348760   6.6004520  29.9626470
 100.5113580   5.7276400  29.8500140 100.0368270   6.9363220  29.0716910
  94.2653770   4.9730150  25.4243910  94.3720520   5.8733880  25.7312670
  93.3546130   4.9248120  25.1338560  91.9136930   6.8949160  30.6696500
  92.5947040   7.1587530  31.2883900  91.5984980   6.0550030  31.0034510
  96.1061500   7.9416520  29.7569090  96.6139720   8.4397490  30.3974110
  96.6374740   7.1651720  29.5808450  94.3897600   2.5815080  34.0232510
  94.3916040   3.0987470  33.2178410  93.5601910   2.1045260  34.0002440
 100.7768690  12.6934390  25.5222410 100.1585960  13.1583840  24.9585130
 101.2891940  13.3861870  25.9391920  95.6400450  12.2210260  32.2006010
  95.3069830  12.8479180  32.8427080  95.8167130  12.7472140  31.4207680
  94.0712930   4.2925040  32.0302960  94.4129740   5.1367090  31.7356830
  93.1328740   4.4408780  32.1468300  94.8519550  14.1891060  34.0155190
  95.4693550  14.8642140  33.7339640  93.9912670  14.5979040  33.9242690
  90.1451890  13.3790920  22.8962040  89.7679870  13.8678020  22.1646940
  90.4024960  14.0516200  23.5268570 100.1421580   9.8456140  25.0907670
  99.2150860   9.7793520  25.3196140 100.2946400  10.7836270  24.9762910
 100.1290660   6.1173140  22.0874830  99.1894330   6.2787100  22.1727290
 100.4473920   6.8358820  21.5410820  95.7478220  10.3720880  27.8727400
  95.3435220   9.6598130  27.3773300  95.8341340  10.0274120  28.7615440
  96.2159920  14.0588440  30.0366610  95.9188210  13.4533910  29.3574390
  97.1659740  14.0965750  29.9255970  94.4606840   7.1464090  31.6526440
  95.0121430   7.2559430  30.8779690  94.9750350   7.5201690  32.3681670
  95.3078350  13.7970130  36.6874410  94.4106880  14.0210100  36.9347810
  95.3331220  13.9205070  35.7385810  94.1349570  10.6683450  35.2631780
  93.9957340  11.5406250  35.6319180  93.2530930  10.3256260  35.1179720
 100.4578950  15.5859320  26.5696910 100.8974860  16.3283650  26.1552300
 100.3965840  15.8285890  27.4935870  95.9329920  16.6105150  37.4716930
  95.9045350  17.0148100  36.6045360  95.7694890  15.6815510  37.3088530
  92.4482850   9.2665860  25.3734050  92.3280450   9.9927950  24.7615320
  92.1383740   8.4968770  24.8961960  90.0868220  12.4381000  31.1802690
  90.1648640  12.5729770  30.2358410  90.7009900  11.7296890  31.3730810
  91.3315850  14.1381190  27.5908870  90.9243930  14.2795780  26.7362470
  92.2228860  13.8541350  27.3880080 101.1494730  18.2873100  34.4975920
 101.6639400  18.1981110  35.2998350 100.3063810  18.6332800  34.7903830
  95.6037510  18.3526970  25.7031540  95.4279990  17.4362510  25.4899340
  94.7493250  18.7114260  25.9429340  90.1427740  13.4795170  33.7197150
  90.3058780  13.0100530  32.9016520  90.6080190  12.9718730  34.3845990
  94.9146510   2.6100930  28.7557720  94.4714660   3.3910470  28.4242240
  95.4731500   2.9330820  29.4628660  99.2016320   5.4769450  34.3593040
  98.7395690   5.6852470  35.1712980  98.7994430   4.6628800  34.0563710
 101.2970540   8.1980150  37.5888490 101.6223950   7.3643900  37.2490720
 102.0850870   8.7208670  37.7366820  96.9522410   3.1548260  30.6147320
  97.2494740   4.0611090  30.5339340  97.5007970   2.6667040  30.0006890
  94.7060730   7.7334500  26.4838970  94.4801650   7.5171670  27.3885590
  93.9253260   8.1662960  26.1384940 101.9358490   7.7397870  25.0829620
 101.3367380   8.4633670  24.8993240 102.4838100   7.6774650  24.3006070
  97.1459940   8.6320080  37.1499240  97.0503540   7.6914810  36.9999640
  97.9891920   8.8535150  36.7547310 100.5423360   6.3761410  27.1132900
 100.9352930   6.6933610  26.3001590 100.9040210   5.4973290  27.2277420
  92.2770480   5.0433750  35.3033020  91.8833870   5.8908960  35.5105800
  91.5888880   4.4060120  35.4941660  98.8515530   5.1268720  38.3729760
  98.1613850   4.9340920  39.0075850  99.5947830   5.4103360  38.9054060
  89.5787530   2.9662210  29.3363100  89.2900580   3.5365070  30.0488080
  90.3233290   2.4866660  29.6994330  89.7657760   6.9082330  20.5465820
  89.6832430   7.8513090  20.6880810  89.4140820   6.7657240  19.6678170
 101.1278500   8.9667160  31.2083680 100.3959620   9.4753970  31.5573780
 100.7302840   8.1497140  30.9072460  97.5655890   5.6421360  29.6136170
  97.5691950   5.2011310  28.7640710  98.4607010   5.9638690  29.7207990
  93.4158270   5.5247850  28.5730380  93.0758320   6.0023080  29.3297430
  92.6535590   5.0712970  28.2131480  97.6276040   6.6433440  22.6042930
  97.7488860   6.6019920  23.5528750  97.2424550   7.5057590  22.4489660
 101.5904410   4.4200840  30.6206620 101.6077150   4.8709490  31.4648470
 101.3419990   3.5206480  30.8340060  96.6397540   8.9534580  22.0026230
  96.0714440   8.5052830  21.3762140  97.3486540   9.3127360  21.4691380
  91.7166720  12.8546600  35.8792960  91.3321510  12.2140270  36.4775920
  92.0278910  13.5582720  36.4487690  97.8663860   9.7023140  31.3601580
  98.2333990   9.2281710  32.1062920  97.6768920  10.5764710  31.7009920
  90.7304350   4.4466830  27.4895050  90.4451270   4.0822500  28.3273670
  90.6683210   3.7147290  26.8758190  95.6563230   8.7431780  33.6785790
  95.3520300   9.6223760  33.9036150  96.6109690   8.8031570  33.7143230
  94.1845020  12.9492770  24.2752640  93.4107280  12.4090390  24.1151360
  94.9139650  12.4299380  23.9370400 100.4042940   3.3396090  24.2108420
  99.5907550   2.8409260  24.1353730 100.2104890   4.1794340  23.7944770
 100.3251800  12.0167190  35.9548030 100.2589110  11.0962860  35.7005620
  99.6956940  12.1142630  36.6692670  94.2282420  12.6173150  27.9131450
  94.7461090  11.8141410  27.8588340  93.7766440  12.5552290  28.7548280
  99.1151920  13.8839430  23.1858750  99.4567620  14.6281660  22.6902070
  98.2864630  14.1970550  23.5483580  91.7126960   9.5834520  34.8257150
  91.3541900  10.2488370  35.4130490  91.4181520   8.7518070  35.1969770
  94.9140080  10.0418760  37.7096700  94.6140220  10.1875940  36.8124520
  95.6851320   9.4824050  37.6170090 100.2568530  14.8387760  35.7051830
 100.2713070  13.9068720  35.4870740  99.5493630  14.9247520  36.3441600
 101.9979330  13.2055270  28.5504260 102.3503150  12.6083400  27.8905630
 101.1141660  12.8799500  28.7212510  98.0842610  13.9652960  25.9574670
  98.7713740  14.5122170  26.3382260  97.2975030  14.5093690  25.9924280
  90.2235010   9.5825780  21.4491750  91.0929860   9.8650580  21.7327670
  89.7325330  10.3961650  21.3340560  97.3869820  10.9698990  25.5700030
  97.8432600  11.7804240  25.7960220  97.0358030  10.6522130  26.4018520
  99.6902430  16.4805330  32.7992330 100.3344650  16.6864710  33.4765750
 100.0531870  15.7193730  32.3463180 100.9634510  14.4837680  31.5169780
 101.6056740  13.7830840  31.6301950 101.4883860  15.2636120  31.3366670
  90.5906260  18.7953160  22.0153380  90.9503900  19.3942500  21.3610650
  90.4498600  19.3413050  22.7888410  90.2875530   3.0727760  35.5029250
  89.5734050   3.2724680  36.1081860  90.7070570   2.2967330  35.8744050
  90.5748120  17.0608020  36.4895780  90.6839240  16.1202760  36.3491170
  89.9228680  17.3262770  35.8409510  98.5660710  15.3323910  37.8893900
  98.2457580  14.6133150  38.4339590  97.8919070  16.0078980  37.9629960
  96.6074880  16.1784360  22.8327050  96.5984980  16.9114050  22.2171560
  95.6873240  15.9315940  22.9254010  92.2081520  11.3999250  23.5773810
  91.6009470  12.1398150  23.5869110  92.6830870  11.4898610  22.7512010
 101.7814310   5.5650070  33.2530700 102.1495130   4.7445280  33.5810270
 100.9212510   5.6251960  33.6686350  99.5934480  16.2412600  21.4952240
  99.6946460  16.0376590  20.5654220  98.6936220  15.9870880  21.7000020
  97.1160370   6.7992960  25.4776140  96.4076520   7.2679300  25.9189750
  97.4004850   6.1414970  26.1121330  98.7416300   8.2189660  33.4768670
  99.2401550   8.6935480  34.1420520  98.8839250   7.2953180  33.6838700
 101.1475800   3.5243620  26.9171930 101.0243580   3.5429750  25.9681440
 102.0960360   3.5722560  27.0370330  98.2352590  18.7598920  26.1899910
  98.4894090  18.7220310  25.2679280  97.2865070  18.6332250  26.1828160
  95.3195390   5.1078040  22.8526850  96.1685920   5.5448190  22.7867040
  94.9526660   5.4198300  23.6798910  94.2186810  11.3610400  21.3262380
  94.9850080  11.2491760  21.8887810  94.2961500  10.6648370  20.6739150
  92.9133570   8.7935470  22.0095270  92.9937160   7.8462980  22.1212670
  93.8053320   9.1242350  22.1155930  93.7148280  18.9430860  29.1129810
  94.4510760  18.3946320  29.3838380  94.0989200  19.8086870  28.9735800
  90.5993760  15.0104430  24.9871320  89.6733540  15.2525570  24.9776730
  91.0650190  15.8378690  24.8656070  92.7206560  18.1276930  38.3015390
  93.5219290  18.4488980  38.7150790  92.2058380  17.7672510  39.0235300
  96.8250590  18.1161170  20.9355380  97.6179200  18.4050000  20.4837170
  96.3054940  17.6853340  20.2567860 101.5571190  14.2356800  38.2490800
 100.9509350  14.2588400  37.5086550 101.2525300  13.5039840  38.7858050
  90.4404370  10.6150390  37.2451440  90.9443390  10.0357670  37.8167670
  89.7011790  10.8990620  37.7827810  97.3427990  13.3364580  20.7997730
  97.2378630  12.7216930  21.5259110  97.1752210  12.8130470  20.0160740
  97.4942310  12.0221380  36.7786960  96.7287980  12.5906380  36.6941630
  97.6758270  11.7297590  35.8855190 100.5830720  12.3984610  21.4039720
 100.0340820  12.8453910  22.0482460 101.2049980  11.8933860  21.9277390
  92.4727450   8.7579980  38.1401510  92.5132790   8.4593850  39.0486740
  93.3272950   9.1587590  37.9809030  96.2505840  11.3575530  23.3005020
  96.6722260  11.1915400  24.1436410  96.3756680  10.5475760  22.8060160
  94.4133260   7.3372080  36.1076000  93.8829720   6.8463030  35.4799340
  95.0821330   7.7656280  35.5733930  98.7633480  10.3813140  20.5482120
  99.2839140   9.6662160  20.1823270  99.4101880  11.0199010  20.8482630
  94.9005560   4.3034450  36.1873290  94.8062430   3.6855200  35.4624160
  94.3202950   5.0300740  35.9603200  97.6667000   2.8607690  33.2200680
  97.2184300   2.8831950  32.3746230  97.0332200   2.4626710  33.8170980
  98.0726550  11.7562020  33.8413120  98.4914660  12.5994750  33.6689360
  97.1535180  11.8934060  33.6119900 100.4090450   9.4878200  35.2250960
 100.5286660   8.8919340  35.9645800 101.2684450   9.5247890  34.8052260
  95.1464740   7.4308760  20.2463180  94.9453800   6.5676120  20.6076520
  94.9756790   7.3442120  19.3084780  95.9233970  18.0615030  34.9570850
  95.3855060  18.7861090  34.6379550  96.1767930  17.5845370  34.1668190
  97.1759220   6.0299550  36.4826780  97.7658910   5.7215400  37.1704600
  96.3579460   5.5579300  36.6386680  93.9447540   4.5309380  20.2341060
  94.2473440   4.5376810  19.3260210  94.6842130   4.1807240  20.7308720
  98.7796180  19.2966240  35.2157500  98.7054880  20.2001380  35.5229870
  97.8775020  18.9778140  35.1879570  97.1632470   3.4744000  21.2197260
  96.8154470   2.7967990  20.6399710  97.3645240   3.0133510  22.0340650
  99.3281510  18.4624750  22.8383860 100.2232300  18.8009720  22.8602620
  99.3599140  17.7404160  22.2108140  92.9677670  13.8351800  21.0670860
  93.4052540  14.3781470  21.7228440  93.4525400  13.0098750  21.0767200
  90.1823470  16.6240830  28.5191120  90.5126480  15.7561890  28.2869760
  90.6114470  16.8299350  29.3496080  94.7785390  14.9549840  26.1793090
  94.4780930  14.8314810  27.0797000  94.6722880  14.0958430  25.7708820
  90.6713680  17.4911420  31.2572750  90.2344670  17.6712220  32.0896900
  91.2391360  18.2486040  31.1154470  90.5038110  10.0031650  27.6161630
  89.8486950   9.7343290  26.9721330  91.3416060   9.8936130  27.1663610
  91.5414040  10.3884220  32.1564970  91.9087080  10.3011620  33.0360990
  90.9724860   9.6250770  32.0571830  91.0930040   7.2993310  36.0623390
  90.1986090   7.2660070  36.4017100  91.6327590   7.4980100  36.8274640
  89.7176190   7.2130580  23.5586960  88.8140270   7.4760780  23.3838620
  90.2016810   7.4841750  22.7786920  92.2603400   6.2696120  21.4681340
  92.9695100   5.8479340  20.9828620  91.5443340   6.3371350  20.8364690
  91.9077560   2.3235450  20.5083990  92.6305690   2.8644390  20.8265210
  92.1802080   2.0498870  19.6325530  92.9566120  14.9016910  37.3185120
  92.9135750  14.5309820  38.1999580  93.0877130  15.8394480  37.4586940
  96.6572150  16.4576500  32.9194840  96.4163510  16.7251060  32.0325360
  97.5974790  16.6282230  32.9745700  98.8626570   2.9209190  36.6751350
  98.8015460   3.5131020  37.4246760  99.8026950   2.8135150  36.5301610
 101.5001130   2.5779250  36.3143640 102.1141540   2.8958540  35.6524720
 102.0450690   2.0927840  36.9339500  92.7954150  17.8479160  34.4382900
  92.2014470  17.7163860  35.1772940  92.7877990  17.0117300  33.9725000
  92.4266380  15.2137540  33.3890940  91.7000440  14.5942830  33.3216890
  92.4875530  15.6078150  32.5189020  96.0311480  17.4282540  30.1740350
  96.5476500  16.8169900  29.6488610  96.6808860  17.9311320  30.6651360
  98.7706980  18.3191030  31.0009330  99.0584790  18.0645330  30.1242340
  99.2830200  17.7668390  31.5914900  90.7096380  18.5311930  26.5987700
  90.5418420  17.8982610  27.2969590  89.8430890  18.7371330  26.2481890
  91.3324400   2.3628710  24.1019560  92.0903760   2.4757590  23.5283590
  90.8701570   3.1997910  24.0562990  97.8738210   4.4767980  27.0921870
  97.0612720   4.1024870  26.7517750  98.3779850   3.7213060  27.3943060
  92.3159080  17.2245160  24.0437840  91.7906700  17.6053190  23.3399800
  92.2403660  17.8495930  24.7647550  93.7049550   2.8892760  22.6421530
  94.2342310   2.1022560  22.5129480  94.3377870   3.5683950  22.8757060
  95.8987390   2.6267900  25.6966920  95.2690130   1.9255210  25.8637050
  95.3592530   3.3872030  25.4800080  98.8379340  19.2407130  38.3677530
  99.7646650  19.0051400  38.4113490  98.8229770  20.0679130  37.8863560
  94.9152050  19.1727540  22.9187090  95.6470870  18.8886820  22.3710980
  95.1745720  18.9340820  23.8086470  94.0766840  15.2892270  22.9233420
  93.4475720  15.7577370  23.4719250  94.1914670  14.4441490  23.3579610
 101.5316560   9.3397930   9.0734620 101.4510610   8.4252540   8.8026330
 101.1180980   9.8365000   8.3674330  99.6634600  11.1176950  10.9543890
  98.8876700  10.6377390  11.2442460 100.3147530  10.4382600  10.7800050
  93.6800430  11.4296760  11.8319650  92.8485310  11.1745470  12.2316160
  94.2881410  11.5007530  12.5677570  93.6601690  15.4636850  12.0277670
  93.9629730  14.5734590  11.8487890  94.4045280  16.0207070  11.7999920
  92.0892380   6.3898650   5.6162040  91.2009080   6.7314620   5.5141920
  92.3733570   6.1898970   4.7242870  90.0525390   8.9904300  11.5001740
  90.6241500   8.2226500  11.5005380  90.0526930   9.2893060  10.5908350
  99.9105340  17.8095150   9.3547010  99.2916780  18.2652650   8.7841450
 100.7657120  17.9646610   8.9536710  99.1043590  13.7934140  10.9614050
  99.0351870  12.8524080  10.8003180  99.8663450  13.8835550  11.5336620
  91.2950260   4.3988660  13.2870670  91.1153100   3.5014410  13.5673430
  90.8930340   4.9460530  13.9617620 100.1348760   6.6004520  11.1882980
 100.5113580   5.7276400  11.0756650 100.0368270   6.9363220  10.2973420
  94.2653770   4.9730150   6.6500420  94.3720520   5.8733880   6.9569180
  93.3546130   4.9248120   6.3595070  91.9136930   6.8949160  11.8953010
  92.5947040   7.1587530  12.5140410  91.5984980   6.0550030  12.2291020
  96.1061500   7.9416520  10.9825600  96.6139720   8.4397490  11.6230620
  96.6374740   7.1651720  10.8064960  94.3897600   2.5815080  15.2489020
  94.3916040   3.0987470  14.4434920  93.5601910   2.1045260  15.2258950
 100.7768690  12.6934390   6.7478920 100.1585960  13.1583840   6.1841640
 101.2891940  13.3861870   7.1648430  95.6400450  12.2210260  13.4262520
  95.3069830  12.8479180  14.0683590  95.8167130  12.7472140  12.6464190
  94.0712930   4.2925040  13.2559470  94.4129740   5.1367090  12.9613340
  93.1328740   4.4408780  13.3724810  94.8519550  14.1891060  15.2411700
  95.4693550  14.8642140  14.9596150  93.9912670  14.5979040  15.1499200
  90.1451890  13.3790920   4.1218550  89.7679870  13.8678020   3.3903450
  90.4024960  14.0516200   4.7525080 100.1421580   9.8456140   6.3164180
  99.2150860   9.7793520   6.5452650 100.2946400  10.7836270   6.2019420
 100.1290660   6.1173140   3.3131340  99.1894330   6.2787100   3.3983800
 100.4473920   6.8358820   2.7667330  95.7478220  10.3720880   9.0983910
  95.3435220   9.6598130   8.6029810  95.8341340  10.0274120   9.9871950
  96.2159920  14.0588440  11.2623120  95.9188210  13.4533910  10.5830900
  97.1659740  14.0965750  11.1512480  94.4606840   7.1464090  12.8782950
  95.0121430   7.2559430  12.1036200  94.9750350   7.5201690  13.5938180
  95.3078350  13.7970130  17.9130920  94.4106880  14.0210100  18.1604320
  95.3331220  13.9205070  16.9642320  94.1349570  10.6683450  16.4888290
  93.9957340  11.5406250  16.8575690  93.2530930  10.3256260  16.3436230
 100.4578950  15.5859320   7.7953420 100.8974860  16.3283650   7.3808810
 100.3965840  15.8285890   8.7192380  95.9329920  16.6105150  18.6973440
  95.9045350  17.0148100  17.8301870  95.7694890  15.6815510  18.5345040
  92.4482850   9.2665860   6.5990560  92.3280450   9.9927950   5.9871830
  92.1383740   8.4968770   6.1218470  90.0868220  12.4381000  12.4059200
  90.1648640  12.5729770  11.4614920  90.7009900  11.7296890  12.5987320
  91.3315850  14.1381190   8.8165380  90.9243930  14.2795780   7.9618980
  92.2228860  13.8541350   8.6136590 101.1494730  18.2873100  15.7232430
 101.6639400  18.1981110  16.5254860 100.3063810  18.6332800  16.0160340
  95.6037510  18.3526970   6.9288050  95.4279990  17.4362510   6.7155850
  94.7493250  18.7114260   7.1685850  90.1427740  13.4795170  14.9453660
  90.3058780  13.0100530  14.1273030  90.6080190  12.9718730  15.6102500
  94.9146510   2.6100930   9.9814230  94.4714660   3.3910470   9.6498750
  95.4731500   2.9330820  10.6885170  99.2016320   5.4769450  15.5849550
  98.7395690   5.6852470  16.3969490  98.7994430   4.6628800  15.2820220
 101.2970540   8.1980150  18.8145000 101.6223950   7.3643900  18.4747230
 102.0850870   8.7208670  18.9623330  96.9522410   3.1548260  11.8403830
  97.2494740   4.0611090  11.7595850  97.5007970   2.6667040  11.2263400
  94.7060730   7.7334500   7.7095480  94.4801650   7.5171670   8.6142100
  93.9253260   8.1662960   7.3641450 101.9358490   7.7397870   6.3086130
 101.3367380   8.4633670   6.1249750 102.4838100   7.6774650   5.5262580
  97.1459940   8.6320080  18.3755750  97.0503540   7.6914810  18.2256150
  97.9891920   8.8535150  17.9803820 100.5423360   6.3761410   8.3389410
 100.9352930   6.6933610   7.5258100 100.9040210   5.4973290   8.4533930
  92.2770480   5.0433750  16.5289530  91.8833870   5.8908960  16.7362310
  91.5888880   4.4060120  16.7198170  98.8515530   5.1268720  19.5986270
  98.1613850   4.9340920  20.2332360  99.5947830   5.4103360  20.1310570
  89.5787530   2.9662210  10.5619610  89.2900580   3.5365070  11.2744590
  90.3233290   2.4866660  10.9250840 101.1278500   8.9667160  12.4340190
 100.3959620   9.4753970  12.7830290 100.7302840   8.1497140  12.1328970
  97.5655890   5.6421360  10.8392680  97.5691950   5.2011310   9.9897220
  98.4607010   5.9638690  10.9464500  93.4158270   5.5247850   9.7986890
  93.0758320   6.0023080  10.5553940  92.6535590   5.0712970   9.4387990
  97.6276040   6.6433440   3.8299440  97.7488860   6.6019920   4.7785260
  97.2424550   7.5057590   3.6746170 101.5904410   4.4200840  11.8463130
 101.6077150   4.8709490  12.6904980 101.3419990   3.5206480  12.0596570
  96.6397540   8.9534580   3.2282740  96.0714440   8.5052830   2.6018650
  97.3486540   9.3127360   2.6947890  91.7166720  12.8546600  17.1049470
  91.3321510  12.2140270  17.7032430  92.0278910  13.5582720  17.6744200
  97.8663860   9.7023140  12.5858090  98.2333990   9.2281710  13.3319430
  97.6768920  10.5764710  12.9266430  90.7304350   4.4466830   8.7151560
  90.4451270   4.0822500   9.5530180  90.6683210   3.7147290   8.1014700
  95.6563230   8.7431780  14.9042300  95.3520300   9.6223760  15.1292660
  96.6109690   8.8031570  14.9399740  94.1845020  12.9492770   5.5009150
  93.4107280  12.4090390   5.3407870  94.9139650  12.4299380   5.1626910
 100.4042940   3.3396090   5.4364930  99.5907550   2.8409260   5.3610240
 100.2104890   4.1794340   5.0201280 100.3251800  12.0167190  17.1804540
 100.2589110  11.0962860  16.9262130  99.6956940  12.1142630  17.8949180
  94.2282420  12.6173150   9.1387960  94.7461090  11.8141410   9.0844850
  93.7766440  12.5552290   9.9804790  99.1151920  13.8839430   4.4115260
  99.4567620  14.6281660   3.9158580  98.2864630  14.1970550   4.7740090
  91.7126960   9.5834520  16.0513660  91.3541900  10.2488370  16.6387000
  91.4181520   8.7518070  16.4226280  94.9140080  10.0418760  18.9353210
  94.6140220  10.1875940  18.0381030  95.6851320   9.4824050  18.8426600
 100.2568530  14.8387760  16.9308340 100.2713070  13.9068720  16.7127250
  99.5493630  14.9247520  17.5698110 101.9979330  13.2055270   9.7760770
 102.3503150  12.6083400   9.1162140 101.1141660  12.8799500   9.9469020
  98.0842610  13.9652960   7.1831180  98.7713740  14.5122170   7.5638770
  97.2975030  14.5093690   7.2180790  90.2235010   9.5825780   2.6748260
  91.0929860   9.8650580   2.9584180  89.7325330  10.3961650   2.5597070
  97.3869820  10.9698990   6.7956540  97.8432600  11.7804240   7.0216730
  97.0358030  10.6522130   7.6275030  99.6902430  16.4805330  14.0248840
 100.3344650  16.6864710  14.7022260 100.0531870  15.7193730  13.5719690
 100.9634510  14.4837680  12.7426290 101.6056740  13.7830840  12.8558460
 101.4883860  15.2636120  12.5623180  90.5906260  18.7953160   3.2409890
  90.9503900  19.3942500   2.5867160  90.4498600  19.3413050   4.0144920
  90.2875530   3.0727760  16.7285760  89.5734050   3.2724680  17.3338370
  90.7070570   2.2967330  17.1000560  90.5748120  17.0608020  17.7152290
  90.6839240  16.1202760  17.5747680  89.9228680  17.3262770  17.0666020
  98.5660710  15.3323910  19.1150410  98.2457580  14.6133150  19.6596100
  97.8919070  16.0078980  19.1886470  96.6074880  16.1784360   4.0583560
  96.5984980  16.9114050   3.4428070  95.6873240  15.9315940   4.1510520
  92.2081520  11.3999250   4.8030320  91.6009470  12.1398150   4.8125620
  92.6830870  11.4898610   3.9768520 101.7814310   5.5650070  14.4787210
 102.1495130   4.7445280  14.8066780 100.9212510   5.6251960  14.8942860
  99.5934480  16.2412600   2.7208750  99.6946460  16.0376590   1.7910730
  98.6936220  15.9870880   2.9256530  97.1160370   6.7992960   6.7032650
  96.4076520   7.2679300   7.1446260  97.4004850   6.1414970   7.3377840
  98.7416300   8.2189660  14.7025180  99.2401550   8.6935480  15.3677030
  98.8839250   7.2953180  14.9095210 101.1475800   3.5243620   8.1428440
 101.0243580   3.5429750   7.1937950 102.0960360   3.5722560   8.2626840
  98.2352590  18.7598920   7.4156420  98.4894090  18.7220310   6.4935790
  97.2865070  18.6332250   7.4084670  95.3195390   5.1078040   4.0783360
  96.1685920   5.5448190   4.0123550  94.9526660   5.4198300   4.9055420
  94.2186810  11.3610400   2.5518890  94.9850080  11.2491760   3.1144320
  94.2961500  10.6648370   1.8995660  92.9133570   8.7935470   3.2351780
  92.9937160   7.8462980   3.3469180  93.8053320   9.1242350   3.3412440
  93.7148280  18.9430860  10.3386320  94.4510760  18.3946320  10.6094890
  94.0989200  19.8086870  10.1992310  90.5993760  15.0104430   6.2127830
  89.6733540  15.2525570   6.2033240  91.0650190  15.8378690   6.0912580
  92.7206560  18.1276930  19.5271900  93.5219290  18.4488980  19.9407300
  92.2058380  17.7672510  20.2491810 101.5571190  14.2356800  19.4747310
 100.9509350  14.2588400  18.7343060 101.2525300  13.5039840  20.0114560
  90.4404370  10.6150390  18.4707950  90.9443390  10.0357670  19.0424180
  89.7011790  10.8990620  19.0084320  97.4942310  12.0221380  18.0043470
  96.7287980  12.5906380  17.9198140  97.6758270  11.7297590  17.1111700
 100.5830720  12.3984610   2.6296230 100.0340820  12.8453910   3.2738970
 101.2049980  11.8933860   3.1533900  92.4727450   8.7579980  19.3658020
  92.5132790   8.4593850  20.2743250  93.3272950   9.1587590  19.2065540
  96.2505840  11.3575530   4.5261530  96.6722260  11.1915400   5.3692920
  96.3756680  10.5475760   4.0316670  94.4133260   7.3372080  17.3332510
  93.8829720   6.8463030  16.7055850  95.0821330   7.7656280  16.7990440
  94.9005560   4.3034450  17.4129800  94.8062430   3.6855200  16.6880670
  94.3202950   5.0300740  17.1859710  97.6667000   2.8607690  14.4457190
  97.2184300   2.8831950  13.6002740  97.0332200   2.4626710  15.0427490
  98.0726550  11.7562020  15.0669630  98.4914660  12.5994750  14.8945870
  97.1535180  11.8934060  14.8376410 100.4090450   9.4878200  16.4507470
 100.5286660   8.8919340  17.1902310 101.2684450   9.5247890  16.0308770
  95.9233970  18.0615030  16.1827360  95.3855060  18.7861090  15.8636060
  96.1767930  17.5845370  15.3924700  97.1759220   6.0299550  17.7083290
  97.7658910   5.7215400  18.3961110  96.3579460   5.5579300  17.8643190
  98.7796180  19.2966240  16.4414010  98.7054880  20.2001380  16.7486380
  97.8775020  18.9778140  16.4136080  97.1632470   3.4744000   2.4453770
  96.8154470   2.7967990   1.8656220  97.3645240   3.0133510   3.2597160
  99.3281510  18.4624750   4.0640370 100.2232300  18.8009720   4.0859130
  99.3599140  17.7404160   3.4364650  92.9677670  13.8351800   2.2927370
  93.4052540  14.3781470   2.9484950  93.4525400  13.0098750   2.3023710
  90.1823470  16.6240830   9.7447630  90.5126480  15.7561890   9.5126270
  90.6114470  16.8299350  10.5752590  94.7785390  14.9549840   7.4049600
  94.4780930  14.8314810   8.3053510  94.6722880  14.0958430   6.9965330
  90.6713680  17.4911420  12.4829260  90.2344670  17.6712220  13.3153410
  91.2391360  18.2486040  12.3410980  90.5038110  10.0031650   8.8418140
  89.8486950   9.7343290   8.1977840  91.3416060   9.8936130   8.3920120
  91.5414040  10.3884220  13.3821480  91.9087080  10.3011620  14.2617500
  90.9724860   9.6250770  13.2828340  91.0930040   7.2993310  17.2879900
  90.1986090   7.2660070  17.6273610  91.6327590   7.4980100  18.0531150
  89.7176190   7.2130580   4.7843470  88.8140270   7.4760780   4.6095130
  90.2016810   7.4841750   4.0043430  92.2603400   6.2696120   2.6937850
  92.9695100   5.8479340   2.2085130  91.5443340   6.3371350   2.0621200
  92.9566120  14.9016910  18.5441630  92.9135750  14.5309820  19.4256090
  93.0877130  15.8394480  18.6843450  96.6572150  16.4576500  14.1451350
  96.4163510  16.7251060  13.2581870  97.5974790  16.6282230  14.2002210
  98.8626570   2.9209190  17.9007860  98.8015460   3.5131020  18.6503270
  99.8026950   2.8135150  17.7558120 101.5001130   2.5779250  17.5400150
 102.1141540   2.8958540  16.8781230 102.0450690   2.0927840  18.1596010
  92.7954150  17.8479160  15.6639410  92.2014470  17.7163860  16.4029450
  92.7877990  17.0117300  15.1981510  92.4266380  15.2137540  14.6147450
  91.7000440  14.5942830  14.5473400  92.4875530  15.6078150  13.7445530
  96.0311480  17.4282540  11.3996860  96.5476500  16.8169900  10.8745120
  96.6808860  17.9311320  11.8907870  98.7706980  18.3191030  12.2265840
  99.0584790  18.0645330  11.3498850  99.2830200  17.7668390  12.8171410
  90.7096380  18.5311930   7.8244210  90.5418420  17.8982610   8.5226100
  89.8430890  18.7371330   7.4738400  91.3324400   2.3628710   5.3276070
  92.0903760   2.4757590   4.7540100  90.8701570   3.1997910   5.2819500
  97.8738210   4.4767980   8.3178380  97.0612720   4.1024870   7.9774260
  98.3779850   3.7213060   8.6199570  92.3159080  17.2245160   5.2694350
  91.7906700  17.6053190   4.5656310  92.2403660  17.8495930   5.9904060
  93.7049550   2.8892760   3.8678040  94.2342310   2.1022560   3.7385990
  94.3377870   3.5683950   4.1013570  95.8987390   2.6267900   6.9223430
  95.2690130   1.9255210   7.0893560  95.3592530   3.3872030   6.7056590
  98.8379340  19.2407130  19.5934040  99.7646650  19.0051400  19.6370000
  98.8229770  20.0679130  19.1120070  94.9152050  19.1727540   4.1443600
  95.6470870  18.8886820   3.5967490  95.1745720  18.9340820   5.0342980
  94.0766840  15.2892270   4.1489930  93.4475720  15.7577370   4.6975760
  94.1914670  14.4441490   4.5836120  82.7573070  84.4371890  65.3965090
  82.6767120  83.5226500  65.1256800  82.3437490  84.9338960  64.6904800
  80.8891110  86.2150910  67.2774360  80.1133210  85.7351350  67.5672930
  81.5404040  85.5356560  67.1030520  74.9056940  86.5270720  68.1550120
  74.0741820  86.2719430  68.5546630  75.5137920  86.5981490  68.8908040
  84.9098540  90.6211100  66.0573490  84.4480070  89.8498340  66.3860660
  85.7224090  90.6477170  66.5625940  74.8858200  90.5610810  68.3508140
  75.1886240  89.6708550  68.1718360  75.6301790  91.1181030  68.1230390
  73.3148890  81.4872610  61.9392510  72.4265590  81.8288580  61.8372390
  73.5990080  81.2872930  61.0473340  71.2781900  84.0878260  67.8232210
  71.8498010  83.3200460  67.8235850  71.2783440  84.3867020  66.9138820
  81.1361850  92.9069110  65.6777480  80.5173290  93.3626610  65.1071920
  81.9913630  93.0620570  65.2767180  80.3300100  88.8908100  67.2844520
  80.2608380  87.9498040  67.1233650  81.0919960  88.9809510  67.8567090
  72.5206770  79.4962620  69.6101140  72.3409610  78.5988370  69.8903900
  72.1186850  80.0434490  70.2848090  81.3605270  81.6978480  67.5113450
  81.7370090  80.8250360  67.3987120  81.2624780  82.0337180  66.6203890
  75.4910280  80.0704110  62.9730890  75.5977030  80.9707840  63.2799650
  74.5802640  80.0222080  62.6825540  85.1429390  79.1928920  64.4441790
  85.9639010  78.7025490  64.4867270  85.1763470  79.7826580  65.1973630
  73.1393440  81.9923120  68.2183480  73.8203550  82.2561490  68.8370880
  72.8241490  81.1523990  68.5521490  77.3318010  83.0390480  67.3056070
  77.8396230  83.5371450  67.9461090  77.8631250  82.2625680  67.1295430
  89.4328940  81.2095670  71.0085420  88.7281110  81.5977380  70.4900530
  89.6986860  81.9045960  71.6106350  75.6154110  77.6789040  71.5719490
  75.6172550  78.1961430  70.7665390  74.7858420  77.2019220  71.5489420
  82.0025200  87.7908350  63.0709390  81.3842470  88.2557800  62.5072110
  82.5148450  88.4835830  63.4878900  76.8656960  87.3184220  69.7492990
  76.5326340  87.9453140  70.3914060  77.0423640  87.8446100  68.9694660
  85.3790870  81.1329300  67.2169330  84.6746440  81.4214190  67.7972440
  85.7403030  81.9429410  66.8568890  75.2969440  79.3899000  69.5789940
  75.6386250  80.2341050  69.2843810  74.3585250  79.5382740  69.6955280
  76.0776060  89.2865020  71.5642170  76.6950060  89.9616100  71.2826620
  75.2169180  89.6953000  71.4729670  71.3708400  88.4764880  60.4449020
  70.9936380  88.9651980  59.7133920  71.6281470  89.1490160  61.0755550
  86.9953650  90.7504430  69.4796810  86.3117170  91.4203540  69.4713480
  87.5347940  90.9485080  68.7141670  88.4477790  80.5784090  67.6078540
  87.5002700  80.6123070  67.7393970  88.7727780  81.3923040  67.9927900
  78.9797330  76.8781270  65.9034530  79.2872310  76.3228160  65.1870030
  78.0498030  77.0125730  65.7207520  84.5312390  92.5948560  68.1941990
  84.5439550  92.1910850  67.3264250  83.9787610  93.3695850  68.0903420
  85.8257810  89.3164780  63.2832160  85.7154140  88.3739110  63.4081580
  85.8226060  89.6780420  64.1694920  83.9297830  87.4978400  69.5224600
  84.3466620  87.2838510  68.6878060  84.6537650  87.7551190  70.0933220
  81.3678090  84.9430100  62.6394650  80.4407370  84.8767480  62.8683120
  81.5202910  85.8810230  62.5249890  81.3547170  81.2147100  59.6361810
  80.4150840  81.3761060  59.7214270  81.6730430  81.9332780  59.0897800
  87.8759930  85.8965620  69.6140840  87.0478560  85.9658710  69.1390970
  88.4710410  86.4819930  69.1456670  85.3975380  86.5050400  63.1429900
  84.7787800  86.1669950  62.4956200  85.3799830  85.8610160  63.8509090
  84.8401940  82.6834940  70.5595710  84.4273120  83.5088650  70.8135700
  84.1077890  82.0979980  70.3672070  76.9734730  85.4694840  65.4214380
  76.5691730  84.7572090  64.9260280  77.0597850  85.1248080  66.3102420
  77.4416430  89.1562400  67.5853590  77.1444720  88.5507870  66.9061370
  78.3916250  89.1939710  67.4742950  75.6863350  82.2438050  69.2013420
  76.2377940  82.3533390  68.4266670  76.2006860  82.6175650  69.9168650
  85.5302040  92.7294270  71.2476690  85.0532600  93.5366460  71.0549300
  84.8463830  92.0772600  71.4002900  76.5334860  88.8944090  74.2361390
  75.6363390  89.1184060  74.4834790  76.5587730  89.0179030  73.2872790
  83.5740080  85.7437210  60.1502650  84.0133360  84.9059640  60.0040470
  84.2868500  86.3766610  60.2366790  75.3606080  85.7657410  72.8118760
  75.2213850  86.6380210  73.1806160  74.4787440  85.4230220  72.6666700
  81.6835460  90.6833280  64.1183890  82.1231370  91.4257610  63.7039280
  81.6222350  90.9259850  65.0422850  77.1586430  91.7079110  75.0203910
  77.1301860  92.1122060  74.1532340  76.9951400  90.7789470  74.8575510
  87.1557220  76.9980020  58.4643690  86.8429880  77.0906850  59.3642760
  87.9169690  77.5761050  58.4141120  73.6739360  84.3639820  62.9221030
  73.5536960  85.0901910  62.3102300  73.3640250  83.5942730  62.4448940
  71.3124730  87.5354960  68.7289670  71.3905150  87.6703730  67.7845390
  71.9266410  86.8270850  68.9217790  72.5572360  89.2355150  65.1395850
  72.1500440  89.3769740  64.2849450  73.4485370  88.9515310  64.9367060
  88.5134500  89.6819060  73.4768090  88.6397560  89.4430940  72.5585270
  88.5555880  88.8503600  73.9490170  82.3751240  93.3847060  72.0462900
  82.8895910  93.2955070  72.8485330  81.5320320  93.7306760  72.3390810
  84.3505640  93.6702400  61.4746900  84.1906780  93.3805340  62.3728730
  84.1852350  92.8942530  60.9392130  84.0531770  91.1789960  60.0344900
  83.3596930  91.1767250  59.3747180  84.7954630  90.7549280  59.6039070
  83.6181700  92.8052670  64.1093390  84.0738650  92.0242050  64.4232010
  83.9574220  93.5159490  64.6534570  88.3658510  81.7351520  74.4417830
  87.7502780  82.2431190  73.9133290  88.0454930  80.8349850  74.3843770
  71.3684250  88.5769130  71.2684130  71.5315290  88.1074490  70.4503500
  71.8336700  88.0692690  71.9332970  76.1403020  77.7074890  66.3044700
  75.6971170  78.4884430  65.9729220  76.6988010  78.0304780  67.0115640
  80.4272830  80.5743410  71.9080020  79.9652200  80.7826430  72.7199960
  80.0250940  79.7602760  71.6050690  85.4277340  81.7952360  73.0376680
  84.5770930  81.4958110  73.3585750  85.2679130  82.0394370  72.1260500
  82.5227050  83.2954110  75.1375470  82.8480460  82.4617860  74.7977700
  83.3107380  83.8182630  75.2853800  79.2561840  77.3285590  61.1850530
  78.6316020  77.3245460  61.9103840  79.1691960  76.4616550  60.7886500
  78.1778920  78.2522220  68.1634300  78.4751250  79.1585050  68.0826320
  78.7264480  77.7641000  67.5493870  75.9317240  82.8308460  64.0325950
  75.7058160  82.6145630  64.9372570  75.1509770  83.2636920  63.6871920
  83.1615000  82.8371830  62.6316600  82.5623890  83.5607630  62.4480220
  83.7094610  82.7748610  61.8493050  78.3716450  83.7294040  74.6986220
  78.2760050  82.7888770  74.5486620  79.2148430  83.9509110  74.3034290
  81.7679870  81.4735370  64.6619880  82.1609440  81.7907570  63.8488570
  82.1296720  80.5947250  64.7764400  73.5026990  80.1407710  72.8520000
  73.1090380  80.9882920  73.0592780  72.8145390  79.5034080  73.0428640
  70.8044040  78.0636170  66.8850080  70.5157090  78.6339030  67.5975060
  71.5489800  77.5840620  67.2481310  70.9914270  82.0056290  58.0952800
  70.9088940  82.9487050  58.2367790  70.6397330  81.8631200  57.2165150
  82.3535010  84.0641120  68.7570660  81.6216130  84.5727930  69.1060760
  81.9559350  83.2471100  68.4559440  78.7912400  80.7395320  67.1623150
  78.7948460  80.2985270  66.3127690  79.6863520  81.0612650  67.2694970
  74.6414780  80.6221810  66.1217360  74.3014830  81.0997040  66.8784410
  73.8792100  80.1686930  65.7618460  78.8532550  81.7407400  60.1529910
  78.9745370  81.6993880  61.1015730  78.4681060  82.6031550  59.9976640
  82.8160920  79.5174800  68.1693600  82.8333660  79.9683450  69.0135450
  82.5676500  78.6180440  68.3827040  77.8654050  84.0508540  59.5513210
  77.2970950  83.6026790  58.9249120  78.5743050  84.4101320  59.0178360
  86.2431670  76.9306980  74.0079980  86.5677440  76.1996640  74.5337960
  86.2788180  76.6120620  73.1060970  72.9423230  87.9520560  73.4279940
  72.5578020  87.3114230  74.0262900  73.2535420  88.6556680  73.9974670
  79.0920370  84.7997100  68.9088560  79.4590500  84.3255670  69.6549900
  78.9025430  85.6738670  69.2496900  71.9560860  79.5440790  65.0382030
  71.6707780  79.1796460  65.8760650  71.8939720  78.8121250  64.4245170
  76.8819740  83.8405740  71.2272770  76.5776810  84.7197720  71.4523130
  77.8366200  83.9005530  71.2630210  75.4101530  88.0466730  61.8239620
  74.6363790  87.5064350  61.6638340  76.1396160  87.5273340  61.4857380
  86.1689510  87.0432090  67.6166010  86.8888630  87.5387380  67.2262120
  85.9671330  86.3649980  66.9719880  81.6299450  78.4370050  61.7595400
  80.8164060  77.9383220  61.6840710  81.4361400  79.2768300  61.3431750
  81.5508310  87.1141150  73.5035010  81.4845620  86.1936820  73.2492600
  80.9213450  87.2116590  74.2179650  84.3447840  82.8089700  60.0557560
  85.2327460  83.1206930  59.8808900  84.3152930  81.9361950  59.6638140
  75.4538930  87.7147110  65.4618430  75.9717600  86.9115370  65.4075320
  75.0022950  87.6526250  66.3035260  80.3408430  88.9813390  60.7345730
  80.6824130  89.7255620  60.2389050  79.5121140  89.2944510  61.0970560
  72.9383470  84.6808480  72.3744130  72.5798410  85.3462330  72.9617470
  72.6438030  83.8492030  72.7456750  76.1396590  85.1392720  75.2583680
  75.8396730  85.2849900  74.3611500  76.9107830  84.5798010  75.1657070
  81.4825040  89.9361720  73.2538810  81.4969580  89.0042680  73.0357720
  80.7750140  90.0221480  73.8928580  86.6162110  84.1201540  59.5237420
  86.5325830  84.5515760  58.6733860  87.3356300  84.5799890  59.9564240
  87.6936250  86.5769060  72.6007390  86.9684440  87.1697840  72.4036780
  88.2211710  86.5692600  71.8020760  87.6449360  90.9743800  62.2519550
  87.0025520  90.3199420  62.5263270  87.2580020  91.3798890  61.4760220
  83.2235840  88.3029230  66.0991240  83.5759660  87.7057360  65.4392610
  82.3398170  87.9773460  66.2699490  79.3099120  89.0626920  63.5061650
  79.9970250  89.6096130  63.8869240  78.5231540  89.6067650  63.5411260
  71.4491520  84.6799740  58.9978730  72.3186370  84.9624540  59.2814650
  70.9581840  85.4935610  58.8827540  78.6126330  86.0672950  63.1187010
  79.0689110  86.8778200  63.3447200  78.2614540  85.7496090  63.9505500
  80.9158940  91.5779290  70.3479310  81.5601160  91.7838670  71.0252730
  81.2788380  90.8167690  69.8950160  74.5138110  76.4110600  63.5909530
  74.3852740  76.4028500  64.5394450  73.6900130  76.7493690  63.2400540
  82.1891020  89.5811640  69.0656760  82.8313250  88.8804800  69.1788930
  82.7140370  90.3610080  68.8853650  86.0346740  89.8660260  58.7895900
  85.8084320  89.1490700  59.3820540  85.6442940  89.6172700  57.9517650
  83.9628640  90.3806540  72.2692820  84.2984880  90.9673230  72.9470740
  83.0428980  90.2499250  72.4990610  71.5132040  78.1701720  73.0516230
  70.7990560  78.3698640  73.6568840  71.9327080  77.3941290  73.4231030
  85.6162990  87.7832200  60.4510060  85.3284690  88.2444890  61.2387940
  86.4115160  87.3229970  60.7194280  71.8004630  92.1581980  74.0382760
  71.9095750  91.2176720  73.8978150  71.1485190  92.4236730  73.3896490
  79.7917220  90.4297870  75.4380880  79.4714090  89.7107110  75.9826570
  79.1175580  91.1052940  75.5116940  77.8331390  91.2758320  60.3814030
  77.8241490  92.0088010  59.7658540  76.9129750  91.0289900  60.4740990
  73.4338030  86.4973210  61.1260790  72.8265980  87.2372110  61.1356090
  73.9087380  86.5872570  60.2998990  83.0070820  80.6624030  70.8017680
  83.3751640  79.8419240  71.1297250  82.1469020  80.7225920  71.2173330
  86.3732850  79.6180970  61.6105240  85.7446010  79.7226640  60.8963470
  85.8784770  79.8377750  62.3999120  80.8190990  91.3386560  59.0439220
  80.9202970  91.1350550  58.1141200  79.9192730  91.0844840  59.2487000
  78.3416880  81.8966920  63.0263120  77.6333030  82.3653260  63.4676730
  78.6261360  81.2388930  63.6608310  79.9672810  83.3163620  71.0255650
  80.4658060  83.7909440  71.6907500  80.1095760  82.3927140  71.2325680
  82.3732310  78.6217580  64.4658910  82.2500090  78.6403710  63.5168420
  83.3216870  78.6696520  64.5857310  76.5451900  80.2052000  60.4013830
  77.3942430  80.6422150  60.3354020  76.1783170  80.5172260  61.2285890
  87.1739670  79.5331580  71.8684040  86.6713270  80.2736980  72.2077850
  87.9896330  79.9215580  71.5520830  85.4661680  84.7764760  65.3145400
  84.5251820  84.7914990  65.4893090  85.7805750  83.9900720  65.7605700
  75.4443320  86.4584360  58.8749360  76.2106590  86.3465720  59.4374790
  75.5218010  85.7622330  58.2226130  74.1390080  83.8909430  59.5582250
  74.2193670  82.9436940  59.6699650  75.0309830  84.2216310  59.6642910
  87.4687260  91.9473610  66.9899660  87.5934680  92.7704780  67.4623470
  88.3352820  91.7364340  66.6423810  71.8250270  90.1078390  62.5358300
  70.8990050  90.3499530  62.5263710  72.2906700  90.9352650  62.4143050
  78.0507100  93.2135130  58.4842360  78.8435710  93.5023960  58.0324150
  77.5311450  92.7827300  57.8054840  84.2128070  93.0611050  74.4087190
  85.1649820  92.9769070  74.3587430  84.0656290  93.7252760  75.0820980
  87.1037270  92.4405260  59.9079100  86.8178780  92.0270400  59.0933280
  86.9056820  93.3692970  59.7879620  71.6660880  85.7124350  74.7938420
  72.1699900  85.1331630  75.3654650  70.9268300  85.9964580  75.3314790
  78.5684500  88.4338540  58.3484710  78.4635140  87.8190890  59.0746090
  78.4008720  87.9104430  57.5647720  78.7198820  87.1195340  74.3273940
  77.9544490  87.6880340  74.2428610  78.9014780  86.8271550  73.4342170
  81.8087230  87.4958570  58.9526700  81.2597330  87.9427870  59.5969440
  82.4306490  86.9907820  59.4764370  85.8622170  88.8500670  74.8848960
  86.6031640  89.1876430  74.3816420  85.0994850  89.0192730  74.3318730
  77.4762350  86.4549490  60.8492000  77.8978770  86.2889360  61.6923390
  77.6013190  85.6449720  60.3547140  75.6389770  82.4346040  73.6562980
  75.1086230  81.9436990  73.0286320  76.3077840  82.8630240  73.1220910
  79.9889990  85.4787100  58.0969100  80.5095650  84.7636120  57.7310250
  80.6358390  86.1172970  58.3969610  84.5367830  86.9015500  73.4204170
  84.9508850  87.0560580  74.2694590  83.6018830  87.0270720  73.5829950
  85.0090000  84.2411660  75.4243320  85.5910770  83.4863980  75.3363800
  85.1851770  84.7719100  74.6474800  76.1262070  79.4008410  73.7360270
  76.0318940  78.7829160  73.0111140  75.5459460  80.1274700  73.5090180
  78.8923510  77.9581650  70.7687660  78.4440810  77.9805910  69.9233210
  78.2588710  77.5600670  71.3657960  79.2983060  86.8535980  71.3900100
  79.7171170  87.6968710  71.2176340  78.3791690  86.9908020  71.1606880
  81.6346960  84.5852160  72.7737940  81.7543170  83.9893300  73.5132780
  82.4940960  84.6221850  72.3539240  83.9734860  85.1389350  71.3500450
  83.4470080  85.6631970  70.7465590  84.3166200  85.7716740  71.9810180
  76.3721250  82.5282720  57.7950160  76.1710310  81.6650080  58.1563500
  76.2013300  82.4416080  56.8571760  78.4015730  81.1273510  74.0313760
  78.9915420  80.8189360  74.7191580  77.5835970  80.6553260  74.1873660
  83.2209160  80.7439320  74.2646780  82.5324680  80.0820860  74.1996770
  83.9415180  80.2977590  74.7095240  83.8509560  77.3390950  60.3237040
  84.1311850  76.4958850  60.6796460  83.0775290  77.5714060  60.8375790
  75.1704050  79.6283340  57.7828040  75.4729950  79.6350770  56.8747190
  75.9098640  79.2781200  58.2795700  78.3888980  78.5717960  58.7684240
  78.0410980  77.8941950  58.1886690  78.5901750  78.1107470  59.5827630
  74.1934180  88.9325760  58.6157840  74.6309050  89.4755430  59.2715420
  74.6781910  88.1072710  58.6254180  71.4079980  91.7214790  66.0678100
  71.7382990  90.8535850  65.8356740  71.8370980  91.9273310  66.8983060
  76.0041900  90.0523800  63.7280070  75.7037440  89.9288770  64.6283980
  75.8979390  89.1932390  63.3195800  71.8970190  92.5885380  68.8059730
  71.4601180  92.7686180  69.6383880  72.4647870  93.3460000  68.6641450
  87.5332370  92.0902380  73.0937040  86.9334360  92.1494940  72.3500960
  87.6626270  91.1507360  73.2233890  88.7733820  89.8320200  58.4306750
  87.9426780  89.8996850  58.9013980  88.9505650  90.7224320  58.1273610
  88.2290280  86.5767680  60.9340950  88.9909190  87.1464330  61.0400640
  88.2444650  86.0094880  61.7049260  71.7294620  85.1005610  65.1648610
  71.0743460  84.8317250  64.5208310  72.5672570  84.9910090  64.7150590
  89.2350250  87.4317780  65.7782880  89.6059080  86.6485100  65.3718850
  89.8752180  88.1206880  65.6000180  86.2184010  88.8154360  71.1913200
  85.4043850  89.2451520  71.4538990  86.6258210  89.4272770  70.5782250
  88.2809450  86.8702050  58.0913470  88.5558290  87.7780930  57.9632690
  88.0920190  86.8064580  59.0275460  84.6785060  79.8946900  59.3867100
  85.0969940  79.7077880  58.5463760  84.3721120  79.0425950  59.6970030
  88.1774790  84.8071040  63.0842900  87.8018390  84.0398970  62.6524190
  87.4477910  85.1893740  63.5717830  72.7670550  85.4858180  69.7051950
  73.1343590  85.3985580  70.5847970  72.1981370  84.7224730  69.6058810
  87.5674410  83.9542560  72.7182420  87.3360500  83.7255310  71.8180370
  87.8278960  84.8742110  72.6727310  72.3186550  82.3967270  73.6110370
  71.4242600  82.3634030  73.9504080  72.8584100  82.5954060  74.3761620
  86.0062480  79.1798990  75.4962120  86.8832660  79.1882390  75.8796120
  86.0183320  78.4429830  74.8854470  70.9432700  82.3104540  61.1073940
  70.0396780  82.5734740  60.9325600  71.4273320  82.5815710  60.3273900
  87.4525750  83.0328530  66.3850140  87.9763230  82.5391180  65.7540310
  88.0385170  83.1678890  67.1297710  87.6315470  83.1168400  69.9069690
  86.6818180  83.0831940  70.0214680  87.8128480  84.0268510  69.6719460
  73.4859910  81.3670080  59.0168320  74.1951610  80.9453300  58.5315600
  72.7699850  81.4345310  58.3851670  73.1334070  77.4209410  58.0570970
  73.8562200  77.9618350  58.3752190  73.4058590  77.1472830  57.1812510
  86.9425720  82.2901880  62.3242550  87.4384840  82.0572750  63.1091430
  86.7441790  81.4513720  61.9080190  72.8226260  76.6715600  67.9593590
  73.4702450  76.1212980  67.5188750  73.2428100  76.9258750  68.7809400
  88.3712880  80.9262830  64.8580230  88.2612160  80.7718870  65.7962500
  89.1320470  80.3983770  64.6155640  86.7178600  76.8656960  71.3163230
  87.3550820  77.4791100  71.6822420  86.8653490  76.9017620  70.3712460
  89.2603150  78.7570750  58.0986370  90.1852460  78.6251930  57.8904660
  89.2378940  78.8363570  59.0522820  89.3341640  79.5281410  60.7243080
  88.5393140  79.4626530  61.2535990  89.5384920  80.4632050  60.7128430
  86.2760060  93.5672960  64.7181470  86.8719130  93.2457530  64.0415890
  86.5338210  93.0944780  65.5094740  72.5758260  76.8271270  70.7018910
  72.2273080  77.2835090  71.4677090  72.2445960  75.9328400  70.7841340
  74.1822630  89.9990870  74.8672100  74.1392260  89.6283780  75.7486560
  74.3133640  90.9368440  75.0073920  77.8828660  91.5550460  70.4681820
  77.6420020  91.8225020  69.5812340  78.8231300  91.7256190  70.5232680
  80.0883080  78.0183150  74.2238330  80.0271970  78.6104980  74.9733740
  81.0283460  77.9109110  74.0788590  82.7257640  77.6753210  73.8630620
  83.3398050  77.9932500  73.2011700  83.2707200  77.1901800  74.4826480
  73.2478900  76.3547470  73.9769680  73.7961890  76.1735520  73.2135790
  73.3134210  75.5641580  74.5125990  74.0210660  92.9453120  71.9869880
  73.4270980  92.8137820  72.7259920  74.0134500  92.1091260  71.5211980
  83.4665680  76.2385350  70.1899910  82.5925520  76.5720460  69.9872840
  83.3576430  75.7658530  71.0151780  84.3737660  78.4456220  71.5741630
  84.0451020  77.6307980  71.1943360  85.3219960  78.4026030  71.4507320
  73.6522890  90.3111500  70.9377920  72.9256950  89.6916790  70.8703870
  73.7132040  90.7052110  70.0676000  77.2567990  92.5256500  67.7227330
  77.7733010  91.9143860  67.1975590  77.9065370  93.0285280  68.2138340
  79.9963490  93.4164990  68.5496310  80.2841300  93.1619290  67.6729320
  80.5086710  92.8642350  69.1401880  81.2140500  77.1555190  69.1292820
  80.4312290  77.6300690  69.4089580  80.9203430  76.2510020  69.0206000
  85.7661570  77.8578290  67.1741910  86.2069660  77.8023390  66.3263510
  85.4969160  78.7736300  67.2452090  87.6300140  77.4893530  65.1850730
  87.5688540  76.5454750  65.0381750  88.4092170  77.5973620  65.7304190
  72.5580910  77.4602670  61.6506540  73.3160270  77.5731550  61.0770570
  72.0958080  78.2971870  61.6049970  79.0994720  79.5741940  64.6408850
  78.2869230  79.1998830  64.3004730  79.6036360  78.8187020  64.9430040
  83.6019700  76.2384390  65.8791920  84.2049070  76.8104600  66.3540440
  82.8612690  76.8023830  65.6565820  86.7454300  76.6405950  61.1532200
  86.9404930  77.5389400  61.4199630  85.9584170  76.4093030  61.6465150
  73.5415590  92.3219120  61.5924820  73.0163210  92.7027150  60.8886780
  73.4660170  92.9469890  62.3134530  74.9306060  77.9866720  60.1908510
  75.4598820  77.1996520  60.0616460  75.5634380  78.6657910  60.4244040
  77.1243900  77.7241860  63.2453900  76.4946640  77.0229170  63.4124030
  76.5849040  78.4845990  63.0287060  77.2499460  77.0025840  75.6806390
  76.9683730  77.5059440  74.9167210  77.6319160  76.2047590  75.3148520
  75.3023350  90.3866230  60.4720400  74.6732230  90.8551330  61.0206230
  75.4171180  89.5415450  60.9066590  82.7573070  84.4371890  46.6221600
  82.6767120  83.5226500  46.3513310  82.3437490  84.9338960  45.9161310
  80.8891110  86.2150910  48.5030870  80.1133210  85.7351350  48.7929440
  81.5404040  85.5356560  48.3287030  74.9056940  86.5270720  49.3806630
  74.0741820  86.2719430  49.7803140  75.5137920  86.5981490  50.1164550
  84.9098540  90.6211100  47.2830000  84.4480070  89.8498340  47.6117170
  85.7224090  90.6477170  47.7882450  74.8858200  90.5610810  49.5764650
  75.1886240  89.6708550  49.3974870  75.6301790  91.1181030  49.3486900
  73.3148890  81.4872610  43.1649020  72.4265590  81.8288580  43.0628900
  73.5990080  81.2872930  42.2729850  71.2781900  84.0878260  49.0488720
  71.8498010  83.3200460  49.0492360  71.2783440  84.3867020  48.1395330
  81.1361850  92.9069110  46.9033990  80.5173290  93.3626610  46.3328430
  81.9913630  93.0620570  46.5023690  80.3300100  88.8908100  48.5101030
  80.2608380  87.9498040  48.3490160  81.0919960  88.9809510  49.0823600
  72.5206770  79.4962620  50.8357650  72.3409610  78.5988370  51.1160410
  72.1186850  80.0434490  51.5104600  81.3605270  81.6978480  48.7369960
  81.7370090  80.8250360  48.6243630  81.2624780  82.0337180  47.8460400
  75.4910280  80.0704110  44.1987400  75.5977030  80.9707840  44.5056160
  74.5802640  80.0222080  43.9082050  85.1429390  79.1928920  45.6698300
  85.9639010  78.7025490  45.7123780  85.1763470  79.7826580  46.4230140
  73.1393440  81.9923120  49.4439990  73.8203550  82.2561490  50.0627390
  72.8241490  81.1523990  49.7778000  77.3318010  83.0390480  48.5312580
  77.8396230  83.5371450  49.1717600  77.8631250  82.2625680  48.3551940
  89.4328940  81.2095670  52.2341930  88.7281110  81.5977380  51.7157040
  89.6986860  81.9045960  52.8362860  75.6154110  77.6789040  52.7976000
  75.6172550  78.1961430  51.9921900  74.7858420  77.2019220  52.7745930
  82.0025200  87.7908350  44.2965900  81.3842470  88.2557800  43.7328620
  82.5148450  88.4835830  44.7135410  76.8656960  87.3184220  50.9749500
  76.5326340  87.9453140  51.6170570  77.0423640  87.8446100  50.1951170
  85.3790870  81.1329300  48.4425840  84.6746440  81.4214190  49.0228950
  85.7403030  81.9429410  48.0825400  75.2969440  79.3899000  50.8046450
  75.6386250  80.2341050  50.5100320  74.3585250  79.5382740  50.9211790
  76.0776060  89.2865020  52.7898680  76.6950060  89.9616100  52.5083130
  75.2169180  89.6953000  52.6986180  71.3708400  88.4764880  41.6705530
  70.9936380  88.9651980  40.9390430  71.6281470  89.1490160  42.3012060
  86.9953650  90.7504430  50.7053320  86.3117170  91.4203540  50.6969990
  87.5347940  90.9485080  49.9398180  88.4477790  80.5784090  48.8335050
  87.5002700  80.6123070  48.9650480  88.7727780  81.3923040  49.2184410
  78.9797330  76.8781270  47.1291040  79.2872310  76.3228160  46.4126540
  78.0498030  77.0125730  46.9464030  84.5312390  92.5948560  49.4198500
  84.5439550  92.1910850  48.5520760  83.9787610  93.3695850  49.3159930
  85.8257810  89.3164780  44.5088670  85.7154140  88.3739110  44.6338090
  85.8226060  89.6780420  45.3951430  83.9297830  87.4978400  50.7481110
  84.3466620  87.2838510  49.9134570  84.6537650  87.7551190  51.3189730
  81.3678090  84.9430100  43.8651160  80.4407370  84.8767480  44.0939630
  81.5202910  85.8810230  43.7506400  81.3547170  81.2147100  40.8618320
  80.4150840  81.3761060  40.9470780  81.6730430  81.9332780  40.3154310
  87.8759930  85.8965620  50.8397350  87.0478560  85.9658710  50.3647480
  88.4710410  86.4819930  50.3713180  85.3975380  86.5050400  44.3686410
  84.7787800  86.1669950  43.7212710  85.3799830  85.8610160  45.0765600
  84.8401940  82.6834940  51.7852220  84.4273120  83.5088650  52.0392210
  84.1077890  82.0979980  51.5928580  76.9734730  85.4694840  46.6470890
  76.5691730  84.7572090  46.1516790  77.0597850  85.1248080  47.5358930
  77.4416430  89.1562400  48.8110100  77.1444720  88.5507870  48.1317880
  78.3916250  89.1939710  48.6999460  75.6863350  82.2438050  50.4269930
  76.2377940  82.3533390  49.6523180  76.2006860  82.6175650  51.1425160
  85.5302040  92.7294270  52.4733200  85.0532600  93.5366460  52.2805810
  84.8463830  92.0772600  52.6259410  76.5334860  88.8944090  55.4617900
  75.6363390  89.1184060  55.7091300  76.5587730  89.0179030  54.5129300
  83.5740080  85.7437210  41.3759160  84.0133360  84.9059640  41.2296980
  84.2868500  86.3766610  41.4623300  75.3606080  85.7657410  54.0375270
  75.2213850  86.6380210  54.4062670  74.4787440  85.4230220  53.8923210
  81.6835460  90.6833280  45.3440400  82.1231370  91.4257610  44.9295790
  81.6222350  90.9259850  46.2679360  77.1586430  91.7079110  56.2460420
  77.1301860  92.1122060  55.3788850  76.9951400  90.7789470  56.0832020
  87.1557220  76.9980020  39.6900200  86.8429880  77.0906850  40.5899270
  87.9169690  77.5761050  39.6397630  73.6739360  84.3639820  44.1477540
  73.5536960  85.0901910  43.5358810  73.3640250  83.5942730  43.6705450
  89.1101250  92.4906210  57.5424590  89.5860970  92.9689100  58.2213670
  89.7308410  92.4223700  56.8170090  71.3124730  87.5354960  49.9546180
  71.3905150  87.6703730  49.0101900  71.9266410  86.8270850  50.1474300
  72.5572360  89.2355150  46.3652360  72.1500440  89.3769740  45.5105960
  73.4485370  88.9515310  46.1623570  88.5134500  89.6819060  54.7024600
  88.6397560  89.4430940  53.7841780  88.5555880  88.8503600  55.1746680
  82.3751240  93.3847060  53.2719410  82.8895910  93.2955070  54.0741840
  81.5320320  93.7306760  53.5647320  84.3505640  93.6702400  42.7003410
  84.1906780  93.3805340  43.5985240  84.1852350  92.8942530  42.1648640
  84.0531770  91.1789960  41.2601410  83.3596930  91.1767250  40.6003690
  84.7954630  90.7549280  40.8295580  83.6181700  92.8052670  45.3349900
  84.0738650  92.0242050  45.6488520  83.9574220  93.5159490  45.8791080
  88.3658510  81.7351520  55.6674340  87.7502780  82.2431190  55.1389800
  88.0454930  80.8349850  55.6100280  71.3684250  88.5769130  52.4940640
  71.5315290  88.1074490  51.6760010  71.8336700  88.0692690  53.1589480
  76.1403020  77.7074890  47.5301210  75.6971170  78.4884430  47.1985730
  76.6988010  78.0304780  48.2372150  80.4272830  80.5743410  53.1336530
  79.9652200  80.7826430  53.9456470  80.0250940  79.7602760  52.8307200
  85.4277340  81.7952360  54.2633190  84.5770930  81.4958110  54.5842260
  85.2679130  82.0394370  53.3517010  82.5227050  83.2954110  56.3631980
  82.8480460  82.4617860  56.0234210  83.3107380  83.8182630  56.5110310
  79.2561840  77.3285590  42.4107040  78.6316020  77.3245460  43.1360350
  79.1691960  76.4616550  42.0143010  78.1778920  78.2522220  49.3890810
  78.4751250  79.1585050  49.3082830  78.7264480  77.7641000  48.7750380
  75.9317240  82.8308460  45.2582460  75.7058160  82.6145630  46.1629080
  75.1509770  83.2636920  44.9128430  83.1615000  82.8371830  43.8573110
  82.5623890  83.5607630  43.6736730  83.7094610  82.7748610  43.0749560
  78.3716450  83.7294040  55.9242730  78.2760050  82.7888770  55.7743130
  79.2148430  83.9509110  55.5290800  81.7679870  81.4735370  45.8876390
  82.1609440  81.7907570  45.0745080  82.1296720  80.5947250  46.0020910
  73.5026990  80.1407710  54.0776510  73.1090380  80.9882920  54.2849290
  72.8145390  79.5034080  54.2685150  80.0772040  80.2242680  57.1473250
  79.3870360  80.0314880  57.7819340  80.8204340  80.5077320  57.6797550
  70.8044040  78.0636170  48.1106590  70.5157090  78.6339030  48.8231570
  71.5489800  77.5840620  48.4737820  70.9914270  82.0056290  39.3209310
  70.9088940  82.9487050  39.4624300  70.6397330  81.8631200  38.4421660
  82.3535010  84.0641120  49.9827170  81.6216130  84.5727930  50.3317270
  81.9559350  83.2471100  49.6815950  78.7912400  80.7395320  48.3879660
  78.7948460  80.2985270  47.5384200  79.6863520  81.0612650  48.4951480
  74.6414780  80.6221810  47.3473870  74.3014830  81.0997040  48.1040920
  73.8792100  80.1686930  46.9874970  78.8532550  81.7407400  41.3786420
  78.9745370  81.6993880  42.3272240  78.4681060  82.6031550  41.2233150
  82.8160920  79.5174800  49.3950110  82.8333660  79.9683450  50.2391960
  82.5676500  78.6180440  49.6083550  77.8654050  84.0508540  40.7769720
  77.2970950  83.6026790  40.1505630  78.5743050  84.4101320  40.2434870
  86.2431670  76.9306980  55.2336490  86.5677440  76.1996640  55.7594470
  86.2788180  76.6120620  54.3317480  72.9423230  87.9520560  54.6536450
  72.5578020  87.3114230  55.2519410  73.2535420  88.6556680  55.2231180
  79.0920370  84.7997100  50.1345070  79.4590500  84.3255670  50.8806410
  78.9025430  85.6738670  50.4753410  71.9560860  79.5440790  46.2638540
  71.6707780  79.1796460  47.1017160  71.8939720  78.8121250  45.6501680
  76.8819740  83.8405740  52.4529280  76.5776810  84.7197720  52.6779640
  77.8366200  83.9005530  52.4886720  75.4101530  88.0466730  43.0496130
  74.6363790  87.5064350  42.8894850  76.1396160  87.5273340  42.7113890
  86.1689510  87.0432090  48.8422520  86.8888630  87.5387380  48.4518630
  85.9671330  86.3649980  48.1976390  81.6299450  78.4370050  42.9851910
  80.8164060  77.9383220  42.9097220  81.4361400  79.2768300  42.5688260
  81.5508310  87.1141150  54.7291520  81.4845620  86.1936820  54.4749110
  80.9213450  87.2116590  55.4436160  84.3447840  82.8089700  41.2814070
  85.2327460  83.1206930  41.1065410  84.3152930  81.9361950  40.8894650
  75.4538930  87.7147110  46.6874940  75.9717600  86.9115370  46.6331830
  75.0022950  87.6526250  47.5291770  80.3408430  88.9813390  41.9602240
  80.6824130  89.7255620  41.4645560  79.5121140  89.2944510  42.3227070
  72.9383470  84.6808480  53.6000640  72.5798410  85.3462330  54.1873980
  72.6438030  83.8492030  53.9713260  76.1396590  85.1392720  56.4840190
  75.8396730  85.2849900  55.5868010  76.9107830  84.5798010  56.3913580
  81.4825040  89.9361720  54.4795320  81.4969580  89.0042680  54.2614230
  80.7750140  90.0221480  55.1185090  86.6162110  84.1201540  40.7493930
  86.5325830  84.5515760  39.8990370  87.3356300  84.5799890  41.1820750
  87.6936250  86.5769060  53.8263900  86.9684440  87.1697840  53.6293290
  88.2211710  86.5692600  53.0277270  87.6449360  90.9743800  43.4776060
  87.0025520  90.3199420  43.7519780  87.2580020  91.3798890  42.7016730
  83.2235840  88.3029230  47.3247750  83.5759660  87.7057360  46.6649120
  82.3398170  87.9773460  47.4956000  79.3099120  89.0626920  44.7318160
  79.9970250  89.6096130  45.1125750  78.5231540  89.6067650  44.7667770
  71.4491520  84.6799740  40.2235240  72.3186370  84.9624540  40.5071160
  70.9581840  85.4935610  40.1084050  78.6126330  86.0672950  44.3443520
  79.0689110  86.8778200  44.5703710  78.2614540  85.7496090  45.1762010
  80.9158940  91.5779290  51.5735820  81.5601160  91.7838670  52.2509240
  81.2788380  90.8167690  51.1206670  74.5138110  76.4110600  44.8166040
  74.3852740  76.4028500  45.7650960  73.6900130  76.7493690  44.4657050
  82.1891020  89.5811640  50.2913270  82.8313250  88.8804800  50.4045440
  82.7140370  90.3610080  50.1110160  86.0346740  89.8660260  40.0152410
  85.8084320  89.1490700  40.6077050  85.6442940  89.6172700  39.1774160
  83.9628640  90.3806540  53.4949330  84.2984880  90.9673230  54.1727250
  83.0428980  90.2499250  53.7247120  71.5132040  78.1701720  54.2772740
  70.7990560  78.3698640  54.8825350  71.9327080  77.3941290  54.6487540
  85.6162990  87.7832200  41.6766570  85.3284690  88.2444890  42.4644450
  86.4115160  87.3229970  41.9450790  71.8004630  92.1581980  55.2639270
  71.9095750  91.2176720  55.1234660  71.1485190  92.4236730  54.6153000
  79.7917220  90.4297870  56.6637390  79.4714090  89.7107110  57.2083080
  79.1175580  91.1052940  56.7373450  77.8331390  91.2758320  41.6070540
  77.8241490  92.0088010  40.9915050  76.9129750  91.0289900  41.6997500
  73.4338030  86.4973210  42.3517300  72.8265980  87.2372110  42.3612600
  73.9087380  86.5872570  41.5255500  83.0070820  80.6624030  52.0274190
  83.3751640  79.8419240  52.3553760  82.1469020  80.7225920  52.4429840
  86.3732850  79.6180970  42.8361750  85.7446010  79.7226640  42.1219980
  85.8784770  79.8377750  43.6255630  80.8190990  91.3386560  40.2695730
  80.9202970  91.1350550  39.3397710  79.9192730  91.0844840  40.4743510
  78.3416880  81.8966920  44.2519630  77.6333030  82.3653260  44.6933240
  78.6261360  81.2388930  44.8864820  79.9672810  83.3163620  52.2512160
  80.4658060  83.7909440  52.9164010  80.1095760  82.3927140  52.4582190
  82.3732310  78.6217580  45.6915420  82.2500090  78.6403710  44.7424930
  83.3216870  78.6696520  45.8113820  76.5451900  80.2052000  41.6270340
  77.3942430  80.6422150  41.5610530  76.1783170  80.5172260  42.4542400
  87.1739670  79.5331580  53.0940550  86.6713270  80.2736980  53.4334360
  87.9896330  79.9215580  52.7777340  85.4661680  84.7764760  46.5401910
  84.5251820  84.7914990  46.7149600  85.7805750  83.9900720  46.9862210
  75.4443320  86.4584360  40.1005870  76.2106590  86.3465720  40.6631300
  75.5218010  85.7622330  39.4482640  74.1390080  83.8909430  40.7838760
  74.2193670  82.9436940  40.8956160  75.0309830  84.2216310  40.8899420
  87.4687260  91.9473610  48.2156170  87.5934680  92.7704780  48.6879980
  88.3352820  91.7364340  47.8680320  71.8250270  90.1078390  43.7614810
  70.8990050  90.3499530  43.7520220  72.2906700  90.9352650  43.6399560
  73.9463070  93.2250890  57.0758880  74.7475800  93.5462940  57.4894280
  73.4314890  92.8646470  57.7978790  78.0507100  93.2135130  39.7098870
  78.8435710  93.5023960  39.2580660  77.5311450  92.7827300  39.0311350
  82.7827700  89.3330760  57.0234290  82.1765860  89.3562360  56.2830040
  82.4781810  88.6013800  57.5601540  84.2128070  93.0611050  55.6343700
  85.1649820  92.9769070  55.5843940  84.0656290  93.7252760  56.3077490
  87.1037270  92.4405260  41.1335610  86.8178780  92.0270400  40.3189790
  86.9056820  93.3692970  41.0136130  71.6660880  85.7124350  56.0194930
  72.1699900  85.1331630  56.5911160  70.9268300  85.9964580  56.5571300
  78.5684500  88.4338540  39.5741220  78.4635140  87.8190890  40.3002600
  78.4008720  87.9104430  38.7904230  78.7198820  87.1195340  55.5530450
  77.9544490  87.6880340  55.4685120  78.9014780  86.8271550  54.6598680
  81.8087230  87.4958570  40.1783210  81.2597330  87.9427870  40.8225950
  82.4306490  86.9907820  40.7020880  85.8622170  88.8500670  56.1105470
  86.6031640  89.1876430  55.6072930  85.0994850  89.0192730  55.5575240
  73.6983960  83.8553940  56.9145000  73.7389300  83.5567810  57.8230230
  74.5529460  84.2561550  56.7552520  77.4762350  86.4549490  42.0748510
  77.8978770  86.2889360  42.9179900  77.6013190  85.6449720  41.5803650
  75.6389770  82.4346040  54.8819490  75.1086230  81.9436990  54.2542830
  76.3077840  82.8630240  54.3477420  79.9889990  85.4787100  39.3225610
  80.5095650  84.7636120  38.9566760  80.6358390  86.1172970  39.6226120
  84.5367830  86.9015500  54.6460680  84.9508850  87.0560580  55.4951100
  83.6018830  87.0270720  54.8086460  85.0090000  84.2411660  56.6499830
  85.5910770  83.4863980  56.5620310  85.1851770  84.7719100  55.8731310
  76.1262070  79.4008410  54.9616780  76.0318940  78.7829160  54.2367650
  75.5459460  80.1274700  54.7346690  78.8923510  77.9581650  51.9944170
  78.4440810  77.9805910  51.1489720  78.2588710  77.5600670  52.5914470
  79.2983060  86.8535980  52.6156610  79.7171170  87.6968710  52.4432850
  78.3791690  86.9908020  52.3863390  81.6346960  84.5852160  53.9994450
  81.7543170  83.9893300  54.7389290  82.4940960  84.6221850  53.5795750
  83.9734860  85.1389350  52.5756960  83.4470080  85.6631970  51.9722100
  84.3166200  85.7716740  53.2066690  76.3721250  82.5282720  39.0206670
  76.1710310  81.6650080  39.3820010  76.2013300  82.4416080  38.0828270
  78.4015730  81.1273510  55.2570270  78.9915420  80.8189360  55.9448090
  77.5835970  80.6553260  55.4130170  83.2209160  80.7439320  55.4903290
  82.5324680  80.0820860  55.4253280  83.9415180  80.2977590  55.9351750
  83.8509560  77.3390950  41.5493550  84.1311850  76.4958850  41.9052970
  83.0775290  77.5714060  42.0632300  75.1704050  79.6283340  39.0084550
  75.4729950  79.6350770  38.1003700  75.9098640  79.2781200  39.5052210
  78.3888980  78.5717960  39.9940750  78.0410980  77.8941950  39.4143200
  78.5901750  78.1107470  40.8084140  74.1934180  88.9325760  39.8414350
  74.6309050  89.4755430  40.4971930  74.6781910  88.1072710  39.8510690
  71.4079980  91.7214790  47.2934610  71.7382990  90.8535850  47.0613250
  71.8370980  91.9273310  48.1239570  76.0041900  90.0523800  44.9536580
  75.7037440  89.9288770  45.8540490  75.8979390  89.1932390  44.5452310
  71.8970190  92.5885380  50.0316240  71.4601180  92.7686180  50.8640390
  72.4647870  93.3460000  49.8897960  87.5332370  92.0902380  54.3193550
  86.9334360  92.1494940  53.5757470  87.6626270  91.1507360  54.4490400
  88.7733820  89.8320200  39.6563260  87.9426780  89.8996850  40.1270490
  88.9505650  90.7224320  39.3530120  88.2290280  86.5767680  42.1597460
  88.9909190  87.1464330  42.2657150  88.2444650  86.0094880  42.9305770
  71.7294620  85.1005610  46.3905120  71.0743460  84.8317250  45.7464820
  72.5672570  84.9910090  45.9407100  89.2350250  87.4317780  47.0039390
  89.6059080  86.6485100  46.5975360  89.8752180  88.1206880  46.8256690
  86.2184010  88.8154360  52.4169710  85.4043850  89.2451520  52.6795500
  86.6258210  89.4272770  51.8038760  88.2809450  86.8702050  39.3169980
  88.5558290  87.7780930  39.1889200  88.0920190  86.8064580  40.2531970
  84.6785060  79.8946900  40.6123610  85.0969940  79.7077880  39.7720270
  84.3721120  79.0425950  40.9226540  88.1774790  84.8071040  44.3099410
  87.8018390  84.0398970  43.8780700  87.4477910  85.1893740  44.7974340
  72.7670550  85.4858180  50.9308460  73.1343590  85.3985580  51.8104480
  72.1981370  84.7224730  50.8315320  87.5674410  83.9542560  53.9438930
  87.3360500  83.7255310  53.0436880  87.8278960  84.8742110  53.8983820
  72.3186550  82.3967270  54.8366880  71.4242600  82.3634030  55.1760590
  72.8584100  82.5954060  55.6018130  86.0062480  79.1798990  56.7218630
  86.8832660  79.1882390  57.1052630  86.0183320  78.4429830  56.1110980
  70.9432700  82.3104540  42.3330450  70.0396780  82.5734740  42.1582110
  71.4273320  82.5815710  41.5530410  87.4525750  83.0328530  47.6106650
  87.9763230  82.5391180  46.9796820  88.0385170  83.1678890  48.3554220
  87.6315470  83.1168400  51.1326200  86.6818180  83.0831940  51.2471190
  87.8128480  84.0268510  50.8975970  73.4859910  81.3670080  40.2424830
  74.1951610  80.9453300  39.7572110  72.7699850  81.4345310  39.6108180
  73.1334070  77.4209410  39.2827480  73.8562200  77.9618350  39.6008700
  73.4058590  77.1472830  38.4069020  86.9425720  82.2901880  43.5499060
  87.4384840  82.0572750  44.3347940  86.7441790  81.4513720  43.1336700
  72.8226260  76.6715600  49.1850100  73.4702450  76.1212980  48.7445260
  73.2428100  76.9258750  50.0065910  88.3712880  80.9262830  46.0836740
  88.2612160  80.7718870  47.0219010  89.1320470  80.3983770  45.8412150
  86.7178600  76.8656960  52.5419740  87.3550820  77.4791100  52.9078930
  86.8653490  76.9017620  51.5968970  89.2603150  78.7570750  39.3242880
  90.1852460  78.6251930  39.1161170  89.2378940  78.8363570  40.2779330
  89.3341640  79.5281410  41.9499590  88.5393140  79.4626530  42.4792500
  89.5384920  80.4632050  41.9384940  86.2760060  93.5672960  45.9437980
  86.8719130  93.2457530  45.2672400  86.5338210  93.0944780  46.7351250
  72.5758260  76.8271270  51.9275420  72.2273080  77.2835090  52.6933600
  72.2445960  75.9328400  52.0097850  74.1822630  89.9990870  56.0928610
  74.1392260  89.6283780  56.9743070  74.3133640  90.9368440  56.2330430
  77.8828660  91.5550460  51.6938330  77.6420020  91.8225020  50.8068850
  78.8231300  91.7256190  51.7489190  80.0883080  78.0183150  55.4494840
  80.0271970  78.6104980  56.1990250  81.0283460  77.9109110  55.3045100
  82.7257640  77.6753210  55.0887130  83.3398050  77.9932500  54.4268210
  83.2707200  77.1901800  55.7082990  73.2478900  76.3547470  55.2026190
  73.7961890  76.1735520  54.4392300  73.3134210  75.5641580  55.7382500
  74.0210660  92.9453120  53.2126390  73.4270980  92.8137820  53.9516430
  74.0134500  92.1091260  52.7468490  83.4665680  76.2385350  51.4156420
  82.5925520  76.5720460  51.2129350  83.3576430  75.7658530  52.2408290
  84.3737660  78.4456220  52.7998140  84.0451020  77.6307980  52.4199870
  85.3219960  78.4026030  52.6763830  73.6522890  90.3111500  52.1634430
  72.9256950  89.6916790  52.0960380  73.7132040  90.7052110  51.2932510
  77.2567990  92.5256500  48.9483840  77.7733010  91.9143860  48.4232100
  77.9065370  93.0285280  49.4394850  79.9963490  93.4164990  49.7752820
  80.2841300  93.1619290  48.8985830  80.5086710  92.8642350  50.3658390
  81.2140500  77.1555190  50.3549330  80.4312290  77.6300690  50.6346090
  80.9203430  76.2510020  50.2462510  85.7661570  77.8578290  48.3998420
  86.2069660  77.8023390  47.5520020  85.4969160  78.7736300  48.4708600
  87.6300140  77.4893530  46.4107240  87.5688540  76.5454750  46.2638260
  88.4092170  77.5973620  46.9560700  79.0994720  79.5741940  45.8665360
  78.2869230  79.1998830  45.5261240  79.6036360  78.8187020  46.1686550
  83.6019700  76.2384390  47.1048430  84.2049070  76.8104600  47.5796950
  82.8612690  76.8023830  46.8822330  86.7454300  76.6405950  42.3788710
  86.9404930  77.5389400  42.6456140  85.9584170  76.4093030  42.8721660
  73.5415590  92.3219120  42.8181330  73.0163210  92.7027150  42.1143290
  73.4660170  92.9469890  43.5391040  74.9306060  77.9866720  41.4165020
  75.4598820  77.1996520  41.2872970  75.5634380  78.6657910  41.6500550
  77.1243900  77.7241860  44.4710410  76.4946640  77.0229170  44.6380540
  76.5849040  78.4845990  44.2543570  77.2499460  77.0025840  56.9062900
  76.9683730  77.5059440  56.1423720  77.6319160  76.2047590  56.5405030
  75.3023350  90.3866230  41.6976910  74.6732230  90.8551330  42.2462740
  75.4171180  89.5415450  42.1323100  83.8514920  76.4179420  57.4843370
  83.7380370  76.7374030  58.3794890  84.6684660  76.8191930  57.1880650
  82.7573070  84.4371890  27.8478110  82.6767120  83.5226500  27.5769820
  82.3437490  84.9338960  27.1417820  80.8891110  86.2150910  29.7287380
  80.1133210  85.7351350  30.0185950  81.5404040  85.5356560  29.5543540
  74.9056940  86.5270720  30.6063140  74.0741820  86.2719430  31.0059650
  75.5137920  86.5981490  31.3421060  84.9098540  90.6211100  28.5086510
  84.4480070  89.8498340  28.8373680  85.7224090  90.6477170  29.0138960
  74.8858200  90.5610810  30.8021160  75.1886240  89.6708550  30.6231380
  75.6301790  91.1181030  30.5743410  73.3148890  81.4872610  24.3905530
  72.4265590  81.8288580  24.2885410  73.5990080  81.2872930  23.4986360
  71.2781900  84.0878260  30.2745230  71.8498010  83.3200460  30.2748870
  71.2783440  84.3867020  29.3651840  81.1361850  92.9069110  28.1290500
  80.5173290  93.3626610  27.5584940  81.9913630  93.0620570  27.7280200
  80.3300100  88.8908100  29.7357540  80.2608380  87.9498040  29.5746670
  81.0919960  88.9809510  30.3080110  72.5206770  79.4962620  32.0614160
  72.3409610  78.5988370  32.3416920  72.1186850  80.0434490  32.7361110
  81.3605270  81.6978480  29.9626470  81.7370090  80.8250360  29.8500140
  81.2624780  82.0337180  29.0716910  75.4910280  80.0704110  25.4243910
  75.5977030  80.9707840  25.7312670  74.5802640  80.0222080  25.1338560
  85.1429390  79.1928920  26.8954810  85.9639010  78.7025490  26.9380290
  85.1763470  79.7826580  27.6486650  73.1393440  81.9923120  30.6696500
  73.8203550  82.2561490  31.2883900  72.8241490  81.1523990  31.0034510
  77.3318010  83.0390480  29.7569090  77.8396230  83.5371450  30.3974110
  77.8631250  82.2625680  29.5808450  89.4328940  81.2095670  33.4598440
  88.7281110  81.5977380  32.9413550  89.6986860  81.9045960  34.0619370
  75.6154110  77.6789040  34.0232510  75.6172550  78.1961430  33.2178410
  74.7858420  77.2019220  34.0002440  82.0025200  87.7908350  25.5222410
  81.3842470  88.2557800  24.9585130  82.5148450  88.4835830  25.9391920
  76.8656960  87.3184220  32.2006010  76.5326340  87.9453140  32.8427080
  77.0423640  87.8446100  31.4207680  85.3790870  81.1329300  29.6682350
  84.6746440  81.4214190  30.2485460  85.7403030  81.9429410  29.3081910
  75.2969440  79.3899000  32.0302960  75.6386250  80.2341050  31.7356830
  74.3585250  79.5382740  32.1468300  76.0776060  89.2865020  34.0155190
  76.6950060  89.9616100  33.7339640  75.2169180  89.6953000  33.9242690
  71.3708400  88.4764880  22.8962040  70.9936380  88.9651980  22.1646940
  71.6281470  89.1490160  23.5268570  86.9953650  90.7504430  31.9309830
  86.3117170  91.4203540  31.9226500  87.5347940  90.9485080  31.1654690
  88.4477790  80.5784090  30.0591560  87.5002700  80.6123070  30.1906990
  88.7727780  81.3923040  30.4440920  78.9797330  76.8781270  28.3547550
  79.2872310  76.3228160  27.6383050  78.0498030  77.0125730  28.1720540
  84.5312390  92.5948560  30.6455010  84.5439550  92.1910850  29.7777270
  83.9787610  93.3695850  30.5416440  85.8257810  89.3164780  25.7345180
  85.7154140  88.3739110  25.8594600  85.8226060  89.6780420  26.6207940
  83.9297830  87.4978400  31.9737620  84.3466620  87.2838510  31.1391080
  84.6537650  87.7551190  32.5446240  81.3678090  84.9430100  25.0907670
  80.4407370  84.8767480  25.3196140  81.5202910  85.8810230  24.9762910
  81.3547170  81.2147100  22.0874830  80.4150840  81.3761060  22.1727290
  81.6730430  81.9332780  21.5410820  87.8759930  85.8965620  32.0653860
  87.0478560  85.9658710  31.5903990  88.4710410  86.4819930  31.5969690
  85.3975380  86.5050400  25.5942920  84.7787800  86.1669950  24.9469220
  85.3799830  85.8610160  26.3022110  84.8401940  82.6834940  33.0108730
  84.4273120  83.5088650  33.2648720  84.1077890  82.0979980  32.8185090
  76.9734730  85.4694840  27.8727400  76.5691730  84.7572090  27.3773300
  77.0597850  85.1248080  28.7615440  77.4416430  89.1562400  30.0366610
  77.1444720  88.5507870  29.3574390  78.3916250  89.1939710  29.9255970
  75.6863350  82.2438050  31.6526440  76.2377940  82.3533390  30.8779690
  76.2006860  82.6175650  32.3681670  85.5302040  92.7294270  33.6989710
  85.0532600  93.5366460  33.5062320  84.8463830  92.0772600  33.8515920
  76.5334860  88.8944090  36.6874410  75.6363390  89.1184060  36.9347810
  76.5587730  89.0179030  35.7385810  83.5740080  85.7437210  22.6015670
  84.0133360  84.9059640  22.4553490  84.2868500  86.3766610  22.6879810
  75.3606080  85.7657410  35.2631780  75.2213850  86.6380210  35.6319180
  74.4787440  85.4230220  35.1179720  81.6835460  90.6833280  26.5696910
  82.1231370  91.4257610  26.1552300  81.6222350  90.9259850  27.4935870
  77.1586430  91.7079110  37.4716930  77.1301860  92.1122060  36.6045360
  76.9951400  90.7789470  37.3088530  87.1557220  76.9980020  20.9156710
  86.8429880  77.0906850  21.8155780  87.9169690  77.5761050  20.8654140
  73.6739360  84.3639820  25.3734050  73.5536960  85.0901910  24.7615320
  73.3640250  83.5942730  24.8961960  89.1101250  92.4906210  38.7681100
  89.5860970  92.9689100  39.4470180  89.7308410  92.4223700  38.0426600
  71.3124730  87.5354960  31.1802690  71.3905150  87.6703730  30.2358410
  71.9266410  86.8270850  31.3730810  72.5572360  89.2355150  27.5908870
  72.1500440  89.3769740  26.7362470  73.4485370  88.9515310  27.3880080
  88.5134500  89.6819060  35.9281110  88.6397560  89.4430940  35.0098290
  88.5555880  88.8503600  36.4003190  82.3751240  93.3847060  34.4975920
  82.8895910  93.2955070  35.2998350  81.5320320  93.7306760  34.7903830
  84.3505640  93.6702400  23.9259920  84.1906780  93.3805340  24.8241750
  84.1852350  92.8942530  23.3905150  84.0531770  91.1789960  22.4857920
  83.3596930  91.1767250  21.8260200  84.7954630  90.7549280  22.0552090
  83.6181700  92.8052670  26.5606410  84.0738650  92.0242050  26.8745030
  83.9574220  93.5159490  27.1047590  88.3658510  81.7351520  36.8930850
  87.7502780  82.2431190  36.3646310  88.0454930  80.8349850  36.8356790
  71.3684250  88.5769130  33.7197150  71.5315290  88.1074490  32.9016520
  71.8336700  88.0692690  34.3845990  76.1403020  77.7074890  28.7557720
  75.6971170  78.4884430  28.4242240  76.6988010  78.0304780  29.4628660
  80.4272830  80.5743410  34.3593040  79.9652200  80.7826430  35.1712980
  80.0250940  79.7602760  34.0563710  85.4277340  81.7952360  35.4889700
  84.5770930  81.4958110  35.8098770  85.2679130  82.0394370  34.5773520
  82.5227050  83.2954110  37.5888490  82.8480460  82.4617860  37.2490720
  83.3107380  83.8182630  37.7366820  79.2561840  77.3285590  23.6363550
  78.6316020  77.3245460  24.3616860  79.1691960  76.4616550  23.2399520
  78.1778920  78.2522220  30.6147320  78.4751250  79.1585050  30.5339340
  78.7264480  77.7641000  30.0006890  75.9317240  82.8308460  26.4838970
  75.7058160  82.6145630  27.3885590  75.1509770  83.2636920  26.1384940
  83.1615000  82.8371830  25.0829620  82.5623890  83.5607630  24.8993240
  83.7094610  82.7748610  24.3006070  78.3716450  83.7294040  37.1499240
  78.2760050  82.7888770  36.9999640  79.2148430  83.9509110  36.7547310
  81.7679870  81.4735370  27.1132900  82.1609440  81.7907570  26.3001590
  82.1296720  80.5947250  27.2277420  73.5026990  80.1407710  35.3033020
  73.1090380  80.9882920  35.5105800  72.8145390  79.5034080  35.4941660
  80.0772040  80.2242680  38.3729760  79.3870360  80.0314880  39.0075850
  80.8204340  80.5077320  38.9054060  70.8044040  78.0636170  29.3363100
  70.5157090  78.6339030  30.0488080  71.5489800  77.5840620  29.6994330
  70.9914270  82.0056290  20.5465820  70.9088940  82.9487050  20.6880810
  70.6397330  81.8631200  19.6678170  82.3535010  84.0641120  31.2083680
  81.6216130  84.5727930  31.5573780  81.9559350  83.2471100  30.9072460
  78.7912400  80.7395320  29.6136170  78.7948460  80.2985270  28.7640710
  79.6863520  81.0612650  29.7207990  74.6414780  80.6221810  28.5730380
  74.3014830  81.0997040  29.3297430  73.8792100  80.1686930  28.2131480
  78.8532550  81.7407400  22.6042930  78.9745370  81.6993880  23.5528750
  78.4681060  82.6031550  22.4489660  82.8160920  79.5174800  30.6206620
  82.8333660  79.9683450  31.4648470  82.5676500  78.6180440  30.8340060
  77.8654050  84.0508540  22.0026230  77.2970950  83.6026790  21.3762140
  78.5743050  84.4101320  21.4691380  86.2431670  76.9306980  36.4593000
  86.5677440  76.1996640  36.9850980  86.2788180  76.6120620  35.5573990
  72.9423230  87.9520560  35.8792960  72.5578020  87.3114230  36.4775920
  73.2535420  88.6556680  36.4487690  79.0920370  84.7997100  31.3601580
  79.4590500  84.3255670  32.1062920  78.9025430  85.6738670  31.7009920
  71.9560860  79.5440790  27.4895050  71.6707780  79.1796460  28.3273670
  71.8939720  78.8121250  26.8758190  76.8819740  83.8405740  33.6785790
  76.5776810  84.7197720  33.9036150  77.8366200  83.9005530  33.7143230
  75.4101530  88.0466730  24.2752640  74.6363790  87.5064350  24.1151360
  76.1396160  87.5273340  23.9370400  86.1689510  87.0432090  30.0679030
  86.8888630  87.5387380  29.6775140  85.9671330  86.3649980  29.4232900
  81.6299450  78.4370050  24.2108420  80.8164060  77.9383220  24.1353730
  81.4361400  79.2768300  23.7944770  81.5508310  87.1141150  35.9548030
  81.4845620  86.1936820  35.7005620  80.9213450  87.2116590  36.6692670
  84.3447840  82.8089700  22.5070580  85.2327460  83.1206930  22.3321920
  84.3152930  81.9361950  22.1151160  75.4538930  87.7147110  27.9131450
  75.9717600  86.9115370  27.8588340  75.0022950  87.6526250  28.7548280
  80.3408430  88.9813390  23.1858750  80.6824130  89.7255620  22.6902070
  79.5121140  89.2944510  23.5483580  72.9383470  84.6808480  34.8257150
  72.5798410  85.3462330  35.4130490  72.6438030  83.8492030  35.1969770
  76.1396590  85.1392720  37.7096700  75.8396730  85.2849900  36.8124520
  76.9107830  84.5798010  37.6170090  81.4825040  89.9361720  35.7051830
  81.4969580  89.0042680  35.4870740  80.7750140  90.0221480  36.3441600
  86.6162110  84.1201540  21.9750440  86.5325830  84.5515760  21.1246880
  87.3356300  84.5799890  22.4077260  87.6936250  86.5769060  35.0520410
  86.9684440  87.1697840  34.8549800  88.2211710  86.5692600  34.2533780
  87.6449360  90.9743800  24.7032570  87.0025520  90.3199420  24.9776290
  87.2580020  91.3798890  23.9273240  83.2235840  88.3029230  28.5504260
  83.5759660  87.7057360  27.8905630  82.3398170  87.9773460  28.7212510
  79.3099120  89.0626920  25.9574670  79.9970250  89.6096130  26.3382260
  78.5231540  89.6067650  25.9924280  71.4491520  84.6799740  21.4491750
  72.3186370  84.9624540  21.7327670  70.9581840  85.4935610  21.3340560
  78.6126330  86.0672950  25.5700030  79.0689110  86.8778200  25.7960220
  78.2614540  85.7496090  26.4018520  80.9158940  91.5779290  32.7992330
  81.5601160  91.7838670  33.4765750  81.2788380  90.8167690  32.3463180
  74.5138110  76.4110600  26.0422550  74.3852740  76.4028500  26.9907470
  73.6900130  76.7493690  25.6913560  82.1891020  89.5811640  31.5169780
  82.8313250  88.8804800  31.6301950  82.7140370  90.3610080  31.3366670
  86.0346740  89.8660260  21.2408920  85.8084320  89.1490700  21.8333560
  85.6442940  89.6172700  20.4030670  83.9628640  90.3806540  34.7205840
  84.2984880  90.9673230  35.3983760  83.0428980  90.2499250  34.9503630
  71.5132040  78.1701720  35.5029250  70.7990560  78.3698640  36.1081860
  71.9327080  77.3941290  35.8744050  85.6162990  87.7832200  22.9023080
  85.3284690  88.2444890  23.6900960  86.4115160  87.3229970  23.1707300
  71.8004630  92.1581980  36.4895780  71.9095750  91.2176720  36.3491170
  71.1485190  92.4236730  35.8409510  79.7917220  90.4297870  37.8893900
  79.4714090  89.7107110  38.4339590  79.1175580  91.1052940  37.9629960
  77.8331390  91.2758320  22.8327050  77.8241490  92.0088010  22.2171560
  76.9129750  91.0289900  22.9254010  73.4338030  86.4973210  23.5773810
  72.8265980  87.2372110  23.5869110  73.9087380  86.5872570  22.7512010
  83.0070820  80.6624030  33.2530700  83.3751640  79.8419240  33.5810270
  82.1469020  80.7225920  33.6686350  86.3732850  79.6180970  24.0618260
  85.7446010  79.7226640  23.3476490  85.8784770  79.8377750  24.8512140
  80.8190990  91.3386560  21.4952240  80.9202970  91.1350550  20.5654220
  79.9192730  91.0844840  21.7000020  78.3416880  81.8966920  25.4776140
  77.6333030  82.3653260  25.9189750  78.6261360  81.2388930  26.1121330
  79.9672810  83.3163620  33.4768670  80.4658060  83.7909440  34.1420520
  80.1095760  82.3927140  33.6838700  82.3732310  78.6217580  26.9171930
  82.2500090  78.6403710  25.9681440  83.3216870  78.6696520  27.0370330
  76.5451900  80.2052000  22.8526850  77.3942430  80.6422150  22.7867040
  76.1783170  80.5172260  23.6798910  87.1739670  79.5331580  34.3197060
  86.6713270  80.2736980  34.6590870  87.9896330  79.9215580  34.0033850
  85.4661680  84.7764760  27.7658420  84.5251820  84.7914990  27.9406110
  85.7805750  83.9900720  28.2118720  75.4443320  86.4584360  21.3262380
  76.2106590  86.3465720  21.8887810  75.5218010  85.7622330  20.6739150
  74.1390080  83.8909430  22.0095270  74.2193670  82.9436940  22.1212670
  75.0309830  84.2216310  22.1155930  87.4687260  91.9473610  29.4412680
  87.5934680  92.7704780  29.9136490  88.3352820  91.7364340  29.0936830
  71.8250270  90.1078390  24.9871320  70.8990050  90.3499530  24.9776730
  72.2906700  90.9352650  24.8656070  73.9463070  93.2250890  38.3015390
  74.7475800  93.5462940  38.7150790  73.4314890  92.8646470  39.0235300
  78.0507100  93.2135130  20.9355380  78.8435710  93.5023960  20.4837170
  77.5311450  92.7827300  20.2567860  82.7827700  89.3330760  38.2490800
  82.1765860  89.3562360  37.5086550  82.4781810  88.6013800  38.7858050
  84.2128070  93.0611050  36.8600210  85.1649820  92.9769070  36.8100450
  84.0656290  93.7252760  37.5334000  87.1037270  92.4405260  22.3592120
  86.8178780  92.0270400  21.5446300  86.9056820  93.3692970  22.2392640
  71.6660880  85.7124350  37.2451440  72.1699900  85.1331630  37.8167670
  70.9268300  85.9964580  37.7827810  78.5684500  88.4338540  20.7997730
  78.4635140  87.8190890  21.5259110  78.4008720  87.9104430  20.0160740
  78.7198820  87.1195340  36.7786960  77.9544490  87.6880340  36.6941630
  78.9014780  86.8271550  35.8855190  81.8087230  87.4958570  21.4039720
  81.2597330  87.9427870  22.0482460  82.4306490  86.9907820  21.9277390
  85.8622170  88.8500670  37.3361980  86.6031640  89.1876430  36.8329440
  85.0994850  89.0192730  36.7831750  73.6983960  83.8553940  38.1401510
  73.7389300  83.5567810  39.0486740  74.5529460  84.2561550  37.9809030
  77.4762350  86.4549490  23.3005020  77.8978770  86.2889360  24.1436410
  77.6013190  85.6449720  22.8060160  75.6389770  82.4346040  36.1076000
  75.1086230  81.9436990  35.4799340  76.3077840  82.8630240  35.5733930
  79.9889990  85.4787100  20.5482120  80.5095650  84.7636120  20.1823270
  80.6358390  86.1172970  20.8482630  84.5367830  86.9015500  35.8717190
  84.9508850  87.0560580  36.7207610  83.6018830  87.0270720  36.0342970
  85.0090000  84.2411660  37.8756340  85.5910770  83.4863980  37.7876820
  85.1851770  84.7719100  37.0987820  76.1262070  79.4008410  36.1873290
  76.0318940  78.7829160  35.4624160  75.5459460  80.1274700  35.9603200
  78.8923510  77.9581650  33.2200680  78.4440810  77.9805910  32.3746230
  78.2588710  77.5600670  33.8170980  79.2983060  86.8535980  33.8413120
  79.7171170  87.6968710  33.6689360  78.3791690  86.9908020  33.6119900
  81.6346960  84.5852160  35.2250960  81.7543170  83.9893300  35.9645800
  82.4940960  84.6221850  34.8052260  83.9734860  85.1389350  33.8013470
  83.4470080  85.6631970  33.1978610  84.3166200  85.7716740  34.4323200
  76.3721250  82.5282720  20.2463180  76.1710310  81.6650080  20.6076520
  76.2013300  82.4416080  19.3084780  78.4015730  81.1273510  36.4826780
  78.9915420  80.8189360  37.1704600  77.5835970  80.6553260  36.6386680
  83.2209160  80.7439320  36.7159800  82.5324680  80.0820860  36.6509790
  83.9415180  80.2977590  37.1608260  83.8509560  77.3390950  22.7750060
  84.1311850  76.4958850  23.1309480  83.0775290  77.5714060  23.2888810
  75.1704050  79.6283340  20.2341060  75.4729950  79.6350770  19.3260210
  75.9098640  79.2781200  20.7308720  78.3888980  78.5717960  21.2197260
  78.0410980  77.8941950  20.6399710  78.5901750  78.1107470  22.0340650
  74.1934180  88.9325760  21.0670860  74.6309050  89.4755430  21.7228440
  74.6781910  88.1072710  21.0767200  71.4079980  91.7214790  28.5191120
  71.7382990  90.8535850  28.2869760  71.8370980  91.9273310  29.3496080
  76.0041900  90.0523800  26.1793090  75.7037440  89.9288770  27.0797000
  75.8979390  89.1932390  25.7708820  71.8970190  92.5885380  31.2572750
  71.4601180  92.7686180  32.0896900  72.4647870  93.3460000  31.1154470
  87.5332370  92.0902380  35.5450060  86.9334360  92.1494940  34.8013980
  87.6626270  91.1507360  35.6746910  88.7733820  89.8320200  20.8819770
  87.9426780  89.8996850  21.3527000  88.9505650  90.7224320  20.5786630
  88.2290280  86.5767680  23.3853970  88.9909190  87.1464330  23.4913660
  88.2444650  86.0094880  24.1562280  71.7294620  85.1005610  27.6161630
  71.0743460  84.8317250  26.9721330  72.5672570  84.9910090  27.1663610
  89.2350250  87.4317780  28.2295900  89.6059080  86.6485100  27.8231870
  89.8752180  88.1206880  28.0513200  86.2184010  88.8154360  33.6426220
  85.4043850  89.2451520  33.9052010  86.6258210  89.4272770  33.0295270
  88.2809450  86.8702050  20.5426490  88.5558290  87.7780930  20.4145710
  88.0920190  86.8064580  21.4788480  84.6785060  79.8946900  21.8380120
  85.0969940  79.7077880  20.9976780  84.3721120  79.0425950  22.1483050
  88.1774790  84.8071040  25.5355920  87.8018390  84.0398970  25.1037210
  87.4477910  85.1893740  26.0230850  72.7670550  85.4858180  32.1564970
  73.1343590  85.3985580  33.0360990  72.1981370  84.7224730  32.0571830
  87.5674410  83.9542560  35.1695440  87.3360500  83.7255310  34.2693390
  87.8278960  84.8742110  35.1240330  72.3186550  82.3967270  36.0623390
  71.4242600  82.3634030  36.4017100  72.8584100  82.5954060  36.8274640
  86.0062480  79.1798990  37.9475140  86.8832660  79.1882390  38.3309140
  86.0183320  78.4429830  37.3367490  70.9432700  82.3104540  23.5586960
  70.0396780  82.5734740  23.3838620  71.4273320  82.5815710  22.7786920
  87.4525750  83.0328530  28.8363160  87.9763230  82.5391180  28.2053330
  88.0385170  83.1678890  29.5810730  87.6315470  83.1168400  32.3582710
  86.6818180  83.0831940  32.4727700  87.8128480  84.0268510  32.1232480
  73.4859910  81.3670080  21.4681340  74.1951610  80.9453300  20.9828620
  72.7699850  81.4345310  20.8364690  73.1334070  77.4209410  20.5083990
  73.8562200  77.9618350  20.8265210  73.4058590  77.1472830  19.6325530
  86.9425720  82.2901880  24.7755570  87.4384840  82.0572750  25.5604450
  86.7441790  81.4513720  24.3593210  72.8226260  76.6715600  30.4106610
  73.4702450  76.1212980  29.9701770  73.2428100  76.9258750  31.2322420
  88.3712880  80.9262830  27.3093250  88.2612160  80.7718870  28.2475520
  89.1320470  80.3983770  27.0668660  86.7178600  76.8656960  33.7676250
  87.3550820  77.4791100  34.1335440  86.8653490  76.9017620  32.8225480
  89.2603150  78.7570750  20.5499390  90.1852460  78.6251930  20.3417680
  89.2378940  78.8363570  21.5035840  89.3341640  79.5281410  23.1756100
  88.5393140  79.4626530  23.7049010  89.5384920  80.4632050  23.1641450
  86.2760060  93.5672960  27.1694490  86.8719130  93.2457530  26.4928910
  86.5338210  93.0944780  27.9607760  72.5758260  76.8271270  33.1531930
  72.2273080  77.2835090  33.9190110  72.2445960  75.9328400  33.2354360
  74.1822630  89.9990870  37.3185120  74.1392260  89.6283780  38.1999580
  74.3133640  90.9368440  37.4586940  77.8828660  91.5550460  32.9194840
  77.6420020  91.8225020  32.0325360  78.8231300  91.7256190  32.9745700
  80.0883080  78.0183150  36.6751350  80.0271970  78.6104980  37.4246760
  81.0283460  77.9109110  36.5301610  82.7257640  77.6753210  36.3143640
  83.3398050  77.9932500  35.6524720  83.2707200  77.1901800  36.9339500
  73.2478900  76.3547470  36.4282700  73.7961890  76.1735520  35.6648810
  73.3134210  75.5641580  36.9639010  74.0210660  92.9453120  34.4382900
  73.4270980  92.8137820  35.1772940  74.0134500  92.1091260  33.9725000
  83.4665680  76.2385350  32.6412930  82.5925520  76.5720460  32.4385860
  83.3576430  75.7658530  33.4664800  84.3737660  78.4456220  34.0254650
  84.0451020  77.6307980  33.6456380  85.3219960  78.4026030  33.9020340
  73.6522890  90.3111500  33.3890940  72.9256950  89.6916790  33.3216890
  73.7132040  90.7052110  32.5189020  77.2567990  92.5256500  30.1740350
  77.7733010  91.9143860  29.6488610  77.9065370  93.0285280  30.6651360
  79.9963490  93.4164990  31.0009330  80.2841300  93.1619290  30.1242340
  80.5086710  92.8642350  31.5914900  81.2140500  77.1555190  31.5805840
  80.4312290  77.6300690  31.8602600  80.9203430  76.2510020  31.4719020
  85.7661570  77.8578290  29.6254930  86.2069660  77.8023390  28.7776530
  85.4969160  78.7736300  29.6965110  87.6300140  77.4893530  27.6363750
  87.5688540  76.5454750  27.4894770  88.4092170  77.5973620  28.1817210
  72.5580910  77.4602670  24.1019560  73.3160270  77.5731550  23.5283590
  72.0958080  78.2971870  24.0562990  79.0994720  79.5741940  27.0921870
  78.2869230  79.1998830  26.7517750  79.6036360  78.8187020  27.3943060
  83.6019700  76.2384390  28.3304940  84.2049070  76.8104600  28.8053460
  82.8612690  76.8023830  28.1078840  86.7454300  76.6405950  23.6045220
  86.9404930  77.5389400  23.8712650  85.9584170  76.4093030  24.0978170
  73.5415590  92.3219120  24.0437840  73.0163210  92.7027150  23.3399800
  73.4660170  92.9469890  24.7647550  74.9306060  77.9866720  22.6421530
  75.4598820  77.1996520  22.5129480  75.5634380  78.6657910  22.8757060
  77.1243900  77.7241860  25.6966920  76.4946640  77.0229170  25.8637050
  76.5849040  78.4845990  25.4800080  77.2499460  77.0025840  38.1319410
  76.9683730  77.5059440  37.3680230  77.6319160  76.2047590  37.7661540
  75.3023350  90.3866230  22.9233420  74.6732230  90.8551330  23.4719250
  75.4171180  89.5415450  23.3579610  83.8514920  76.4179420  38.7099880
  83.7380370  76.7374030  39.6051400  84.6684660  76.8191930  38.4137160
  82.7573070  84.4371890   9.0734620  82.6767120  83.5226500   8.8026330
  82.3437490  84.9338960   8.3674330  80.8891110  86.2150910  10.9543890
  80.1133210  85.7351350  11.2442460  81.5404040  85.5356560  10.7800050
  74.9056940  86.5270720  11.8319650  74.0741820  86.2719430  12.2316160
  75.5137920  86.5981490  12.5677570  84.9098540  90.6211100   9.7343020
  84.4480070  89.8498340  10.0630190  85.7224090  90.6477170  10.2395470
  74.8858200  90.5610810  12.0277670  75.1886240  89.6708550  11.8487890
  75.6301790  91.1181030  11.7999920  73.3148890  81.4872610   5.6162040
  72.4265590  81.8288580   5.5141920  73.5990080  81.2872930   4.7242870
  71.2781900  84.0878260  11.5001740  71.8498010  83.3200460  11.5005380
  71.2783440  84.3867020  10.5908350  81.1361850  92.9069110   9.3547010
  80.5173290  93.3626610   8.7841450  81.9913630  93.0620570   8.9536710
  80.3300100  88.8908100  10.9614050  80.2608380  87.9498040  10.8003180
  81.0919960  88.9809510  11.5336620  72.5206770  79.4962620  13.2870670
  72.3409610  78.5988370  13.5673430  72.1186850  80.0434490  13.9617620
  81.3605270  81.6978480  11.1882980  81.7370090  80.8250360  11.0756650
  81.2624780  82.0337180  10.2973420  75.4910280  80.0704110   6.6500420
  75.5977030  80.9707840   6.9569180  74.5802640  80.0222080   6.3595070
  85.1429390  79.1928920   8.1211320  85.9639010  78.7025490   8.1636800
  85.1763470  79.7826580   8.8743160  73.1393440  81.9923120  11.8953010
  73.8203550  82.2561490  12.5140410  72.8241490  81.1523990  12.2291020
  77.3318010  83.0390480  10.9825600  77.8396230  83.5371450  11.6230620
  77.8631250  82.2625680  10.8064960  89.4328940  81.2095670  14.6854950
  88.7281110  81.5977380  14.1670060  89.6986860  81.9045960  15.2875880
  75.6154110  77.6789040  15.2489020  75.6172550  78.1961430  14.4434920
  74.7858420  77.2019220  15.2258950  82.0025200  87.7908350   6.7478920
  81.3842470  88.2557800   6.1841640  82.5148450  88.4835830   7.1648430
  76.8656960  87.3184220  13.4262520  76.5326340  87.9453140  14.0683590
  77.0423640  87.8446100  12.6464190  85.3790870  81.1329300  10.8938860
  84.6746440  81.4214190  11.4741970  85.7403030  81.9429410  10.5338420
  75.2969440  79.3899000  13.2559470  75.6386250  80.2341050  12.9613340
  74.3585250  79.5382740  13.3724810  76.0776060  89.2865020  15.2411700
  76.6950060  89.9616100  14.9596150  75.2169180  89.6953000  15.1499200
  71.3708400  88.4764880   4.1218550  70.9936380  88.9651980   3.3903450
  71.6281470  89.1490160   4.7525080  86.9953650  90.7504430  13.1566340
  86.3117170  91.4203540  13.1483010  87.5347940  90.9485080  12.3911200
  88.4477790  80.5784090  11.2848070  87.5002700  80.6123070  11.4163500
  88.7727780  81.3923040  11.6697430  78.9797330  76.8781270   9.5804060
  79.2872310  76.3228160   8.8639560  78.0498030  77.0125730   9.3977050
  84.5312390  92.5948560  11.8711520  84.5439550  92.1910850  11.0033780
  83.9787610  93.3695850  11.7672950  85.8257810  89.3164780   6.9601690
  85.7154140  88.3739110   7.0851110  85.8226060  89.6780420   7.8464450
  83.9297830  87.4978400  13.1994130  84.3466620  87.2838510  12.3647590
  84.6537650  87.7551190  13.7702750  81.3678090  84.9430100   6.3164180
  80.4407370  84.8767480   6.5452650  81.5202910  85.8810230   6.2019420
  81.3547170  81.2147100   3.3131340  80.4150840  81.3761060   3.3983800
  81.6730430  81.9332780   2.7667330  87.8759930  85.8965620  13.2910370
  87.0478560  85.9658710  12.8160500  88.4710410  86.4819930  12.8226200
  85.3975380  86.5050400   6.8199430  84.7787800  86.1669950   6.1725730
  85.3799830  85.8610160   7.5278620  84.8401940  82.6834940  14.2365240
  84.4273120  83.5088650  14.4905230  84.1077890  82.0979980  14.0441600
  76.9734730  85.4694840   9.0983910  76.5691730  84.7572090   8.6029810
  77.0597850  85.1248080   9.9871950  77.4416430  89.1562400  11.2623120
  77.1444720  88.5507870  10.5830900  78.3916250  89.1939710  11.1512480
  75.6863350  82.2438050  12.8782950  76.2377940  82.3533390  12.1036200
  76.2006860  82.6175650  13.5938180  85.5302040  92.7294270  14.9246220
  85.0532600  93.5366460  14.7318830  84.8463830  92.0772600  15.0772430
  76.5334860  88.8944090  17.9130920  75.6363390  89.1184060  18.1604320
  76.5587730  89.0179030  16.9642320  83.5740080  85.7437210   3.8272180
  84.0133360  84.9059640   3.6810000  84.2868500  86.3766610   3.9136320
  75.3606080  85.7657410  16.4888290  75.2213850  86.6380210  16.8575690
  74.4787440  85.4230220  16.3436230  81.6835460  90.6833280   7.7953420
  82.1231370  91.4257610   7.3808810  81.6222350  90.9259850   8.7192380
  77.1586430  91.7079110  18.6973440  77.1301860  92.1122060  17.8301870
  76.9951400  90.7789470  18.5345040  87.1557220  76.9980020   2.1413220
  86.8429880  77.0906850   3.0412290  87.9169690  77.5761050   2.0910650
  73.6739360  84.3639820   6.5990560  73.5536960  85.0901910   5.9871830
  73.3640250  83.5942730   6.1218470  89.1101250  92.4906210  19.9937610
  89.5860970  92.9689100  20.6726690  89.7308410  92.4223700  19.2683110
  71.3124730  87.5354960  12.4059200  71.3905150  87.6703730  11.4614920
  71.9266410  86.8270850  12.5987320  72.5572360  89.2355150   8.8165380
  72.1500440  89.3769740   7.9618980  73.4485370  88.9515310   8.6136590
  88.5134500  89.6819060  17.1537620  88.6397560  89.4430940  16.2354800
  88.5555880  88.8503600  17.6259700  82.3751240  93.3847060  15.7232430
  82.8895910  93.2955070  16.5254860  81.5320320  93.7306760  16.0160340
  84.3505640  93.6702400   5.1516430  84.1906780  93.3805340   6.0498260
  84.1852350  92.8942530   4.6161660  84.0531770  91.1789960   3.7114430
  83.3596930  91.1767250   3.0516710  84.7954630  90.7549280   3.2808600
  83.6181700  92.8052670   7.7862920  84.0738650  92.0242050   8.1001540
  83.9574220  93.5159490   8.3304100  88.3658510  81.7351520  18.1187360
  87.7502780  82.2431190  17.5902820  88.0454930  80.8349850  18.0613300
  71.3684250  88.5769130  14.9453660  71.5315290  88.1074490  14.1273030
  71.8336700  88.0692690  15.6102500  76.1403020  77.7074890   9.9814230
  75.6971170  78.4884430   9.6498750  76.6988010  78.0304780  10.6885170
  80.4272830  80.5743410  15.5849550  79.9652200  80.7826430  16.3969490
  80.0250940  79.7602760  15.2820220  85.4277340  81.7952360  16.7146210
  84.5770930  81.4958110  17.0355280  85.2679130  82.0394370  15.8030030
  82.5227050  83.2954110  18.8145000  82.8480460  82.4617860  18.4747230
  83.3107380  83.8182630  18.9623330  79.2561840  77.3285590   4.8620060
  78.6316020  77.3245460   5.5873370  79.1691960  76.4616550   4.4656030
  78.1778920  78.2522220  11.8403830  78.4751250  79.1585050  11.7595850
  78.7264480  77.7641000  11.2263400  75.9317240  82.8308460   7.7095480
  75.7058160  82.6145630   8.6142100  75.1509770  83.2636920   7.3641450
  83.1615000  82.8371830   6.3086130  82.5623890  83.5607630   6.1249750
  83.7094610  82.7748610   5.5262580  78.3716450  83.7294040  18.3755750
  78.2760050  82.7888770  18.2256150  79.2148430  83.9509110  17.9803820
  81.7679870  81.4735370   8.3389410  82.1609440  81.7907570   7.5258100
  82.1296720  80.5947250   8.4533930  73.5026990  80.1407710  16.5289530
  73.1090380  80.9882920  16.7362310  72.8145390  79.5034080  16.7198170
  80.0772040  80.2242680  19.5986270  79.3870360  80.0314880  20.2332360
  80.8204340  80.5077320  20.1310570  70.8044040  78.0636170  10.5619610
  70.5157090  78.6339030  11.2744590  71.5489800  77.5840620  10.9250840
  82.3535010  84.0641120  12.4340190  81.6216130  84.5727930  12.7830290
  81.9559350  83.2471100  12.1328970  78.7912400  80.7395320  10.8392680
  78.7948460  80.2985270   9.9897220  79.6863520  81.0612650  10.9464500
  74.6414780  80.6221810   9.7986890  74.3014830  81.0997040  10.5553940
  73.8792100  80.1686930   9.4387990  78.8532550  81.7407400   3.8299440
  78.9745370  81.6993880   4.7785260  78.4681060  82.6031550   3.6746170
  82.8160920  79.5174800  11.8463130  82.8333660  79.9683450  12.6904980
  82.5676500  78.6180440  12.0596570  77.8654050  84.0508540   3.2282740
  77.2970950  83.6026790   2.6018650  78.5743050  84.4101320   2.6947890
  86.2431670  76.9306980  17.6849510  86.5677440  76.1996640  18.2107490
  86.2788180  76.6120620  16.7830500  72.9423230  87.9520560  17.1049470
  72.5578020  87.3114230  17.7032430  73.2535420  88.6556680  17.6744200
  79.0920370  84.7997100  12.5858090  79.4590500  84.3255670  13.3319430
  78.9025430  85.6738670  12.9266430  71.9560860  79.5440790   8.7151560
  71.6707780  79.1796460   9.5530180  71.8939720  78.8121250   8.1014700
  76.8819740  83.8405740  14.9042300  76.5776810  84.7197720  15.1292660
  77.8366200  83.9005530  14.9399740  75.4101530  88.0466730   5.5009150
  74.6363790  87.5064350   5.3407870  76.1396160  87.5273340   5.1626910
  86.1689510  87.0432090  11.2935540  86.8888630  87.5387380  10.9031650
  85.9671330  86.3649980  10.6489410  81.6299450  78.4370050   5.4364930
  80.8164060  77.9383220   5.3610240  81.4361400  79.2768300   5.0201280
  81.5508310  87.1141150  17.1804540  81.4845620  86.1936820  16.9262130
  80.9213450  87.2116590  17.8949180  84.3447840  82.8089700   3.7327090
  85.2327460  83.1206930   3.5578430  84.3152930  81.9361950   3.3407670
  75.4538930  87.7147110   9.1387960  75.9717600  86.9115370   9.0844850
  75.0022950  87.6526250   9.9804790  80.3408430  88.9813390   4.4115260
  80.6824130  89.7255620   3.9158580  79.5121140  89.2944510   4.7740090
  72.9383470  84.6808480  16.0513660  72.5798410  85.3462330  16.6387000
  72.6438030  83.8492030  16.4226280  76.1396590  85.1392720  18.9353210
  75.8396730  85.2849900  18.0381030  76.9107830  84.5798010  18.8426600
  81.4825040  89.9361720  16.9308340  81.4969580  89.0042680  16.7127250
  80.7750140  90.0221480  17.5698110  86.6162110  84.1201540   3.2006950
  86.5325830  84.5515760   2.3503390  87.3356300  84.5799890   3.6333770
  87.6936250  86.5769060  16.2776920  86.9684440  87.1697840  16.0806310
  88.2211710  86.5692600  15.4790290  87.6449360  90.9743800   5.9289080
  87.0025520  90.3199420   6.2032800  87.2580020  91.3798890   5.1529750
  83.2235840  88.3029230   9.7760770  83.5759660  87.7057360   9.1162140
  82.3398170  87.9773460   9.9469020  79.3099120  89.0626920   7.1831180
  79.9970250  89.6096130   7.5638770  78.5231540  89.6067650   7.2180790
  71.4491520  84.6799740   2.6748260  72.3186370  84.9624540   2.9584180
  70.9581840  85.4935610   2.5597070  78.6126330  86.0672950   6.7956540
  79.0689110  86.8778200   7.0216730  78.2614540  85.7496090   7.6275030
  80.9158940  91.5779290  14.0248840  81.5601160  91.7838670  14.7022260
  81.2788380  90.8167690  13.5719690  74.5138110  76.4110600   7.2679060
  74.3852740  76.4028500   8.2163980  73.6900130  76.7493690   6.9170070
  82.1891020  89.5811640  12.7426290  82.8313250  88.8804800  12.8558460
  82.7140370  90.3610080  12.5623180  86.0346740  89.8660260   2.4665430
  85.8084320  89.1490700   3.0590070  85.6442940  89.6172700   1.6287180
  83.9628640  90.3806540  15.9462350  84.2984880  90.9673230  16.6240270
  83.0428980  90.2499250  16.1760140  71.5132040  78.1701720  16.7285760
  70.7990560  78.3698640  17.3338370  71.9327080  77.3941290  17.1000560
  85.6162990  87.7832200   4.1279590  85.3284690  88.2444890   4.9157470
  86.4115160  87.3229970   4.3963810  71.8004630  92.1581980  17.7152290
  71.9095750  91.2176720  17.5747680  71.1485190  92.4236730  17.0666020
  79.7917220  90.4297870  19.1150410  79.4714090  89.7107110  19.6596100
  79.1175580  91.1052940  19.1886470  77.8331390  91.2758320   4.0583560
  77.8241490  92.0088010   3.4428070  76.9129750  91.0289900   4.1510520
  73.4338030  86.4973210   4.8030320  72.8265980  87.2372110   4.8125620
  73.9087380  86.5872570   3.9768520  83.0070820  80.6624030  14.4787210
  83.3751640  79.8419240  14.8066780  82.1469020  80.7225920  14.8942860
  86.3732850  79.6180970   5.2874770  85.7446010  79.7226640   4.5733000
  85.8784770  79.8377750   6.0768650  80.8190990  91.3386560   2.7208750
  80.9202970  91.1350550   1.7910730  79.9192730  91.0844840   2.9256530
  78.3416880  81.8966920   6.7032650  77.6333030  82.3653260   7.1446260
  78.6261360  81.2388930   7.3377840  79.9672810  83.3163620  14.7025180
  80.4658060  83.7909440  15.3677030  80.1095760  82.3927140  14.9095210
  82.3732310  78.6217580   8.1428440  82.2500090  78.6403710   7.1937950
  83.3216870  78.6696520   8.2626840  76.5451900  80.2052000   4.0783360
  77.3942430  80.6422150   4.0123550  76.1783170  80.5172260   4.9055420
  87.1739670  79.5331580  15.5453570  86.6713270  80.2736980  15.8847380
  87.9896330  79.9215580  15.2290360  85.4661680  84.7764760   8.9914930
  84.5251820  84.7914990   9.1662620  85.7805750  83.9900720   9.4375230
  75.4443320  86.4584360   2.5518890  76.2106590  86.3465720   3.1144320
  75.5218010  85.7622330   1.8995660  74.1390080  83.8909430   3.2351780
  74.2193670  82.9436940   3.3469180  75.0309830  84.2216310   3.3412440
  87.4687260  91.9473610  10.6669190  87.5934680  92.7704780  11.1393000
  88.3352820  91.7364340  10.3193340  71.8250270  90.1078390   6.2127830
  70.8990050  90.3499530   6.2033240  72.2906700  90.9352650   6.0912580
  73.9463070  93.2250890  19.5271900  74.7475800  93.5462940  19.9407300
  73.4314890  92.8646470  20.2491810  82.7827700  89.3330760  19.4747310
  82.1765860  89.3562360  18.7343060  82.4781810  88.6013800  20.0114560
  84.2128070  93.0611050  18.0856720  85.1649820  92.9769070  18.0356960
  84.0656290  93.7252760  18.7590510  87.1037270  92.4405260   3.5848630
  86.8178780  92.0270400   2.7702810  86.9056820  93.3692970   3.4649150
  71.6660880  85.7124350  18.4707950  72.1699900  85.1331630  19.0424180
  70.9268300  85.9964580  19.0084320  78.7198820  87.1195340  18.0043470
  77.9544490  87.6880340  17.9198140  78.9014780  86.8271550  17.1111700
  81.8087230  87.4958570   2.6296230  81.2597330  87.9427870   3.2738970
  82.4306490  86.9907820   3.1533900  85.8622170  88.8500670  18.5618490
  86.6031640  89.1876430  18.0585950  85.0994850  89.0192730  18.0088260
  73.6983960  83.8553940  19.3658020  73.7389300  83.5567810  20.2743250
  74.5529460  84.2561550  19.2065540  77.4762350  86.4549490   4.5261530
  77.8978770  86.2889360   5.3692920  77.6013190  85.6449720   4.0316670
  75.6389770  82.4346040  17.3332510  75.1086230  81.9436990  16.7055850
  76.3077840  82.8630240  16.7990440  84.5367830  86.9015500  17.0973700
  84.9508850  87.0560580  17.9464120  83.6018830  87.0270720  17.2599480
  85.0090000  84.2411660  19.1012850  85.5910770  83.4863980  19.0133330
  85.1851770  84.7719100  18.3244330  76.1262070  79.4008410  17.4129800
  76.0318940  78.7829160  16.6880670  75.5459460  80.1274700  17.1859710
  78.8923510  77.9581650  14.4457190  78.4440810  77.9805910  13.6002740
  78.2588710  77.5600670  15.0427490  79.2983060  86.8535980  15.0669630
  79.7171170  87.6968710  14.8945870  78.3791690  86.9908020  14.8376410
  81.6346960  84.5852160  16.4507470  81.7543170  83.9893300  17.1902310
  82.4940960  84.6221850  16.0308770  83.9734860  85.1389350  15.0269980
  83.4470080  85.6631970  14.4235120  84.3166200  85.7716740  15.6579710
  78.4015730  81.1273510  17.7083290  78.9915420  80.8189360  18.3961110
  77.5835970  80.6553260  17.8643190  83.2209160  80.7439320  17.9416310
  82.5324680  80.0820860  17.8766300  83.9415180  80.2977590  18.3864770
  83.8509560  77.3390950   4.0006570  84.1311850  76.4958850   4.3565990
  83.0775290  77.5714060   4.5145320  78.3888980  78.5717960   2.4453770
  78.0410980  77.8941950   1.8656220  78.5901750  78.1107470   3.2597160
  74.1934180  88.9325760   2.2927370  74.6309050  89.4755430   2.9484950
  74.6781910  88.1072710   2.3023710  71.4079980  91.7214790   9.7447630
  71.7382990  90.8535850   9.5126270  71.8370980  91.9273310  10.5752590
  76.0041900  90.0523800   7.4049600  75.7037440  89.9288770   8.3053510
  75.8979390  89.1932390   6.9965330  71.8970190  92.5885380  12.4829260
  71.4601180  92.7686180  13.3153410  72.4647870  93.3460000  12.3410980
  87.5332370  92.0902380  16.7706570  86.9334360  92.1494940  16.0270490
  87.6626270  91.1507360  16.9003420  88.7733820  89.8320200   2.1076280
  87.9426780  89.8996850   2.5783510  88.9505650  90.7224320   1.8043140
  88.2290280  86.5767680   4.6110480  88.9909190  87.1464330   4.7170170
  88.2444650  86.0094880   5.3818790  71.7294620  85.1005610   8.8418140
  71.0743460  84.8317250   8.1977840  72.5672570  84.9910090   8.3920120
  89.2350250  87.4317780   9.4552410  89.6059080  86.6485100   9.0488380
  89.8752180  88.1206880   9.2769710  86.2184010  88.8154360  14.8682730
  85.4043850  89.2451520  15.1308520  86.6258210  89.4272770  14.2551780
  88.2809450  86.8702050   1.7683000  88.5558290  87.7780930   1.6402220
  88.0920190  86.8064580   2.7044990  84.6785060  79.8946900   3.0636630
  85.0969940  79.7077880   2.2233290  84.3721120  79.0425950   3.3739560
  88.1774790  84.8071040   6.7612430  87.8018390  84.0398970   6.3293720
  87.4477910  85.1893740   7.2487360  72.7670550  85.4858180  13.3821480
  73.1343590  85.3985580  14.2617500  72.1981370  84.7224730  13.2828340
  87.5674410  83.9542560  16.3951950  87.3360500  83.7255310  15.4949900
  87.8278960  84.8742110  16.3496840  72.3186550  82.3967270  17.2879900
  71.4242600  82.3634030  17.6273610  72.8584100  82.5954060  18.0531150
  86.0062480  79.1798990  19.1731650  86.8832660  79.1882390  19.5565650
  86.0183320  78.4429830  18.5624000  70.9432700  82.3104540   4.7843470
  70.0396780  82.5734740   4.6095130  71.4273320  82.5815710   4.0043430
  87.4525750  83.0328530  10.0619670  87.9763230  82.5391180   9.4309840
  88.0385170  83.1678890  10.8067240  87.6315470  83.1168400  13.5839220
  86.6818180  83.0831940  13.6984210  87.8128480  84.0268510  13.3488990
  73.4859910  81.3670080   2.6937850  74.1951610  80.9453300   2.2085130
  72.7699850  81.4345310   2.0621200  86.9425720  82.2901880   6.0012080
  87.4384840  82.0572750   6.7860960  86.7441790  81.4513720   5.5849720
  72.8226260  76.6715600  11.6363120  73.4702450  76.1212980  11.1958280
  73.2428100  76.9258750  12.4578930  88.3712880  80.9262830   8.5349760
  88.2612160  80.7718870   9.4732030  89.1320470  80.3983770   8.2925170
  86.7178600  76.8656960  14.9932760  87.3550820  77.4791100  15.3591950
  86.8653490  76.9017620  14.0481990  89.2603150  78.7570750   1.7755900
  90.1852460  78.6251930   1.5674190  89.2378940  78.8363570   2.7292350
  89.3341640  79.5281410   4.4012610  88.5393140  79.4626530   4.9305520
  89.5384920  80.4632050   4.3897960  86.2760060  93.5672960   8.3951000
  86.8719130  93.2457530   7.7185420  86.5338210  93.0944780   9.1864270
  72.5758260  76.8271270  14.3788440  72.2273080  77.2835090  15.1446620
  72.2445960  75.9328400  14.4610870  74.1822630  89.9990870  18.5441630
  74.1392260  89.6283780  19.4256090  74.3133640  90.9368440  18.6843450
  77.8828660  91.5550460  14.1451350  77.6420020  91.8225020  13.2581870
  78.8231300  91.7256190  14.2002210  80.0883080  78.0183150  17.9007860
  80.0271970  78.6104980  18.6503270  81.0283460  77.9109110  17.7558120
  82.7257640  77.6753210  17.5400150  83.3398050  77.9932500  16.8781230
  83.2707200  77.1901800  18.1596010  73.2478900  76.3547470  17.6539210
  73.7961890  76.1735520  16.8905320  73.3134210  75.5641580  18.1895520
  74.0210660  92.9453120  15.6639410  73.4270980  92.8137820  16.4029450
  74.0134500  92.1091260  15.1981510  83.4665680  76.2385350  13.8669440
  82.5925520  76.5720460  13.6642370  83.3576430  75.7658530  14.6921310
  84.3737660  78.4456220  15.2511160  84.0451020  77.6307980  14.8712890
  85.3219960  78.4026030  15.1276850  73.6522890  90.3111500  14.6147450
  72.9256950  89.6916790  14.5473400  73.7132040  90.7052110  13.7445530
  77.2567990  92.5256500  11.3996860  77.7733010  91.9143860  10.8745120
  77.9065370  93.0285280  11.8907870  79.9963490  93.4164990  12.2265840
  80.2841300  93.1619290  11.3498850  80.5086710  92.8642350  12.8171410
  81.2140500  77.1555190  12.8062350  80.4312290  77.6300690  13.0859110
  80.9203430  76.2510020  12.6975530  85.7661570  77.8578290  10.8511440
  86.2069660  77.8023390  10.0033040  85.4969160  78.7736300  10.9221620
  87.6300140  77.4893530   8.8620260  87.5688540  76.5454750   8.7151280
  88.4092170  77.5973620   9.4073720  72.5580910  77.4602670   5.3276070
  73.3160270  77.5731550   4.7540100  72.0958080  78.2971870   5.2819500
  79.0994720  79.5741940   8.3178380  78.2869230  79.1998830   7.9774260
  79.6036360  78.8187020   8.6199570  83.6019700  76.2384390   9.5561450
  84.2049070  76.8104600  10.0309970  82.8612690  76.8023830   9.3335350
  86.7454300  76.6405950   4.8301730  86.9404930  77.5389400   5.0969160
  85.9584170  76.4093030   5.3234680  73.5415590  92.3219120   5.2694350
  73.0163210  92.7027150   4.5656310  73.4660170  92.9469890   5.9904060
  74.9306060  77.9866720   3.8678040  75.4598820  77.1996520   3.7385990
  75.5634380  78.6657910   4.1013570  77.1243900  77.7241860   6.9223430
  76.4946640  77.0229170   7.0893560  76.5849040  78.4845990   6.7056590
  77.2499460  77.0025840  19.3575920  76.9683730  77.5059440  18.5936740
  77.6319160  76.2047590  18.9918050  75.3023350  90.3866230   4.1489930
  74.6732230  90.8551330   4.6975760  75.4171180  89.5415450   4.5836120
  83.8514920  76.4179420  19.9356390  83.7380370  76.7374030  20.8307910
  84.6684660  76.8191930  19.6393670  82.7573070  65.6628400  65.3965090
  82.6767120  64.7483010  65.1256800  82.3437490  66.1595470  64.6904800
  80.8891110  67.4407420  67.2774360  80.1133210  66.9607860  67.5672930
  81.5404040  66.7613070  67.1030520  74.9056940  67.7527230  68.1550120
  74.0741820  67.4975940  68.5546630  75.5137920  67.8238000  68.8908040
  84.9098540  71.8467610  66.0573490  84.4480070  71.0754850  66.3860660
  85.7224090  71.8733680  66.5625940  74.8858200  71.7867320  68.3508140
  75.1886240  70.8965060  68.1718360  75.6301790  72.3437540  68.1230390
  73.3148890  62.7129120  61.9392510  72.4265590  63.0545090  61.8372390
  73.5990080  62.5129440  61.0473340  71.2781900  65.3134770  67.8232210
  71.8498010  64.5456970  67.8235850  71.2783440  65.6123530  66.9138820
  81.1361850  74.1325620  65.6777480  80.5173290  74.5883120  65.1071920
  81.9913630  74.2877080  65.2767180  80.3300100  70.1164610  67.2844520
  80.2608380  69.1754550  67.1233650  81.0919960  70.2066020  67.8567090
  72.5206770  60.7219130  69.6101140  72.3409610  59.8244880  69.8903900
  72.1186850  61.2691000  70.2848090  81.3605270  62.9234990  67.5113450
  81.7370090  62.0506870  67.3987120  81.2624780  63.2593690  66.6203890
  75.4910280  61.2960620  62.9730890  75.5977030  62.1964350  63.2799650
  74.5802640  61.2478590  62.6825540  85.1429390  60.4185430  64.4441790
  85.9639010  59.9282000  64.4867270  85.1763470  61.0083090  65.1973630
  73.1393440  63.2179630  68.2183480  73.8203550  63.4818000  68.8370880
  72.8241490  62.3780500  68.5521490  77.3318010  64.2646990  67.3056070
  77.8396230  64.7627960  67.9461090  77.8631250  63.4882190  67.1295430
  89.4328940  62.4352180  71.0085420  88.7281110  62.8233890  70.4900530
  89.6986860  63.1302470  71.6106350  75.6154110  58.9045550  71.5719490
  75.6172550  59.4217940  70.7665390  74.7858420  58.4275730  71.5489420
  82.0025200  69.0164860  63.0709390  81.3842470  69.4814310  62.5072110
  82.5148450  69.7092340  63.4878900  76.8656960  68.5440730  69.7492990
  76.5326340  69.1709650  70.3914060  77.0423640  69.0702610  68.9694660
  85.3790870  62.3585810  67.2169330  84.6746440  62.6470700  67.7972440
  85.7403030  63.1685920  66.8568890  75.2969440  60.6155510  69.5789940
  75.6386250  61.4597560  69.2843810  74.3585250  60.7639250  69.6955280
  76.0776060  70.5121530  71.5642170  76.6950060  71.1872610  71.2826620
  75.2169180  70.9209510  71.4729670  86.9953650  71.9760940  69.4796810
  86.3117170  72.6460050  69.4713480  87.5347940  72.1741590  68.7141670
  88.4477790  61.8040600  67.6078540  87.5002700  61.8379580  67.7393970
  88.7727780  62.6179550  67.9927900  78.9797330  58.1037780  65.9034530
  79.2872310  57.5484670  65.1870030  78.0498030  58.2382240  65.7207520
  84.5312390  73.8205070  68.1941990  84.5439550  73.4167360  67.3264250
  83.9787610  74.5952360  68.0903420  85.8257810  70.5421290  63.2832160
  85.7154140  69.5995620  63.4081580  85.8226060  70.9036930  64.1694920
  83.9297830  68.7234910  69.5224600  84.3466620  68.5095020  68.6878060
  84.6537650  68.9807700  70.0933220  81.3678090  66.1686610  62.6394650
  80.4407370  66.1023990  62.8683120  81.5202910  67.1066740  62.5249890
  81.3547170  62.4403610  59.6361810  80.4150840  62.6017570  59.7214270
  81.6730430  63.1589290  59.0897800  87.8759930  67.1222130  69.6140840
  87.0478560  67.1915220  69.1390970  88.4710410  67.7076440  69.1456670
  85.3975380  67.7306910  63.1429900  84.7787800  67.3926460  62.4956200
  85.3799830  67.0866670  63.8509090  84.8401940  63.9091450  70.5595710
  84.4273120  64.7345160  70.8135700  84.1077890  63.3236490  70.3672070
  76.9734730  66.6951350  65.4214380  76.5691730  65.9828600  64.9260280
  77.0597850  66.3504590  66.3102420  77.4416430  70.3818910  67.5853590
  77.1444720  69.7764380  66.9061370  78.3916250  70.4196220  67.4742950
  75.6863350  63.4694560  69.2013420  76.2377940  63.5789900  68.4266670
  76.2006860  63.8432160  69.9168650  85.5302040  73.9550780  71.2476690
  85.0532600  74.7622970  71.0549300  84.8463830  73.3029110  71.4002900
  76.5334860  70.1200600  74.2361390  75.6363390  70.3440570  74.4834790
  76.5587730  70.2435540  73.2872790  83.5740080  66.9693720  60.1502650
  84.0133360  66.1316150  60.0040470  84.2868500  67.6023120  60.2366790
  75.3606080  66.9913920  72.8118760  75.2213850  67.8636720  73.1806160
  74.4787440  66.6486730  72.6666700  81.6835460  71.9089790  64.1183890
  82.1231370  72.6514120  63.7039280  81.6222350  72.1516360  65.0422850
  77.1586430  72.9335620  75.0203910  77.1301860  73.3378570  74.1532340
  76.9951400  72.0045980  74.8575510  87.1557220  58.2236530  58.4643690
  86.8429880  58.3163360  59.3642760  87.9169690  58.8017560  58.4141120
  73.6739360  65.5896330  62.9221030  73.5536960  66.3158420  62.3102300
  73.3640250  64.8199240  62.4448940  71.3124730  68.7611470  68.7289670
  71.3905150  68.8960240  67.7845390  71.9266410  68.0527360  68.9217790
  72.5572360  70.4611660  65.1395850  72.1500440  70.6026250  64.2849450
  73.4485370  70.1771820  64.9367060  88.5134500  70.9075570  73.4768090
  88.6397560  70.6687450  72.5585270  88.5555880  70.0760110  73.9490170
  82.3751240  74.6103570  72.0462900  82.8895910  74.5211580  72.8485330
  81.5320320  74.9563270  72.3390810  84.3505640  74.8958910  61.4746900
  84.1906780  74.6061850  62.3728730  84.1852350  74.1199040  60.9392130
  76.8294020  74.6757440  63.2518520  76.6536500  73.7592980  63.0386320
  75.9749760  75.0344730  63.4916320  84.0531770  72.4046470  60.0344900
  83.3596930  72.4023760  59.3747180  84.7954630  71.9805790  59.6039070
  83.6181700  74.0309180  64.1093390  84.0738650  73.2498560  64.4232010
  83.9574220  74.7416000  64.6534570  88.3658510  62.9608030  74.4417830
  87.7502780  63.4687700  73.9133290  88.0454930  62.0606360  74.3843770
  71.3684250  69.8025640  71.2684130  71.5315290  69.3331000  70.4503500
  71.8336700  69.2949200  71.9332970  76.1403020  58.9331400  66.3044700
  75.6971170  59.7140940  65.9729220  76.6988010  59.2561290  67.0115640
  80.4272830  61.7999920  71.9080020  79.9652200  62.0082940  72.7199960
  80.0250940  60.9859270  71.6050690  85.4277340  63.0208870  73.0376680
  84.5770930  62.7214620  73.3585750  85.2679130  63.2650880  72.1260500
  82.5227050  64.5210620  75.1375470  82.8480460  63.6874370  74.7977700
  83.3107380  65.0439140  75.2853800  79.2561840  58.5542100  61.1850530
  78.6316020  58.5501970  61.9103840  79.1691960  57.6873060  60.7886500
  78.1778920  59.4778730  68.1634300  78.4751250  60.3841560  68.0826320
  78.7264480  58.9897510  67.5493870  75.9317240  64.0564970  64.0325950
  75.7058160  63.8402140  64.9372570  75.1509770  64.4893430  63.6871920
  83.1615000  64.0628340  62.6316600  82.5623890  64.7864140  62.4480220
  83.7094610  64.0005120  61.8493050  78.3716450  64.9550550  74.6986220
  78.2760050  64.0145280  74.5486620  79.2148430  65.1765620  74.3034290
  81.7679870  62.6991880  64.6619880  82.1609440  63.0164080  63.8488570
  82.1296720  61.8203760  64.7764400  73.5026990  61.3664220  72.8520000
  73.1090380  62.2139430  73.0592780  72.8145390  60.7290590  73.0428640
  70.8044040  59.2892680  66.8850080  70.5157090  59.8595540  67.5975060
  71.5489800  58.8097130  67.2481310  82.3535010  65.2897630  68.7570660
  81.6216130  65.7984440  69.1060760  81.9559350  64.4727610  68.4559440
  78.7912400  61.9651830  67.1623150  78.7948460  61.5241780  66.3127690
  79.6863520  62.2869160  67.2694970  74.6414780  61.8478320  66.1217360
  74.3014830  62.3253550  66.8784410  73.8792100  61.3943440  65.7618460
  78.8532550  62.9663910  60.1529910  78.9745370  62.9250390  61.1015730
  78.4681060  63.8288060  59.9976640  82.8160920  60.7431310  68.1693600
  82.8333660  61.1939960  69.0135450  82.5676500  59.8436950  68.3827040
  77.8654050  65.2765050  59.5513210  77.2970950  64.8283300  58.9249120
  78.5743050  65.6357830  59.0178360  86.2431670  58.1563490  74.0079980
  86.5677440  57.4253150  74.5337960  86.2788180  57.8377130  73.1060970
  72.9423230  69.1777070  73.4279940  72.5578020  68.5370740  74.0262900
  73.2535420  69.8813190  73.9974670  79.0920370  66.0253610  68.9088560
  79.4590500  65.5512180  69.6549900  78.9025430  66.8995180  69.2496900
  71.9560860  60.7697300  65.0382030  71.6707780  60.4052970  65.8760650
  71.8939720  60.0377760  64.4245170  76.8819740  65.0662250  71.2272770
  76.5776810  65.9454230  71.4523130  77.8366200  65.1262040  71.2630210
  75.4101530  69.2723240  61.8239620  74.6363790  68.7320860  61.6638340
  76.1396160  68.7529850  61.4857380  86.1689510  68.2688600  67.6166010
  86.8888630  68.7643890  67.2262120  85.9671330  67.5906490  66.9719880
  81.6299450  59.6626560  61.7595400  80.8164060  59.1639730  61.6840710
  81.4361400  60.5024810  61.3431750  81.5508310  68.3397660  73.5035010
  81.4845620  67.4193330  73.2492600  80.9213450  68.4373100  74.2179650
  84.3447840  64.0346210  60.0557560  85.2327460  64.3463440  59.8808900
  84.3152930  63.1618460  59.6638140  75.4538930  68.9403620  65.4618430
  75.9717600  68.1371880  65.4075320  75.0022950  68.8782760  66.3035260
  80.3408430  70.2069900  60.7345730  80.6824130  70.9512130  60.2389050
  79.5121140  70.5201020  61.0970560  72.9383470  65.9064990  72.3744130
  72.5798410  66.5718840  72.9617470  72.6438030  65.0748540  72.7456750
  76.1396590  66.3649230  75.2583680  75.8396730  66.5106410  74.3611500
  76.9107830  65.8054520  75.1657070  81.4825040  71.1618230  73.2538810
  81.4969580  70.2299190  73.0357720  80.7750140  71.2477990  73.8928580
  86.6162110  65.3458050  59.5237420  86.5325830  65.7772270  58.6733860
  87.3356300  65.8056400  59.9564240  87.6936250  67.8025570  72.6007390
  86.9684440  68.3954350  72.4036780  88.2211710  67.7949110  71.8020760
  87.6449360  72.2000310  62.2519550  87.0025520  71.5455930  62.5263270
  87.2580020  72.6055400  61.4760220  83.2235840  69.5285740  66.0991240
  83.5759660  68.9313870  65.4392610  82.3398170  69.2029970  66.2699490
  79.3099120  70.2883430  63.5061650  79.9970250  70.8352640  63.8869240
  78.5231540  70.8324160  63.5411260  78.6126330  67.2929460  63.1187010
  79.0689110  68.1034710  63.3447200  78.2614540  66.9752600  63.9505500
  80.9158940  72.8035800  70.3479310  81.5601160  73.0095180  71.0252730
  81.2788380  72.0424200  69.8950160  74.5138110  57.6367110  63.5909530
  74.3852740  57.6285010  64.5394450  73.6900130  57.9750200  63.2400540
  82.1891020  70.8068150  69.0656760  82.8313250  70.1061310  69.1788930
  82.7140370  71.5866590  68.8853650  86.0346740  71.0916770  58.7895900
  85.8084320  70.3747210  59.3820540  85.6442940  70.8429210  57.9517650
  83.9628640  71.6063050  72.2692820  84.2984880  72.1929740  72.9470740
  83.0428980  71.4755760  72.4990610  71.8162770  75.1183630  59.5640360
  72.1760410  75.7172970  58.9097630  71.6755110  75.6643520  60.3375390
  71.5132040  59.3958230  73.0516230  70.7990560  59.5955150  73.6568840
  71.9327080  58.6197800  73.4231030  85.6162990  69.0088710  60.4510060
  85.3284690  69.4701400  61.2387940  86.4115160  68.5486480  60.7194280
  71.8004630  73.3838490  74.0382760  71.9095750  72.4433230  73.8978150
  71.1485190  73.6493240  73.3896490  79.7917220  71.6554380  75.4380880
  79.4714090  70.9363620  75.9826570  79.1175580  72.3309450  75.5116940
  77.8331390  72.5014830  60.3814030  77.8241490  73.2344520  59.7658540
  76.9129750  72.2546410  60.4740990  83.0070820  61.8880540  70.8017680
  83.3751640  61.0675750  71.1297250  82.1469020  61.9482430  71.2173330
  86.3732850  60.8437480  61.6105240  85.7446010  60.9483150  60.8963470
  85.8784770  61.0634260  62.3999120  80.8190990  72.5643070  59.0439220
  80.9202970  72.3607060  58.1141200  79.9192730  72.3101350  59.2487000
  78.3416880  63.1223430  63.0263120  77.6333030  63.5909770  63.4676730
  78.6261360  62.4645440  63.6608310  79.9672810  64.5420130  71.0255650
  80.4658060  65.0165950  71.6907500  80.1095760  63.6183650  71.2325680
  82.3732310  59.8474090  64.4658910  82.2500090  59.8660220  63.5168420
  83.3216870  59.8953030  64.5857310  79.4609100  75.0829390  63.7386890
  79.7150600  75.0450780  62.8166260  78.5121580  74.9562720  63.7315140
  76.5451900  61.4308510  60.4013830  77.3942430  61.8678660  60.3354020
  76.1783170  61.7428770  61.2285890  87.1739670  60.7588090  71.8684040
  86.6713270  61.4993490  72.2077850  87.9896330  61.1472090  71.5520830
  85.4661680  66.0021270  65.3145400  84.5251820  66.0171500  65.4893090
  85.7805750  65.2157230  65.7605700  75.4443320  67.6840870  58.8749360
  76.2106590  67.5722230  59.4374790  75.5218010  66.9878840  58.2226130
  87.4687260  73.1730120  66.9899660  87.5934680  73.9961290  67.4623470
  88.3352820  72.9620850  66.6423810  74.9404790  75.2661330  66.6616790
  75.6767270  74.7176790  66.9325360  75.3245710  76.1317340  66.5222780
  71.8250270  71.3334900  62.5358300  70.8990050  71.5756040  62.5263710
  72.2906700  72.1609160  62.4143050  78.0507100  74.4391640  58.4842360
  78.8435710  74.7280470  58.0324150  77.5311450  74.0083810  57.8054840
  84.2128070  74.2867560  74.4087190  85.1649820  74.2025580  74.3587430
  84.0656290  74.9509270  75.0820980  87.1037270  73.6661770  59.9079100
  86.8178780  73.2526910  59.0933280  86.9056820  74.5949480  59.7879620
  71.6660880  66.9380860  74.7938420  72.1699900  66.3588140  75.3654650
  70.9268300  67.2221090  75.3314790  78.5684500  69.6595050  58.3484710
  78.4635140  69.0447400  59.0746090  78.4008720  69.1360940  57.5647720
  78.7198820  68.3451850  74.3273940  77.9544490  68.9136850  74.2428610
  78.9014780  68.0528060  73.4342170  81.8087230  68.7215080  58.9526700
  81.2597330  69.1684380  59.5969440  82.4306490  68.2164330  59.4764370
  85.8622170  70.0757180  74.8848960  86.6031640  70.4132940  74.3816420
  85.0994850  70.2449240  74.3318730  77.4762350  67.6806000  60.8492000
  77.8978770  67.5145870  61.6923390  77.6013190  66.8706230  60.3547140
  75.6389770  63.6602550  73.6562980  75.1086230  63.1693500  73.0286320
  76.3077840  64.0886750  73.1220910  79.9889990  66.7043610  58.0969100
  80.5095650  65.9892630  57.7310250  80.6358390  67.3429480  58.3969610
  84.5367830  68.1272010  73.4204170  84.9508850  68.2817090  74.2694590
  83.6018830  68.2527230  73.5829950  85.0090000  65.4668170  75.4243320
  85.5910770  64.7120490  75.3363800  85.1851770  65.9975610  74.6474800
  76.1262070  60.6264920  73.7360270  76.0318940  60.0085670  73.0111140
  75.5459460  61.3531210  73.5090180  78.8923510  59.1838160  70.7687660
  78.4440810  59.2062420  69.9233210  78.2588710  58.7857180  71.3657960
  79.2983060  68.0792490  71.3900100  79.7171170  68.9225220  71.2176340
  78.3791690  68.2164530  71.1606880  81.6346960  65.8108670  72.7737940
  81.7543170  65.2149810  73.5132780  82.4940960  65.8478360  72.3539240
  83.9734860  66.3645860  71.3500450  83.4470080  66.8888480  70.7465590
  84.3166200  66.9973250  71.9810180  76.3721250  63.7539230  57.7950160
  76.1710310  62.8906590  58.1563500  76.2013300  63.6672590  56.8571760
  77.1490480  74.3845500  72.5057830  76.6111570  75.1091560  72.1866530
  77.4024440  73.9075840  71.7155170  78.4015730  62.3530020  74.0313760
  78.9915420  62.0445870  74.7191580  77.5835970  61.8809770  74.1873660
  83.2209160  61.9695830  74.2646780  82.5324680  61.3077370  74.1996770
  83.9415180  61.5234100  74.7095240  83.8509560  58.5647460  60.3237040
  84.1311850  57.7215360  60.6796460  83.0775290  58.7970570  60.8375790
  75.1704050  60.8539850  57.7828040  75.4729950  60.8607280  56.8747190
  75.9098640  60.5037710  58.2795700  80.0052690  75.6196710  72.7644480
  79.9311390  76.5231850  73.0716850  79.1031530  75.3008610  72.7366550
  78.3888980  59.7974470  58.7684240  78.0410980  59.1198460  58.1886690
  78.5901750  59.3363980  59.5827630  80.5538020  74.7855220  60.3870840
  81.4488810  75.1240190  60.4089600  80.5855650  74.0634630  59.7595120
  71.4079980  72.9471300  66.0678100  71.7382990  72.0792360  65.8356740
  71.8370980  73.1529820  66.8983060  76.0041900  71.2780310  63.7280070
  75.7037440  71.1545280  64.6283980  75.8979390  70.4188900  63.3195800
  71.8970190  73.8141890  68.8059730  71.4601180  73.9942690  69.6383880
  72.4647870  74.5716510  68.6641450  87.5332370  73.3158890  73.0937040
  86.9334360  73.3751450  72.3500960  87.6626270  72.3763870  73.2233890
  88.7733820  71.0576710  58.4306750  87.9426780  71.1253360  58.9013980
  88.9505650  71.9480830  58.1273610  88.2290280  67.8024190  60.9340950
  88.9909190  68.3720840  61.0400640  88.2444650  67.2351390  61.7049260
  71.7294620  66.3262120  65.1648610  71.0743460  66.0573760  64.5208310
  72.5672570  66.2166600  64.7150590  89.2350250  68.6574290  65.7782880
  89.6059080  67.8741610  65.3718850  89.8752180  69.3463390  65.6000180
  86.2184010  70.0410870  71.1913200  85.4043850  70.4708030  71.4538990
  86.6258210  70.6529280  70.5782250  88.2809450  68.0958560  58.0913470
  88.5558290  69.0037440  57.9632690  88.0920190  68.0321090  59.0275460
  84.6785060  61.1203410  59.3867100  85.0969940  60.9334390  58.5463760
  84.3721120  60.2682460  59.6970030  88.1774790  66.0327550  63.0842900
  87.8018390  65.2655480  62.6524190  87.4477910  66.4150250  63.5717830
  72.7670550  66.7114690  69.7051950  73.1343590  66.6242090  70.5847970
  72.1981370  65.9481240  69.6058810  87.5674410  65.1799070  72.7182420
  87.3360500  64.9511820  71.8180370  87.8278960  66.0998620  72.6727310
  72.3186550  63.6223780  73.6110370  71.4242600  63.5890540  73.9504080
  72.8584100  63.8210570  74.3761620  86.0062480  60.4055500  75.4962120
  86.8832660  60.4138900  75.8796120  86.0183320  59.6686340  74.8854470
  87.4525750  64.2585040  66.3850140  87.9763230  63.7647690  65.7540310
  88.0385170  64.3935400  67.1297710  87.6315470  64.3424910  69.9069690
  86.6818180  64.3088450  70.0214680  87.8128480  65.2525020  69.6719460
  73.1334070  58.6465920  58.0570970  73.8562200  59.1874860  58.3752190
  73.4058590  58.3729340  57.1812510  86.9425720  63.5158390  62.3242550
  87.4384840  63.2829260  63.1091430  86.7441790  62.6770230  61.9080190
  72.8226260  57.8972110  67.9593590  73.4702450  57.3469490  67.5188750
  73.2428100  58.1515260  68.7809400  88.3712880  62.1519340  64.8580230
  88.2612160  61.9975380  65.7962500  89.1320470  61.6240280  64.6155640
  86.7178600  58.0913470  71.3163230  87.3550820  58.7047610  71.6822420
  86.8653490  58.1274130  70.3712460  89.2603150  59.9827260  58.0986370
  90.1852460  59.8508440  57.8904660  89.2378940  60.0620080  59.0522820
  89.3341640  60.7537920  60.7243080  88.5393140  60.6883040  61.2535990
  89.5384920  61.6888560  60.7128430  86.2760060  74.7929470  64.7181470
  86.8719130  74.4714040  64.0415890  86.5338210  74.3201290  65.5094740
  72.5758260  58.0527780  70.7018910  72.2273080  58.5091600  71.4677090
  72.2445960  57.1584910  70.7841340  74.1822630  71.2247380  74.8672100
  74.1392260  70.8540290  75.7486560  74.3133640  72.1624950  75.0073920
  77.8828660  72.7806970  70.4681820  77.6420020  73.0481530  69.5812340
  78.8231300  72.9512700  70.5232680  80.0883080  59.2439660  74.2238330
  80.0271970  59.8361490  74.9733740  81.0283460  59.1365620  74.0788590
  82.7257640  58.9009720  73.8630620  83.3398050  59.2189010  73.2011700
  83.2707200  58.4158310  74.4826480  89.1432820  74.8001350  71.2692460
  88.6491100  75.1970220  70.5519590  88.5346110  74.1750560  71.6629740
  73.2478900  57.5803980  73.9769680  73.7961890  57.3992030  73.2135790
  73.3134210  56.7898090  74.5125990  74.0210660  74.1709630  71.9869880
  73.4270980  74.0394330  72.7259920  74.0134500  73.3347770  71.5211980
  83.4665680  57.4641860  70.1899910  82.5925520  57.7976970  69.9872840
  83.3576430  56.9915040  71.0151780  84.3737660  59.6712730  71.5741630
  84.0451020  58.8564490  71.1943360  85.3219960  59.6282540  71.4507320
  86.8272270  75.4424770  68.5479200  86.3675240  76.1940580  68.1737220
  86.1984730  74.7231240  68.4894000  73.6522890  71.5368010  70.9377920
  72.9256950  70.9173300  70.8703870  73.7132040  71.9308620  70.0676000
  77.2567990  73.7513010  67.7227330  77.7733010  73.1400370  67.1975590
  77.9065370  74.2541790  68.2138340  79.9963490  74.6421500  68.5496310
  80.2841300  74.3875800  67.6729320  80.5086710  74.0898860  69.1401880
  81.2140500  58.3811700  69.1292820  80.4312290  58.8557200  69.4089580
  80.9203430  57.4766530  69.0206000  85.7661570  59.0834800  67.1741910
  86.2069660  59.0279900  66.3263510  85.4969160  59.9992810  67.2452090
  87.6300140  58.7150040  65.1850730  87.5688540  57.7711260  65.0381750
  88.4092170  58.8230130  65.7304190  71.9352890  74.8542400  64.1474680
  71.7674930  74.2213080  64.8456570  71.0687400  75.0601800  63.7968870
  72.5580910  58.6859180  61.6506540  73.3160270  58.7988060  61.0770570
  72.0958080  59.5228380  61.6049970  79.0994720  60.7998450  64.6408850
  78.2869230  60.4255340  64.3004730  79.6036360  60.0443530  64.9430040
  83.6019700  57.4640900  65.8791920  84.2049070  58.0361110  66.3540440
  82.8612690  58.0280340  65.6565820  86.7454300  57.8662460  61.1532200
  86.9404930  58.7645910  61.4199630  85.9584170  57.6349540  61.6465150
  73.5415590  73.5475630  61.5924820  73.0163210  73.9283660  60.8886780
  73.4660170  74.1726400  62.3134530  74.9306060  59.2123230  60.1908510
  75.4598820  58.4253030  60.0616460  75.5634380  59.8914420  60.4244040
  77.1243900  58.9498370  63.2453900  76.4946640  58.2485680  63.4124030
  76.5849040  59.7102500  63.0287060  80.0635850  75.5637600  75.9164510
  80.9903160  75.3281870  75.9600470  80.0486280  76.3909600  75.4350540
  88.2980910  75.1063170  62.9138760  88.4733100  74.4200910  62.2699680
  87.6002480  75.6310220  62.5215430  77.2499460  58.2282350  75.6806390
  76.9683730  58.7315950  74.9167210  77.6319160  57.4304100  75.3148520
  76.1408560  75.4958010  60.4674070  76.8727380  75.2117290  59.9197960
  76.4002230  75.2571290  61.3573450  75.3023350  71.6122740  60.4720400
  74.6732230  72.0807840  61.0206230  75.4171180  70.7671960  60.9066590
  82.7573070  65.6628400  46.6221600  82.6767120  64.7483010  46.3513310
  82.3437490  66.1595470  45.9161310  80.8891110  67.4407420  48.5030870
  80.1133210  66.9607860  48.7929440  81.5404040  66.7613070  48.3287030
  84.9098540  71.8467610  47.2830000  84.4480070  71.0754850  47.6117170
  85.7224090  71.8733680  47.7882450  73.3148890  62.7129120  43.1649020
  72.4265590  63.0545090  43.0628900  73.5990080  62.5129440  42.2729850
  81.1361850  74.1325620  46.9033990  80.5173290  74.5883120  46.3328430
  81.9913630  74.2877080  46.5023690  80.3300100  70.1164610  48.5101030
  80.2608380  69.1754550  48.3490160  81.0919960  70.2066020  49.0823600
  81.3605270  62.9234990  48.7369960  81.7370090  62.0506870  48.6243630
  81.2624780  63.2593690  47.8460400  75.4910280  61.2960620  44.1987400
  75.5977030  62.1964350  44.5056160  74.5802640  61.2478590  43.9082050
  85.1429390  60.4185430  45.6698300  85.9639010  59.9282000  45.7123780
  85.1763470  61.0083090  46.4230140  89.4328940  62.4352180  52.2341930
  88.7281110  62.8233890  51.7157040  89.6986860  63.1302470  52.8362860
  75.6154110  58.9045550  52.7976000  75.6172550  59.4217940  51.9921900
  74.7858420  58.4275730  52.7745930  82.0025200  69.0164860  44.2965900
  81.3842470  69.4814310  43.7328620  82.5148450  69.7092340  44.7135410
  76.8656960  68.5440730  50.9749500  76.5326340  69.1709650  51.6170570
  77.0423640  69.0702610  50.1951170  85.3790870  62.3585810  48.4425840
  84.6746440  62.6470700  49.0228950  85.7403030  63.1685920  48.0825400
  76.0776060  70.5121530  52.7898680  76.6950060  71.1872610  52.5083130
  75.2169180  70.9209510  52.6986180  71.3708400  69.7021390  41.6705530
  70.9936380  70.1908490  40.9390430  71.6281470  70.3746670  42.3012060
  86.9953650  71.9760940  50.7053320  86.3117170  72.6460050  50.6969990
  87.5347940  72.1741590  49.9398180  88.4477790  61.8040600  48.8335050
  87.5002700  61.8379580  48.9650480  88.7727780  62.6179550  49.2184410
  78.9797330  58.1037780  47.1291040  79.2872310  57.5484670  46.4126540
  78.0498030  58.2382240  46.9464030  84.5312390  73.8205070  49.4198500
  84.5439550  73.4167360  48.5520760  83.9787610  74.5952360  49.3159930
  85.8257810  70.5421290  44.5088670  85.7154140  69.5995620  44.6338090
  85.8226060  70.9036930  45.3951430  83.9297830  68.7234910  50.7481110
  84.3466620  68.5095020  49.9134570  84.6537650  68.9807700  51.3189730
  81.3678090  66.1686610  43.8651160  80.4407370  66.1023990  44.0939630
  81.5202910  67.1066740  43.7506400  81.3547170  62.4403610  40.8618320
  80.4150840  62.6017570  40.9470780  81.6730430  63.1589290  40.3154310
  87.8759930  67.1222130  50.8397350  87.0478560  67.1915220  50.3647480
  88.4710410  67.7076440  50.3713180  85.3975380  67.7306910  44.3686410
  84.7787800  67.3926460  43.7212710  85.3799830  67.0866670  45.0765600
  84.8401940  63.9091450  51.7852220  84.4273120  64.7345160  52.0392210
  84.1077890  63.3236490  51.5928580  77.4416430  70.3818910  48.8110100
  77.1444720  69.7764380  48.1317880  78.3916250  70.4196220  48.6999460
  85.5302040  73.9550780  52.4733200  85.0532600  74.7622970  52.2805810
  84.8463830  73.3029110  52.6259410  76.5334860  70.1200600  55.4617900
  75.6363390  70.3440570  55.7091300  76.5587730  70.2435540  54.5129300
  83.5740080  66.9693720  41.3759160  84.0133360  66.1316150  41.2296980
  84.2868500  67.6023120  41.4623300  75.3606080  66.9913920  54.0375270
  75.2213850  67.8636720  54.4062670  74.4787440  66.6486730  53.8923210
  81.6835460  71.9089790  45.3440400  82.1231370  72.6514120  44.9295790
  81.6222350  72.1516360  46.2679360  77.1586430  72.9335620  56.2460420
  77.1301860  73.3378570  55.3788850  76.9951400  72.0045980  56.0832020
  87.1557220  58.2236530  39.6900200  86.8429880  58.3163360  40.5899270
  87.9169690  58.8017560  39.6397630  89.1101250  73.7162720  57.5424590
  89.5860970  74.1945610  58.2213670  89.7308410  73.6480210  56.8170090
  88.5134500  70.9075570  54.7024600  88.6397560  70.6687450  53.7841780
  88.5555880  70.0760110  55.1746680  82.3751240  74.6103570  53.2719410
  82.8895910  74.5211580  54.0741840  81.5320320  74.9563270  53.5647320
  84.3505640  74.8958910  42.7003410  84.1906780  74.6061850  43.5985240
  84.1852350  74.1199040  42.1648640  76.8294020  74.6757440  44.4775030
  76.6536500  73.7592980  44.2642830  75.9749760  75.0344730  44.7172830
  84.0531770  72.4046470  41.2601410  83.3596930  72.4023760  40.6003690
  84.7954630  71.9805790  40.8295580  83.6181700  74.0309180  45.3349900
  84.0738650  73.2498560  45.6488520  83.9574220  74.7416000  45.8791080
  88.3658510  62.9608030  55.6674340  87.7502780  63.4687700  55.1389800
  88.0454930  62.0606360  55.6100280  76.1403020  58.9331400  47.5301210
  75.6971170  59.7140940  47.1985730  76.6988010  59.2561290  48.2372150
  80.4272830  61.7999920  53.1336530  79.9652200  62.0082940  53.9456470
  80.0250940  60.9859270  52.8307200  85.4277340  63.0208870  54.2633190
  84.5770930  62.7214620  54.5842260  85.2679130  63.2650880  53.3517010
  82.5227050  64.5210620  56.3631980  82.8480460  63.6874370  56.0234210
  83.3107380  65.0439140  56.5110310  79.2561840  58.5542100  42.4107040
  78.6316020  58.5501970  43.1360350  79.1691960  57.6873060  42.0143010
  78.1778920  59.4778730  49.3890810  78.4751250  60.3841560  49.3082830
  78.7264480  58.9897510  48.7750380  83.1615000  64.0628340  43.8573110
  82.5623890  64.7864140  43.6736730  83.7094610  64.0005120  43.0749560
  78.3716450  64.9550550  55.9242730  78.2760050  64.0145280  55.7743130
  79.2148430  65.1765620  55.5290800  81.7679870  62.6991880  45.8876390
  82.1609440  63.0164080  45.0745080  82.1296720  61.8203760  46.0020910
  80.0772040  61.4499190  57.1473250  79.3870360  61.2571390  57.7819340
  80.8204340  61.7333830  57.6797550  70.8044040  59.2892680  48.1106590
  70.5157090  59.8595540  48.8231570  71.5489800  58.8097130  48.4737820
  82.3535010  65.2897630  49.9827170  81.6216130  65.7984440  50.3317270
  81.9559350  64.4727610  49.6815950  78.7912400  61.9651830  48.3879660
  78.7948460  61.5241780  47.5384200  79.6863520  62.2869160  48.4951480
  78.8532550  62.9663910  41.3786420  78.9745370  62.9250390  42.3272240
  78.4681060  63.8288060  41.2233150  82.8160920  60.7431310  49.3950110
  82.8333660  61.1939960  50.2391960  82.5676500  59.8436950  49.6083550
  77.8654050  65.2765050  40.7769720  77.2970950  64.8283300  40.1505630
  78.5743050  65.6357830  40.2434870  86.2431670  58.1563490  55.2336490
  86.5677440  57.4253150  55.7594470  86.2788180  57.8377130  54.3317480
  79.0920370  66.0253610  50.1345070  79.4590500  65.5512180  50.8806410
  78.9025430  66.8995180  50.4753410  71.9560860  60.7697300  46.2638540
  71.6707780  60.4052970  47.1017160  71.8939720  60.0377760  45.6501680
  75.4101530  69.2723240  43.0496130  74.6363790  68.7320860  42.8894850
  76.1396160  68.7529850  42.7113890  86.1689510  68.2688600  48.8422520
  86.8888630  68.7643890  48.4518630  85.9671330  67.5906490  48.1976390
  81.6299450  59.6626560  42.9851910  80.8164060  59.1639730  42.9097220
  81.4361400  60.5024810  42.5688260  81.5508310  68.3397660  54.7291520
  81.4845620  67.4193330  54.4749110  80.9213450  68.4373100  55.4436160
  84.3447840  64.0346210  41.2814070  85.2327460  64.3463440  41.1065410
  84.3152930  63.1618460  40.8894650  80.3408430  70.2069900  41.9602240
  80.6824130  70.9512130  41.4645560  79.5121140  70.5201020  42.3227070
  76.1396590  66.3649230  56.4840190  75.8396730  66.5106410  55.5868010
  76.9107830  65.8054520  56.3913580  81.4825040  71.1618230  54.4795320
  81.4969580  70.2299190  54.2614230  80.7750140  71.2477990  55.1185090
  86.6162110  65.3458050  40.7493930  86.5325830  65.7772270  39.8990370
  87.3356300  65.8056400  41.1820750  87.6936250  67.8025570  53.8263900
  86.9684440  68.3954350  53.6293290  88.2211710  67.7949110  53.0277270
  87.6449360  72.2000310  43.4776060  87.0025520  71.5455930  43.7519780
  87.2580020  72.6055400  42.7016730  83.2235840  69.5285740  47.3247750
  83.5759660  68.9313870  46.6649120  82.3398170  69.2029970  47.4956000
  79.3099120  70.2883430  44.7318160  79.9970250  70.8352640  45.1125750
  78.5231540  70.8324160  44.7667770  71.4491520  65.9056250  40.2235240
  72.3186370  66.1881050  40.5071160  70.9581840  66.7192120  40.1084050
  78.6126330  67.2929460  44.3443520  79.0689110  68.1034710  44.5703710
  78.2614540  66.9752600  45.1762010  80.9158940  72.8035800  51.5735820
  81.5601160  73.0095180  52.2509240  81.2788380  72.0424200  51.1206670
  74.5138110  57.6367110  44.8166040  74.3852740  57.6285010  45.7650960
  73.6900130  57.9750200  44.4657050  82.1891020  70.8068150  50.2913270
  82.8313250  70.1061310  50.4045440  82.7140370  71.5866590  50.1110160
  86.0346740  71.0916770  40.0152410  85.8084320  70.3747210  40.6077050
  85.6442940  70.8429210  39.1774160  83.9628640  71.6063050  53.4949330
  84.2984880  72.1929740  54.1727250  83.0428980  71.4755760  53.7247120
  85.6162990  69.0088710  41.6766570  85.3284690  69.4701400  42.4644450
  86.4115160  68.5486480  41.9450790  79.7917220  71.6554380  56.6637390
  79.4714090  70.9363620  57.2083080  79.1175580  72.3309450  56.7373450
  77.8331390  72.5014830  41.6070540  77.8241490  73.2344520  40.9915050
  76.9129750  72.2546410  41.6997500  73.4338030  67.7229720  42.3517300
  72.8265980  68.4628620  42.3612600  73.9087380  67.8129080  41.5255500
  83.0070820  61.8880540  52.0274190  83.3751640  61.0675750  52.3553760
  82.1469020  61.9482430  52.4429840  86.3732850  60.8437480  42.8361750
  85.7446010  60.9483150  42.1219980  85.8784770  61.0634260  43.6255630
  80.8190990  72.5643070  40.2695730  80.9202970  72.3607060  39.3397710
  79.9192730  72.3101350  40.4743510  78.3416880  63.1223430  44.2519630
  77.6333030  63.5909770  44.6933240  78.6261360  62.4645440  44.8864820
  79.9672810  64.5420130  52.2512160  80.4658060  65.0165950  52.9164010
  80.1095760  63.6183650  52.4582190  82.3732310  59.8474090  45.6915420
  82.2500090  59.8660220  44.7424930  83.3216870  59.8953030  45.8113820
  79.4609100  75.0829390  44.9643400  79.7150600  75.0450780  44.0422770
  78.5121580  74.9562720  44.9571650  76.5451900  61.4308510  41.6270340
  77.3942430  61.8678660  41.5610530  76.1783170  61.7428770  42.4542400
  87.1739670  60.7588090  53.0940550  86.6713270  61.4993490  53.4334360
  87.9896330  61.1472090  52.7777340  85.4661680  66.0021270  46.5401910
  84.5251820  66.0171500  46.7149600  85.7805750  65.2157230  46.9862210
  75.4443320  67.6840870  40.1005870  76.2106590  67.5722230  40.6631300
  75.5218010  66.9878840  39.4482640  74.1390080  65.1165940  40.7838760
  74.2193670  64.1693450  40.8956160  75.0309830  65.4472820  40.8899420
  87.4687260  73.1730120  48.2156170  87.5934680  73.9961290  48.6879980
  88.3352820  72.9620850  47.8680320  74.9404790  75.2661330  47.8873300
  75.6767270  74.7176790  48.1581870  75.3245710  76.1317340  47.7479290
  73.9463070  74.4507400  57.0758880  74.7475800  74.7719450  57.4894280
  73.4314890  74.0902980  57.7978790  78.0507100  74.4391640  39.7098870
  78.8435710  74.7280470  39.2580660  77.5311450  74.0083810  39.0311350
  82.7827700  70.5587270  57.0234290  82.1765860  70.5818870  56.2830040
  82.4781810  69.8270310  57.5601540  84.2128070  74.2867560  55.6343700
  85.1649820  74.2025580  55.5843940  84.0656290  74.9509270  56.3077490
  87.1037270  73.6661770  41.1335610  86.8178780  73.2526910  40.3189790
  86.9056820  74.5949480  41.0136130  78.5684500  69.6595050  39.5741220
  78.4635140  69.0447400  40.3002600  78.4008720  69.1360940  38.7904230
  78.7198820  68.3451850  55.5530450  77.9544490  68.9136850  55.4685120
  78.9014780  68.0528060  54.6598680  81.8087230  68.7215080  40.1783210
  81.2597330  69.1684380  40.8225950  82.4306490  68.2164330  40.7020880
  85.8622170  70.0757180  56.1105470  86.6031640  70.4132940  55.6072930
  85.0994850  70.2449240  55.5575240  77.4762350  67.6806000  42.0748510
  77.8978770  67.5145870  42.9179900  77.6013190  66.8706230  41.5803650
  79.9889990  66.7043610  39.3225610  80.5095650  65.9892630  38.9566760
  80.6358390  67.3429480  39.6226120  84.5367830  68.1272010  54.6460680
  84.9508850  68.2817090  55.4951100  83.6018830  68.2527230  54.8086460
  85.0090000  65.4668170  56.6499830  85.5910770  64.7120490  56.5620310
  85.1851770  65.9975610  55.8731310  76.1262070  60.6264920  54.9616780
  76.0318940  60.0085670  54.2367650  75.5459460  61.3531210  54.7346690
  78.8923510  59.1838160  51.9944170  78.4440810  59.2062420  51.1489720
  78.2588710  58.7857180  52.5914470  79.2983060  68.0792490  52.6156610
  79.7171170  68.9225220  52.4432850  78.3791690  68.2164530  52.3863390
  81.6346960  65.8108670  53.9994450  81.7543170  65.2149810  54.7389290
  82.4940960  65.8478360  53.5795750  83.9734860  66.3645860  52.5756960
  83.4470080  66.8888480  51.9722100  84.3166200  66.9973250  53.2066690
  76.3721250  63.7539230  39.0206670  76.1710310  62.8906590  39.3820010
  76.2013300  63.6672590  38.0828270  77.1490480  74.3845500  53.7314340
  76.6111570  75.1091560  53.4123040  77.4024440  73.9075840  52.9411680
  78.4015730  62.3530020  55.2570270  78.9915420  62.0445870  55.9448090
  77.5835970  61.8809770  55.4130170  83.2209160  61.9695830  55.4903290
  82.5324680  61.3077370  55.4253280  83.9415180  61.5234100  55.9351750
  83.8509560  58.5647460  41.5493550  84.1311850  57.7215360  41.9052970
  83.0775290  58.7970570  42.0632300  75.1704050  60.8539850  39.0084550
  75.4729950  60.8607280  38.1003700  75.9098640  60.5037710  39.5052210
  80.0052690  75.6196710  53.9900990  79.9311390  76.5231850  54.2973360
  79.1031530  75.3008610  53.9623060  78.3888980  59.7974470  39.9940750
  78.0410980  59.1198460  39.4143200  78.5901750  59.3363980  40.8084140
  80.5538020  74.7855220  41.6127350  81.4488810  75.1240190  41.6346110
  80.5855650  74.0634630  40.9851630  74.1934180  70.1582270  39.8414350
  74.6309050  70.7011940  40.4971930  74.6781910  69.3329220  39.8510690
  76.0041900  71.2780310  44.9536580  75.7037440  71.1545280  45.8540490
  75.8979390  70.4188900  44.5452310  71.8970190  73.8141890  50.0316240
  71.4601180  73.9942690  50.8640390  72.4647870  74.5716510  49.8897960
  87.5332370  73.3158890  54.3193550  86.9334360  73.3751450  53.5757470
  87.6626270  72.3763870  54.4490400  88.7733820  71.0576710  39.6563260
  87.9426780  71.1253360  40.1270490  88.9505650  71.9480830  39.3530120
  88.2290280  67.8024190  42.1597460  88.9909190  68.3720840  42.2657150
  88.2444650  67.2351390  42.9305770  89.2350250  68.6574290  47.0039390
  89.6059080  67.8741610  46.5975360  89.8752180  69.3463390  46.8256690
  86.2184010  70.0410870  52.4169710  85.4043850  70.4708030  52.6795500
  86.6258210  70.6529280  51.8038760  88.2809450  68.0958560  39.3169980
  88.5558290  69.0037440  39.1889200  88.0920190  68.0321090  40.2531970
  84.6785060  61.1203410  40.6123610  85.0969940  60.9334390  39.7720270
  84.3721120  60.2682460  40.9226540  88.1774790  66.0327550  44.3099410
  87.8018390  65.2655480  43.8780700  87.4477910  66.4150250  44.7974340
  87.5674410  65.1799070  53.9438930  87.3360500  64.9511820  53.0436880
  87.8278960  66.0998620  53.8983820  86.0062480  60.4055500  56.7218630
  86.8832660  60.4138900  57.1052630  86.0183320  59.6686340  56.1110980
  87.4525750  64.2585040  47.6106650  87.9763230  63.7647690  46.9796820
  88.0385170  64.3935400  48.3554220  87.6315470  64.3424910  51.1326200
  86.6818180  64.3088450  51.2471190  87.8128480  65.2525020  50.8975970
  73.4859910  62.5926590  40.2424830  74.1951610  62.1709810  39.7572110
  72.7699850  62.6601820  39.6108180  73.1334070  58.6465920  39.2827480
  73.8562200  59.1874860  39.6008700  73.4058590  58.3729340  38.4069020
  86.9425720  63.5158390  43.5499060  87.4384840  63.2829260  44.3347940
  86.7441790  62.6770230  43.1336700  72.8226260  57.8972110  49.1850100
  73.4702450  57.3469490  48.7445260  73.2428100  58.1515260  50.0065910
  88.3712880  62.1519340  46.0836740  88.2612160  61.9975380  47.0219010
  89.1320470  61.6240280  45.8412150  86.7178600  58.0913470  52.5419740
  87.3550820  58.7047610  52.9078930  86.8653490  58.1274130  51.5968970
  89.2603150  59.9827260  39.3242880  90.1852460  59.8508440  39.1161170
  89.2378940  60.0620080  40.2779330  89.3341640  60.7537920  41.9499590
  88.5393140  60.6883040  42.4792500  89.5384920  61.6888560  41.9384940
  86.2760060  74.7929470  45.9437980  86.8719130  74.4714040  45.2672400
  86.5338210  74.3201290  46.7351250  72.5758260  58.0527780  51.9275420
  72.2273080  58.5091600  52.6933600  72.2445960  57.1584910  52.0097850
  77.8828660  72.7806970  51.6938330  77.6420020  73.0481530  50.8068850
  78.8231300  72.9512700  51.7489190  80.0883080  59.2439660  55.4494840
  80.0271970  59.8361490  56.1990250  81.0283460  59.1365620  55.3045100
  82.7257640  58.9009720  55.0887130  83.3398050  59.2189010  54.4268210
  83.2707200  58.4158310  55.7082990  89.1432820  74.8001350  52.4948970
  88.6491100  75.1970220  51.7776100  88.5346110  74.1750560  52.8886250
  73.2478900  57.5803980  55.2026190  73.7961890  57.3992030  54.4392300
  73.3134210  56.7898090  55.7382500  74.0210660  74.1709630  53.2126390
  73.4270980  74.0394330  53.9516430  74.0134500  73.3347770  52.7468490
  83.4665680  57.4641860  51.4156420  82.5925520  57.7976970  51.2129350
  83.3576430  56.9915040  52.2408290  84.3737660  59.6712730  52.7998140
  84.0451020  58.8564490  52.4199870  85.3219960  59.6282540  52.6763830
  86.8272270  75.4424770  49.7735710  86.3675240  76.1940580  49.3993730
  86.1984730  74.7231240  49.7150510  73.6522890  71.5368010  52.1634430
  72.9256950  70.9173300  52.0960380  73.7132040  71.9308620  51.2932510
  77.2567990  73.7513010  48.9483840  77.7733010  73.1400370  48.4232100
  77.9065370  74.2541790  49.4394850  79.9963490  74.6421500  49.7752820
  80.2841300  74.3875800  48.8985830  80.5086710  74.0898860  50.3658390
  81.2140500  58.3811700  50.3549330  80.4312290  58.8557200  50.6346090
  80.9203430  57.4766530  50.2462510  85.7661570  59.0834800  48.3998420
  86.2069660  59.0279900  47.5520020  85.4969160  59.9992810  48.4708600
  87.6300140  58.7150040  46.4107240  87.5688540  57.7711260  46.2638260
  88.4092170  58.8230130  46.9560700  72.5580910  58.6859180  42.8763050
  73.3160270  58.7988060  42.3027080  72.0958080  59.5228380  42.8306480
  79.0994720  60.7998450  45.8665360  78.2869230  60.4255340  45.5261240
  79.6036360  60.0443530  46.1686550  83.6019700  57.4640900  47.1048430
  84.2049070  58.0361110  47.5796950  82.8612690  58.0280340  46.8822330
  86.7454300  57.8662460  42.3788710  86.9404930  58.7645910  42.6456140
  85.9584170  57.6349540  42.8721660  74.9306060  59.2123230  41.4165020
  75.4598820  58.4253030  41.2872970  75.5634380  59.8914420  41.6500550
  77.1243900  58.9498370  44.4710410  76.4946640  58.2485680  44.6380540
  76.5849040  59.7102500  44.2543570  80.0635850  75.5637600  57.1421020
  80.9903160  75.3281870  57.1856980  80.0486280  76.3909600  56.6607050
  88.2980910  75.1063170  44.1395270  88.4733100  74.4200910  43.4956190
  87.6002480  75.6310220  43.7471940  77.2499460  58.2282350  56.9062900
  76.9683730  58.7315950  56.1423720  77.6319160  57.4304100  56.5405030
  76.1408560  75.4958010  41.6930580  76.8727380  75.2117290  41.1454470
  76.4002230  75.2571290  42.5829960  75.3023350  71.6122740  41.6976910
  74.6732230  72.0807840  42.2462740  75.4171180  70.7671960  42.1323100
  83.8514920  57.6435930  57.4843370  83.7380370  57.9630540  58.3794890
  84.6684660  58.0448440  57.1880650  86.6313410  74.7907460  56.9662060
  87.4238730  74.2956690  56.7588020  86.9246560  75.4697600  57.5737670
  82.7573070  65.6628400  27.8478110  82.6767120  64.7483010  27.5769820
  82.3437490  66.1595470  27.1417820  80.8891110  67.4407420  29.7287380
  80.1133210  66.9607860  30.0185950  81.5404040  66.7613070  29.5543540
  74.9056940  67.7527230  30.6063140  74.0741820  67.4975940  31.0059650
  75.5137920  67.8238000  31.3421060  84.9098540  71.8467610  28.5086510
  84.4480070  71.0754850  28.8373680  85.7224090  71.8733680  29.0138960
  74.8858200  71.7867320  30.8021160  75.1886240  70.8965060  30.6231380
  75.6301790  72.3437540  30.5743410  73.3148890  62.7129120  24.3905530
  72.4265590  63.0545090  24.2885410  73.5990080  62.5129440  23.4986360
  71.2781900  65.3134770  30.2745230  71.8498010  64.5456970  30.2748870
  71.2783440  65.6123530  29.3651840  81.1361850  74.1325620  28.1290500
  80.5173290  74.5883120  27.5584940  81.9913630  74.2877080  27.7280200
  80.3300100  70.1164610  29.7357540  80.2608380  69.1754550  29.5746670
  81.0919960  70.2066020  30.3080110  72.5206770  60.7219130  32.0614160
  72.3409610  59.8244880  32.3416920  72.1186850  61.2691000  32.7361110
  81.3605270  62.9234990  29.9626470  81.7370090  62.0506870  29.8500140
  81.2624780  63.2593690  29.0716910  85.1429390  60.4185430  26.8954810
  85.9639010  59.9282000  26.9380290  85.1763470  61.0083090  27.6486650
  73.1393440  63.2179630  30.6696500  73.8203550  63.4818000  31.2883900
  72.8241490  62.3780500  31.0034510  77.3318010  64.2646990  29.7569090
  77.8396230  64.7627960  30.3974110  77.8631250  63.4882190  29.5808450
  89.4328940  62.4352180  33.4598440  88.7281110  62.8233890  32.9413550
  89.6986860  63.1302470  34.0619370  75.6154110  58.9045550  34.0232510
  75.6172550  59.4217940  33.2178410  74.7858420  58.4275730  34.0002440
  82.0025200  69.0164860  25.5222410  81.3842470  69.4814310  24.9585130
  82.5148450  69.7092340  25.9391920  76.8656960  68.5440730  32.2006010
  76.5326340  69.1709650  32.8427080  77.0423640  69.0702610  31.4207680
  85.3790870  62.3585810  29.6682350  84.6746440  62.6470700  30.2485460
  85.7403030  63.1685920  29.3081910  75.2969440  60.6155510  32.0302960
  75.6386250  61.4597560  31.7356830  74.3585250  60.7639250  32.1468300
  76.0776060  70.5121530  34.0155190  76.6950060  71.1872610  33.7339640
  75.2169180  70.9209510  33.9242690  71.3708400  69.7021390  22.8962040
  70.9936380  70.1908490  22.1646940  71.6281470  70.3746670  23.5268570
  86.9953650  71.9760940  31.9309830  86.3117170  72.6460050  31.9226500
  87.5347940  72.1741590  31.1654690  88.4477790  61.8040600  30.0591560
  87.5002700  61.8379580  30.1906990  88.7727780  62.6179550  30.4440920
  84.5312390  73.8205070  30.6455010  84.5439550  73.4167360  29.7777270
  83.9787610  74.5952360  30.5416440  85.8257810  70.5421290  25.7345180
  85.7154140  69.5995620  25.8594600  85.8226060  70.9036930  26.6207940
  83.9297830  68.7234910  31.9737620  84.3466620  68.5095020  31.1391080
  84.6537650  68.9807700  32.5446240  81.3678090  66.1686610  25.0907670
  80.4407370  66.1023990  25.3196140  81.5202910  67.1066740  24.9762910
  81.3547170  62.4403610  22.0874830  80.4150840  62.6017570  22.1727290
  81.6730430  63.1589290  21.5410820  87.8759930  67.1222130  32.0653860
  87.0478560  67.1915220  31.5903990  88.4710410  67.7076440  31.5969690
  85.3975380  67.7306910  25.5942920  84.7787800  67.3926460  24.9469220
  85.3799830  67.0866670  26.3022110  84.8401940  63.9091450  33.0108730
  84.4273120  64.7345160  33.2648720  84.1077890  63.3236490  32.8185090
  76.9734730  66.6951350  27.8727400  76.5691730  65.9828600  27.3773300
  77.0597850  66.3504590  28.7615440  77.4416430  70.3818910  30.0366610
  77.1444720  69.7764380  29.3574390  78.3916250  70.4196220  29.9255970
  75.6863350  63.4694560  31.6526440  76.2377940  63.5789900  30.8779690
  76.2006860  63.8432160  32.3681670  85.5302040  73.9550780  33.6989710
  85.0532600  74.7622970  33.5062320  84.8463830  73.3029110  33.8515920
  76.5334860  70.1200600  36.6874410  75.6363390  70.3440570  36.9347810
  76.5587730  70.2435540  35.7385810  83.5740080  66.9693720  22.6015670
  84.0133360  66.1316150  22.4553490  84.2868500  67.6023120  22.6879810
  75.3606080  66.9913920  35.2631780  75.2213850  67.8636720  35.6319180
  74.4787440  66.6486730  35.1179720  81.6835460  71.9089790  26.5696910
  82.1231370  72.6514120  26.1552300  81.6222350  72.1516360  27.4935870
  77.1586430  72.9335620  37.4716930  77.1301860  73.3378570  36.6045360
  76.9951400  72.0045980  37.3088530  87.1557220  58.2236530  20.9156710
  86.8429880  58.3163360  21.8155780  87.9169690  58.8017560  20.8654140
  73.6739360  65.5896330  25.3734050  73.5536960  66.3158420  24.7615320
  73.3640250  64.8199240  24.8961960  89.1101250  73.7162720  38.7681100
  89.5860970  74.1945610  39.4470180  89.7308410  73.6480210  38.0426600
  71.3124730  68.7611470  31.1802690  71.3905150  68.8960240  30.2358410
  71.9266410  68.0527360  31.3730810  72.5572360  70.4611660  27.5908870
  72.1500440  70.6026250  26.7362470  73.4485370  70.1771820  27.3880080
  88.5134500  70.9075570  35.9281110  88.6397560  70.6687450  35.0098290
  88.5555880  70.0760110  36.4003190  82.3751240  74.6103570  34.4975920
  82.8895910  74.5211580  35.2998350  81.5320320  74.9563270  34.7903830
  84.3505640  74.8958910  23.9259920  84.1906780  74.6061850  24.8241750
  84.1852350  74.1199040  23.3905150  76.8294020  74.6757440  25.7031540
  76.6536500  73.7592980  25.4899340  75.9749760  75.0344730  25.9429340
  84.0531770  72.4046470  22.4857920  83.3596930  72.4023760  21.8260200
  84.7954630  71.9805790  22.0552090  83.6181700  74.0309180  26.5606410
  84.0738650  73.2498560  26.8745030  83.9574220  74.7416000  27.1047590
  88.3658510  62.9608030  36.8930850  87.7502780  63.4687700  36.3646310
  88.0454930  62.0606360  36.8356790  71.3684250  69.8025640  33.7197150
  71.5315290  69.3331000  32.9016520  71.8336700  69.2949200  34.3845990
  80.4272830  61.7999920  34.3593040  79.9652200  62.0082940  35.1712980
  80.0250940  60.9859270  34.0563710  85.4277340  63.0208870  35.4889700
  84.5770930  62.7214620  35.8098770  85.2679130  63.2650880  34.5773520
  82.5227050  64.5210620  37.5888490  82.8480460  63.6874370  37.2490720
  83.3107380  65.0439140  37.7366820  79.2561840  58.5542100  23.6363550
  78.6316020  58.5501970  24.3616860  79.1691960  57.6873060  23.2399520
  78.1778920  59.4778730  30.6147320  78.4751250  60.3841560  30.5339340
  78.7264480  58.9897510  30.0006890  75.9317240  64.0564970  26.4838970
  75.7058160  63.8402140  27.3885590  75.1509770  64.4893430  26.1384940
  83.1615000  64.0628340  25.0829620  82.5623890  64.7864140  24.8993240
  83.7094610  64.0005120  24.3006070  78.3716450  64.9550550  37.1499240
  78.2760050  64.0145280  36.9999640  79.2148430  65.1765620  36.7547310
  81.7679870  62.6991880  27.1132900  82.1609440  63.0164080  26.3001590
  82.1296720  61.8203760  27.2277420  73.5026990  61.3664220  35.3033020
  73.1090380  62.2139430  35.5105800  72.8145390  60.7290590  35.4941660
  80.0772040  61.4499190  38.3729760  79.3870360  61.2571390  39.0075850
  80.8204340  61.7333830  38.9054060  70.9914270  63.2312800  20.5465820
  70.9088940  64.1743560  20.6880810  70.6397330  63.0887710  19.6678170
  82.3535010  65.2897630  31.2083680  81.6216130  65.7984440  31.5573780
  81.9559350  64.4727610  30.9072460  78.7912400  61.9651830  29.6136170
  78.7948460  61.5241780  28.7640710  79.6863520  62.2869160  29.7207990
  74.6414780  61.8478320  28.5730380  74.3014830  62.3253550  29.3297430
  73.8792100  61.3943440  28.2131480  78.8532550  62.9663910  22.6042930
  78.9745370  62.9250390  23.5528750  78.4681060  63.8288060  22.4489660
  82.8160920  60.7431310  30.6206620  82.8333660  61.1939960  31.4648470
  82.5676500  59.8436950  30.8340060  77.8654050  65.2765050  22.0026230
  77.2970950  64.8283300  21.3762140  78.5743050  65.6357830  21.4691380
  86.2431670  58.1563490  36.4593000  86.5677440  57.4253150  36.9850980
  86.2788180  57.8377130  35.5573990  72.9423230  69.1777070  35.8792960
  72.5578020  68.5370740  36.4775920  73.2535420  69.8813190  36.4487690
  79.0920370  66.0253610  31.3601580  79.4590500  65.5512180  32.1062920
  78.9025430  66.8995180  31.7009920  76.8819740  65.0662250  33.6785790
  76.5776810  65.9454230  33.9036150  77.8366200  65.1262040  33.7143230
  75.4101530  69.2723240  24.2752640  74.6363790  68.7320860  24.1151360
  76.1396160  68.7529850  23.9370400  86.1689510  68.2688600  30.0679030
  86.8888630  68.7643890  29.6775140  85.9671330  67.5906490  29.4232900
  81.6299450  59.6626560  24.2108420  80.8164060  59.1639730  24.1353730
  81.4361400  60.5024810  23.7944770  81.5508310  68.3397660  35.9548030
  81.4845620  67.4193330  35.7005620  80.9213450  68.4373100  36.6692670
  84.3447840  64.0346210  22.5070580  85.2327460  64.3463440  22.3321920
  84.3152930  63.1618460  22.1151160  75.4538930  68.9403620  27.9131450
  75.9717600  68.1371880  27.8588340  75.0022950  68.8782760  28.7548280
  80.3408430  70.2069900  23.1858750  80.6824130  70.9512130  22.6902070
  79.5121140  70.5201020  23.5483580  72.9383470  65.9064990  34.8257150
  72.5798410  66.5718840  35.4130490  72.6438030  65.0748540  35.1969770
  76.1396590  66.3649230  37.7096700  75.8396730  66.5106410  36.8124520
  76.9107830  65.8054520  37.6170090  81.4825040  71.1618230  35.7051830
  81.4969580  70.2299190  35.4870740  80.7750140  71.2477990  36.3441600
  86.6162110  65.3458050  21.9750440  86.5325830  65.7772270  21.1246880
  87.3356300  65.8056400  22.4077260  87.6936250  67.8025570  35.0520410
  86.9684440  68.3954350  34.8549800  88.2211710  67.7949110  34.2533780
  87.6449360  72.2000310  24.7032570  87.0025520  71.5455930  24.9776290
  87.2580020  72.6055400  23.9273240  83.2235840  69.5285740  28.5504260
  83.5759660  68.9313870  27.8905630  82.3398170  69.2029970  28.7212510
  79.3099120  70.2883430  25.9574670  79.9970250  70.8352640  26.3382260
  78.5231540  70.8324160  25.9924280  71.4491520  65.9056250  21.4491750
  72.3186370  66.1881050  21.7327670  70.9581840  66.7192120  21.3340560
  78.6126330  67.2929460  25.5700030  79.0689110  68.1034710  25.7960220
  78.2614540  66.9752600  26.4018520  80.9158940  72.8035800  32.7992330
  81.5601160  73.0095180  33.4765750  81.2788380  72.0424200  32.3463180
  82.1891020  70.8068150  31.5169780  82.8313250  70.1061310  31.6301950
  82.7140370  71.5866590  31.3366670  86.0346740  71.0916770  21.2408920
  85.8084320  70.3747210  21.8333560  85.6442940  70.8429210  20.4030670
  83.9628640  71.6063050  34.7205840  84.2984880  72.1929740  35.3983760
  83.0428980  71.4755760  34.9503630  71.8162770  75.1183630  22.0153380
  72.1760410  75.7172970  21.3610650  71.6755110  75.6643520  22.7888410
  71.5132040  59.3958230  35.5029250  70.7990560  59.5955150  36.1081860
  71.9327080  58.6197800  35.8744050  85.6162990  69.0088710  22.9023080
  85.3284690  69.4701400  23.6900960  86.4115160  68.5486480  23.1707300
  71.8004630  73.3838490  36.4895780  71.9095750  72.4433230  36.3491170
  71.1485190  73.6493240  35.8409510  79.7917220  71.6554380  37.8893900
  79.4714090  70.9363620  38.4339590  79.1175580  72.3309450  37.9629960
  77.8331390  72.5014830  22.8327050  77.8241490  73.2344520  22.2171560
  76.9129750  72.2546410  22.9254010  73.4338030  67.7229720  23.5773810
  72.8265980  68.4628620  23.5869110  73.9087380  67.8129080  22.7512010
  83.0070820  61.8880540  33.2530700  83.3751640  61.0675750  33.5810270
  82.1469020  61.9482430  33.6686350  86.3732850  60.8437480  24.0618260
  85.7446010  60.9483150  23.3476490  85.8784770  61.0634260  24.8512140
  80.8190990  72.5643070  21.4952240  80.9202970  72.3607060  20.5654220
  79.9192730  72.3101350  21.7000020  78.3416880  63.1223430  25.4776140
  77.6333030  63.5909770  25.9189750  78.6261360  62.4645440  26.1121330
  79.9672810  64.5420130  33.4768670  80.4658060  65.0165950  34.1420520
  80.1095760  63.6183650  33.6838700  82.3732310  59.8474090  26.9171930
  82.2500090  59.8660220  25.9681440  83.3216870  59.8953030  27.0370330
  79.4609100  75.0829390  26.1899910  79.7150600  75.0450780  25.2679280
  78.5121580  74.9562720  26.1828160  76.5451900  61.4308510  22.8526850
  77.3942430  61.8678660  22.7867040  76.1783170  61.7428770  23.6798910
  87.1739670  60.7588090  34.3197060  86.6713270  61.4993490  34.6590870
  87.9896330  61.1472090  34.0033850  85.4661680  66.0021270  27.7658420
  84.5251820  66.0171500  27.9406110  85.7805750  65.2157230  28.2118720
  75.4443320  67.6840870  21.3262380  76.2106590  67.5722230  21.8887810
  75.5218010  66.9878840  20.6739150  74.1390080  65.1165940  22.0095270
  74.2193670  64.1693450  22.1212670  75.0309830  65.4472820  22.1155930
  87.4687260  73.1730120  29.4412680  87.5934680  73.9961290  29.9136490
  88.3352820  72.9620850  29.0936830  74.9404790  75.2661330  29.1129810
  75.6767270  74.7176790  29.3838380  75.3245710  76.1317340  28.9735800
  71.8250270  71.3334900  24.9871320  70.8990050  71.5756040  24.9776730
  72.2906700  72.1609160  24.8656070  73.9463070  74.4507400  38.3015390
  74.7475800  74.7719450  38.7150790  73.4314890  74.0902980  39.0235300
  78.0507100  74.4391640  20.9355380  78.8435710  74.7280470  20.4837170
  77.5311450  74.0083810  20.2567860  82.7827700  70.5587270  38.2490800
  82.1765860  70.5818870  37.5086550  82.4781810  69.8270310  38.7858050
  84.2128070  74.2867560  36.8600210  85.1649820  74.2025580  36.8100450
  84.0656290  74.9509270  37.5334000  87.1037270  73.6661770  22.3592120
  86.8178780  73.2526910  21.5446300  86.9056820  74.5949480  22.2392640
  71.6660880  66.9380860  37.2451440  72.1699900  66.3588140  37.8167670
  70.9268300  67.2221090  37.7827810  78.5684500  69.6595050  20.7997730
  78.4635140  69.0447400  21.5259110  78.4008720  69.1360940  20.0160740
  78.7198820  68.3451850  36.7786960  77.9544490  68.9136850  36.6941630
  78.9014780  68.0528060  35.8855190  81.8087230  68.7215080  21.4039720
  81.2597330  69.1684380  22.0482460  82.4306490  68.2164330  21.9277390
  85.8622170  70.0757180  37.3361980  86.6031640  70.4132940  36.8329440
  85.0994850  70.2449240  36.7831750  73.6983960  65.0810450  38.1401510
  73.7389300  64.7824320  39.0486740  74.5529460  65.4818060  37.9809030
  77.4762350  67.6806000  23.3005020  77.8978770  67.5145870  24.1436410
  77.6013190  66.8706230  22.8060160  75.6389770  63.6602550  36.1076000
  75.1086230  63.1693500  35.4799340  76.3077840  64.0886750  35.5733930
  79.9889990  66.7043610  20.5482120  80.5095650  65.9892630  20.1823270
  80.6358390  67.3429480  20.8482630  84.5367830  68.1272010  35.8717190
  84.9508850  68.2817090  36.7207610  83.6018830  68.2527230  36.0342970
  85.0090000  65.4668170  37.8756340  85.5910770  64.7120490  37.7876820
  85.1851770  65.9975610  37.0987820  76.1262070  60.6264920  36.1873290
  76.0318940  60.0085670  35.4624160  75.5459460  61.3531210  35.9603200
  78.8923510  59.1838160  33.2200680  78.4440810  59.2062420  32.3746230
  78.2588710  58.7857180  33.8170980  79.2983060  68.0792490  33.8413120
  79.7171170  68.9225220  33.6689360  78.3791690  68.2164530  33.6119900
  81.6346960  65.8108670  35.2250960  81.7543170  65.2149810  35.9645800
  82.4940960  65.8478360  34.8052260  83.9734860  66.3645860  33.8013470
  83.4470080  66.8888480  33.1978610  84.3166200  66.9973250  34.4323200
  76.3721250  63.7539230  20.2463180  76.1710310  62.8906590  20.6076520
  76.2013300  63.6672590  19.3084780  77.1490480  74.3845500  34.9570850
  76.6111570  75.1091560  34.6379550  77.4024440  73.9075840  34.1668190
  78.4015730  62.3530020  36.4826780  78.9915420  62.0445870  37.1704600
  77.5835970  61.8809770  36.6386680  83.2209160  61.9695830  36.7159800
  82.5324680  61.3077370  36.6509790  83.9415180  61.5234100  37.1608260
  83.8509560  58.5647460  22.7750060  84.1311850  57.7215360  23.1309480
  83.0775290  58.7970570  23.2888810  75.1704050  60.8539850  20.2341060
  75.4729950  60.8607280  19.3260210  75.9098640  60.5037710  20.7308720
  80.0052690  75.6196710  35.2157500  79.9311390  76.5231850  35.5229870
  79.1031530  75.3008610  35.1879570  78.3888980  59.7974470  21.2197260
  78.0410980  59.1198460  20.6399710  78.5901750  59.3363980  22.0340650
  80.5538020  74.7855220  22.8383860  81.4488810  75.1240190  22.8602620
  80.5855650  74.0634630  22.2108140  74.1934180  70.1582270  21.0670860
  74.6309050  70.7011940  21.7228440  74.6781910  69.3329220  21.0767200
  71.4079980  72.9471300  28.5191120  71.7382990  72.0792360  28.2869760
  71.8370980  73.1529820  29.3496080  76.0041900  71.2780310  26.1793090
  75.7037440  71.1545280  27.0797000  75.8979390  70.4188900  25.7708820
  71.8970190  73.8141890  31.2572750  71.4601180  73.9942690  32.0896900
  72.4647870  74.5716510  31.1154470  87.5332370  73.3158890  35.5450060
  86.9334360  73.3751450  34.8013980  87.6626270  72.3763870  35.6746910
  88.7733820  71.0576710  20.8819770  87.9426780  71.1253360  21.3527000
  88.9505650  71.9480830  20.5786630  88.2290280  67.8024190  23.3853970
  88.9909190  68.3720840  23.4913660  88.2444650  67.2351390  24.1562280
  71.7294620  66.3262120  27.6161630  71.0743460  66.0573760  26.9721330
  72.5672570  66.2166600  27.1663610  89.2350250  68.6574290  28.2295900
  89.6059080  67.8741610  27.8231870  89.8752180  69.3463390  28.0513200
  86.2184010  70.0410870  33.6426220  85.4043850  70.4708030  33.9052010
  86.6258210  70.6529280  33.0295270  88.2809450  68.0958560  20.5426490
  88.5558290  69.0037440  20.4145710  88.0920190  68.0321090  21.4788480
  84.6785060  61.1203410  21.8380120  85.0969940  60.9334390  20.9976780
  84.3721120  60.2682460  22.1483050  88.1774790  66.0327550  25.5355920
  87.8018390  65.2655480  25.1037210  87.4477910  66.4150250  26.0230850
  72.7670550  66.7114690  32.1564970  73.1343590  66.6242090  33.0360990
  72.1981370  65.9481240  32.0571830  87.5674410  65.1799070  35.1695440
  87.3360500  64.9511820  34.2693390  87.8278960  66.0998620  35.1240330
  72.3186550  63.6223780  36.0623390  71.4242600  63.5890540  36.4017100
  72.8584100  63.8210570  36.8274640  86.0062480  60.4055500  37.9475140
  86.8832660  60.4138900  38.3309140  86.0183320  59.6686340  37.3367490
  70.9432700  63.5361050  23.5586960  70.0396780  63.7991250  23.3838620
  71.4273320  63.8072220  22.7786920  87.4525750  64.2585040  28.8363160
  87.9763230  63.7647690  28.2053330  88.0385170  64.3935400  29.5810730
  87.6315470  64.3424910  32.3582710  86.6818180  64.3088450  32.4727700
  87.8128480  65.2525020  32.1232480  73.4859910  62.5926590  21.4681340
  74.1951610  62.1709810  20.9828620  72.7699850  62.6601820  20.8364690
  73.1334070  58.6465920  20.5083990  73.8562200  59.1874860  20.8265210
  73.4058590  58.3729340  19.6325530  86.9425720  63.5158390  24.7755570
  87.4384840  63.2829260  25.5604450  86.7441790  62.6770230  24.3593210
  88.3712880  62.1519340  27.3093250  88.2612160  61.9975380  28.2475520
  89.1320470  61.6240280  27.0668660  86.7178600  58.0913470  33.7676250
  87.3550820  58.7047610  34.1335440  86.8653490  58.1274130  32.8225480
  89.2603150  59.9827260  20.5499390  90.1852460  59.8508440  20.3417680
  89.2378940  60.0620080  21.5035840  89.3341640  60.7537920  23.1756100
  88.5393140  60.6883040  23.7049010  89.5384920  61.6888560  23.1641450
  86.2760060  74.7929470  27.1694490  86.8719130  74.4714040  26.4928910
  86.5338210  74.3201290  27.9607760  72.5758260  58.0527780  33.1531930
  72.2273080  58.5091600  33.9190110  72.2445960  57.1584910  33.2354360
  74.1822630  71.2247380  37.3185120  74.1392260  70.8540290  38.1999580
  74.3133640  72.1624950  37.4586940  77.8828660  72.7806970  32.9194840
  77.6420020  73.0481530  32.0325360  78.8231300  72.9512700  32.9745700
  80.0883080  59.2439660  36.6751350  80.0271970  59.8361490  37.4246760
  81.0283460  59.1365620  36.5301610  82.7257640  58.9009720  36.3143640
  83.3398050  59.2189010  35.6524720  83.2707200  58.4158310  36.9339500
  89.1432820  74.8001350  33.7205480  88.6491100  75.1970220  33.0032610
  88.5346110  74.1750560  34.1142760  74.0210660  74.1709630  34.4382900
  73.4270980  74.0394330  35.1772940  74.0134500  73.3347770  33.9725000
  83.4665680  57.4641860  32.6412930  82.5925520  57.7976970  32.4385860
  83.3576430  56.9915040  33.4664800  84.3737660  59.6712730  34.0254650
  84.0451020  58.8564490  33.6456380  85.3219960  59.6282540  33.9020340
  86.8272270  75.4424770  30.9992220  86.3675240  76.1940580  30.6250240
  86.1984730  74.7231240  30.9407020  73.6522890  71.5368010  33.3890940
  72.9256950  70.9173300  33.3216890  73.7132040  71.9308620  32.5189020
  77.2567990  73.7513010  30.1740350  77.7733010  73.1400370  29.6488610
  77.9065370  74.2541790  30.6651360  79.9963490  74.6421500  31.0009330
  80.2841300  74.3875800  30.1242340  80.5086710  74.0898860  31.5914900
  81.2140500  58.3811700  31.5805840  80.4312290  58.8557200  31.8602600
  80.9203430  57.4766530  31.4719020  85.7661570  59.0834800  29.6254930
  86.2069660  59.0279900  28.7776530  85.4969160  59.9992810  29.6965110
  87.6300140  58.7150040  27.6363750  87.5688540  57.7711260  27.4894770
  88.4092170  58.8230130  28.1817210  71.9352890  74.8542400  26.5987700
  71.7674930  74.2213080  27.2969590  71.0687400  75.0601800  26.2481890
  79.0994720  60.7998450  27.0921870  78.2869230  60.4255340  26.7517750
  79.6036360  60.0443530  27.3943060  86.7454300  57.8662460  23.6045220
  86.9404930  58.7645910  23.8712650  85.9584170  57.6349540  24.0978170
  73.5415590  73.5475630  24.0437840  73.0163210  73.9283660  23.3399800
  73.4660170  74.1726400  24.7647550  80.0635850  75.5637600  38.3677530
  80.9903160  75.3281870  38.4113490  80.0486280  76.3909600  37.8863560
  88.2980910  75.1063170  25.3651780  88.4733100  74.4200910  24.7212700
  87.6002480  75.6310220  24.9728450  77.2499460  58.2282350  38.1319410
  76.9683730  58.7315950  37.3680230  77.6319160  57.4304100  37.7661540
  76.1408560  75.4958010  22.9187090  76.8727380  75.2117290  22.3710980
  76.4002230  75.2571290  23.8086470  75.3023350  71.6122740  22.9233420
  74.6732230  72.0807840  23.4719250  75.4171180  70.7671960  23.3579610
  83.8514920  57.6435930  38.7099880  83.7380370  57.9630540  39.6051400
  84.6684660  58.0448440  38.4137160  86.6313410  74.7907460  38.1918570
  87.4238730  74.2956690  37.9844530  86.9246560  75.4697600  38.7994180
  82.7573070  65.6628400   9.0734620  82.6767120  64.7483010   8.8026330
  82.3437490  66.1595470   8.3674330  80.8891110  67.4407420  10.9543890
  80.1133210  66.9607860  11.2442460  81.5404040  66.7613070  10.7800050
  74.9056940  67.7527230  11.8319650  74.0741820  67.4975940  12.2316160
  75.5137920  67.8238000  12.5677570  84.9098540  71.8467610   9.7343020
  84.4480070  71.0754850  10.0630190  85.7224090  71.8733680  10.2395470
  74.8858200  71.7867320  12.0277670  75.1886240  70.8965060  11.8487890
  75.6301790  72.3437540  11.7999920  73.3148890  62.7129120   5.6162040
  72.4265590  63.0545090   5.5141920  73.5990080  62.5129440   4.7242870
  71.2781900  65.3134770  11.5001740  71.8498010  64.5456970  11.5005380
  71.2783440  65.6123530  10.5908350  81.1361850  74.1325620   9.3547010
  80.5173290  74.5883120   8.7841450  81.9913630  74.2877080   8.9536710
  80.3300100  70.1164610  10.9614050  80.2608380  69.1754550  10.8003180
  81.0919960  70.2066020  11.5336620  72.5206770  60.7219130  13.2870670
  72.3409610  59.8244880  13.5673430  72.1186850  61.2691000  13.9617620
  81.3605270  62.9234990  11.1882980  81.7370090  62.0506870  11.0756650
  81.2624780  63.2593690  10.2973420  75.4910280  61.2960620   6.6500420
  75.5977030  62.1964350   6.9569180  74.5802640  61.2478590   6.3595070
  85.1429390  60.4185430   8.1211320  85.9639010  59.9282000   8.1636800
  85.1763470  61.0083090   8.8743160  73.1393440  63.2179630  11.8953010
  73.8203550  63.4818000  12.5140410  72.8241490  62.3780500  12.2291020
  77.3318010  64.2646990  10.9825600  77.8396230  64.7627960  11.6230620
  77.8631250  63.4882190  10.8064960  89.4328940  62.4352180  14.6854950
  88.7281110  62.8233890  14.1670060  89.6986860  63.1302470  15.2875880
  75.6154110  58.9045550  15.2489020  75.6172550  59.4217940  14.4434920
  74.7858420  58.4275730  15.2258950  82.0025200  69.0164860   6.7478920
  81.3842470  69.4814310   6.1841640  82.5148450  69.7092340   7.1648430
  76.8656960  68.5440730  13.4262520  76.5326340  69.1709650  14.0683590
  77.0423640  69.0702610  12.6464190  85.3790870  62.3585810  10.8938860
  84.6746440  62.6470700  11.4741970  85.7403030  63.1685920  10.5338420
  75.2969440  60.6155510  13.2559470  75.6386250  61.4597560  12.9613340
  74.3585250  60.7639250  13.3724810  76.0776060  70.5121530  15.2411700
  76.6950060  71.1872610  14.9596150  75.2169180  70.9209510  15.1499200
  71.3708400  69.7021390   4.1218550  70.9936380  70.1908490   3.3903450
  71.6281470  70.3746670   4.7525080  86.9953650  71.9760940  13.1566340
  86.3117170  72.6460050  13.1483010  87.5347940  72.1741590  12.3911200
  88.4477790  61.8040600  11.2848070  87.5002700  61.8379580  11.4163500
  88.7727780  62.6179550  11.6697430  78.9797330  58.1037780   9.5804060
  79.2872310  57.5484670   8.8639560  78.0498030  58.2382240   9.3977050
  84.5312390  73.8205070  11.8711520  84.5439550  73.4167360  11.0033780
  83.9787610  74.5952360  11.7672950  85.8257810  70.5421290   6.9601690
  85.7154140  69.5995620   7.0851110  85.8226060  70.9036930   7.8464450
  83.9297830  68.7234910  13.1994130  84.3466620  68.5095020  12.3647590
  84.6537650  68.9807700  13.7702750  81.3678090  66.1686610   6.3164180
  80.4407370  66.1023990   6.5452650  81.5202910  67.1066740   6.2019420
  81.3547170  62.4403610   3.3131340  80.4150840  62.6017570   3.3983800
  81.6730430  63.1589290   2.7667330  87.8759930  67.1222130  13.2910370
  87.0478560  67.1915220  12.8160500  88.4710410  67.7076440  12.8226200
  85.3975380  67.7306910   6.8199430  84.7787800  67.3926460   6.1725730
  85.3799830  67.0866670   7.5278620  84.8401940  63.9091450  14.2365240
  84.4273120  64.7345160  14.4905230  84.1077890  63.3236490  14.0441600
  76.9734730  66.6951350   9.0983910  76.5691730  65.9828600   8.6029810
  77.0597850  66.3504590   9.9871950  77.4416430  70.3818910  11.2623120
  77.1444720  69.7764380  10.5830900  78.3916250  70.4196220  11.1512480
  75.6863350  63.4694560  12.8782950  76.2377940  63.5789900  12.1036200
  76.2006860  63.8432160  13.5938180  85.5302040  73.9550780  14.9246220
  85.0532600  74.7622970  14.7318830  84.8463830  73.3029110  15.0772430
  76.5334860  70.1200600  17.9130920  75.6363390  70.3440570  18.1604320
  76.5587730  70.2435540  16.9642320  83.5740080  66.9693720   3.8272180
  84.0133360  66.1316150   3.6810000  84.2868500  67.6023120   3.9136320
  75.3606080  66.9913920  16.4888290  75.2213850  67.8636720  16.8575690
  74.4787440  66.6486730  16.3436230  81.6835460  71.9089790   7.7953420
  82.1231370  72.6514120   7.3808810  81.6222350  72.1516360   8.7192380
  77.1586430  72.9335620  18.6973440  77.1301860  73.3378570  17.8301870
  76.9951400  72.0045980  18.5345040  87.1557220  58.2236530   2.1413220
  86.8429880  58.3163360   3.0412290  87.9169690  58.8017560   2.0910650
  73.6739360  65.5896330   6.5990560  73.5536960  66.3158420   5.9871830
  73.3640250  64.8199240   6.1218470  89.1101250  73.7162720  19.9937610
  89.5860970  74.1945610  20.6726690  89.7308410  73.6480210  19.2683110
  71.3124730  68.7611470  12.4059200  71.3905150  68.8960240  11.4614920
  71.9266410  68.0527360  12.5987320  72.5572360  70.4611660   8.8165380
  72.1500440  70.6026250   7.9618980  73.4485370  70.1771820   8.6136590
  88.5134500  70.9075570  17.1537620  88.6397560  70.6687450  16.2354800
  88.5555880  70.0760110  17.6259700  82.3751240  74.6103570  15.7232430
  82.8895910  74.5211580  16.5254860  81.5320320  74.9563270  16.0160340
  84.3505640  74.8958910   5.1516430  84.1906780  74.6061850   6.0498260
  84.1852350  74.1199040   4.6161660  76.8294020  74.6757440   6.9288050
  76.6536500  73.7592980   6.7155850  75.9749760  75.0344730   7.1685850
  84.0531770  72.4046470   3.7114430  83.3596930  72.4023760   3.0516710
  84.7954630  71.9805790   3.2808600  83.6181700  74.0309180   7.7862920
  84.0738650  73.2498560   8.1001540  83.9574220  74.7416000   8.3304100
  88.3658510  62.9608030  18.1187360  87.7502780  63.4687700  17.5902820
  88.0454930  62.0606360  18.0613300  71.3684250  69.8025640  14.9453660
  71.5315290  69.3331000  14.1273030  71.8336700  69.2949200  15.6102500
  76.1403020  58.9331400   9.9814230  75.6971170  59.7140940   9.6498750
  76.6988010  59.2561290  10.6885170  80.4272830  61.7999920  15.5849550
  79.9652200  62.0082940  16.3969490  80.0250940  60.9859270  15.2820220
  85.4277340  63.0208870  16.7146210  84.5770930  62.7214620  17.0355280
  85.2679130  63.2650880  15.8030030  82.5227050  64.5210620  18.8145000
  82.8480460  63.6874370  18.4747230  83.3107380  65.0439140  18.9623330
  79.2561840  58.5542100   4.8620060  78.6316020  58.5501970   5.5873370
  79.1691960  57.6873060   4.4656030  78.1778920  59.4778730  11.8403830
  78.4751250  60.3841560  11.7595850  78.7264480  58.9897510  11.2263400
  75.9317240  64.0564970   7.7095480  75.7058160  63.8402140   8.6142100
  75.1509770  64.4893430   7.3641450  83.1615000  64.0628340   6.3086130
  82.5623890  64.7864140   6.1249750  83.7094610  64.0005120   5.5262580
  78.3716450  64.9550550  18.3755750  78.2760050  64.0145280  18.2256150
  79.2148430  65.1765620  17.9803820  81.7679870  62.6991880   8.3389410
  82.1609440  63.0164080   7.5258100  82.1296720  61.8203760   8.4533930
  73.5026990  61.3664220  16.5289530  73.1090380  62.2139430  16.7362310
  72.8145390  60.7290590  16.7198170  80.0772040  61.4499190  19.5986270
  79.3870360  61.2571390  20.2332360  80.8204340  61.7333830  20.1310570
  70.8044040  59.2892680  10.5619610  70.5157090  59.8595540  11.2744590
  71.5489800  58.8097130  10.9250840  82.3535010  65.2897630  12.4340190
  81.6216130  65.7984440  12.7830290  81.9559350  64.4727610  12.1328970
  78.7912400  61.9651830  10.8392680  78.7948460  61.5241780   9.9897220
  79.6863520  62.2869160  10.9464500  74.6414780  61.8478320   9.7986890
  74.3014830  62.3253550  10.5553940  73.8792100  61.3943440   9.4387990
  78.8532550  62.9663910   3.8299440  78.9745370  62.9250390   4.7785260
  78.4681060  63.8288060   3.6746170  82.8160920  60.7431310  11.8463130
  82.8333660  61.1939960  12.6904980  82.5676500  59.8436950  12.0596570
  77.8654050  65.2765050   3.2282740  77.2970950  64.8283300   2.6018650
  78.5743050  65.6357830   2.6947890  86.2431670  58.1563490  17.6849510
  86.5677440  57.4253150  18.2107490  86.2788180  57.8377130  16.7830500
  72.9423230  69.1777070  17.1049470  72.5578020  68.5370740  17.7032430
  73.2535420  69.8813190  17.6744200  79.0920370  66.0253610  12.5858090
  79.4590500  65.5512180  13.3319430  78.9025430  66.8995180  12.9266430
  71.9560860  60.7697300   8.7151560  71.6707780  60.4052970   9.5530180
  71.8939720  60.0377760   8.1014700  76.8819740  65.0662250  14.9042300
  76.5776810  65.9454230  15.1292660  77.8366200  65.1262040  14.9399740
  75.4101530  69.2723240   5.5009150  74.6363790  68.7320860   5.3407870
  76.1396160  68.7529850   5.1626910  86.1689510  68.2688600  11.2935540
  86.8888630  68.7643890  10.9031650  85.9671330  67.5906490  10.6489410
  81.6299450  59.6626560   5.4364930  80.8164060  59.1639730   5.3610240
  81.4361400  60.5024810   5.0201280  81.5508310  68.3397660  17.1804540
  81.4845620  67.4193330  16.9262130  80.9213450  68.4373100  17.8949180
  84.3447840  64.0346210   3.7327090  85.2327460  64.3463440   3.5578430
  84.3152930  63.1618460   3.3407670  75.4538930  68.9403620   9.1387960
  75.9717600  68.1371880   9.0844850  75.0022950  68.8782760   9.9804790
  80.3408430  70.2069900   4.4115260  80.6824130  70.9512130   3.9158580
  79.5121140  70.5201020   4.7740090  72.9383470  65.9064990  16.0513660
  72.5798410  66.5718840  16.6387000  72.6438030  65.0748540  16.4226280
  76.1396590  66.3649230  18.9353210  75.8396730  66.5106410  18.0381030
  76.9107830  65.8054520  18.8426600  81.4825040  71.1618230  16.9308340
  81.4969580  70.2299190  16.7127250  80.7750140  71.2477990  17.5698110
  86.6162110  65.3458050   3.2006950  86.5325830  65.7772270   2.3503390
  87.3356300  65.8056400   3.6333770  87.6936250  67.8025570  16.2776920
  86.9684440  68.3954350  16.0806310  88.2211710  67.7949110  15.4790290
  87.6449360  72.2000310   5.9289080  87.0025520  71.5455930   6.2032800
  87.2580020  72.6055400   5.1529750  83.2235840  69.5285740   9.7760770
  83.5759660  68.9313870   9.1162140  82.3398170  69.2029970   9.9469020
  79.3099120  70.2883430   7.1831180  79.9970250  70.8352640   7.5638770
  78.5231540  70.8324160   7.2180790  71.4491520  65.9056250   2.6748260
  72.3186370  66.1881050   2.9584180  70.9581840  66.7192120   2.5597070
  78.6126330  67.2929460   6.7956540  79.0689110  68.1034710   7.0216730
  78.2614540  66.9752600   7.6275030  80.9158940  72.8035800  14.0248840
  81.5601160  73.0095180  14.7022260  81.2788380  72.0424200  13.5719690
  74.5138110  57.6367110   7.2679060  74.3852740  57.6285010   8.2163980
  73.6900130  57.9750200   6.9170070  82.1891020  70.8068150  12.7426290
  82.8313250  70.1061310  12.8558460  82.7140370  71.5866590  12.5623180
  86.0346740  71.0916770   2.4665430  85.8084320  70.3747210   3.0590070
  85.6442940  70.8429210   1.6287180  83.9628640  71.6063050  15.9462350
  84.2984880  72.1929740  16.6240270  83.0428980  71.4755760  16.1760140
  71.8162770  75.1183630   3.2409890  72.1760410  75.7172970   2.5867160
  71.6755110  75.6643520   4.0144920  71.5132040  59.3958230  16.7285760
  70.7990560  59.5955150  17.3338370  71.9327080  58.6197800  17.1000560
  85.6162990  69.0088710   4.1279590  85.3284690  69.4701400   4.9157470
  86.4115160  68.5486480   4.3963810  71.8004630  73.3838490  17.7152290
  71.9095750  72.4433230  17.5747680  71.1485190  73.6493240  17.0666020
  79.7917220  71.6554380  19.1150410  79.4714090  70.9363620  19.6596100
  79.1175580  72.3309450  19.1886470  77.8331390  72.5014830   4.0583560
  77.8241490  73.2344520   3.4428070  76.9129750  72.2546410   4.1510520
  73.4338030  67.7229720   4.8030320  72.8265980  68.4628620   4.8125620
  73.9087380  67.8129080   3.9768520  83.0070820  61.8880540  14.4787210
  83.3751640  61.0675750  14.8066780  82.1469020  61.9482430  14.8942860
  86.3732850  60.8437480   5.2874770  85.7446010  60.9483150   4.5733000
  85.8784770  61.0634260   6.0768650  80.8190990  72.5643070   2.7208750
  80.9202970  72.3607060   1.7910730  79.9192730  72.3101350   2.9256530
  78.3416880  63.1223430   6.7032650  77.6333030  63.5909770   7.1446260
  78.6261360  62.4645440   7.3377840  79.9672810  64.5420130  14.7025180
  80.4658060  65.0165950  15.3677030  80.1095760  63.6183650  14.9095210
  82.3732310  59.8474090   8.1428440  82.2500090  59.8660220   7.1937950
  83.3216870  59.8953030   8.2626840  79.4609100  75.0829390   7.4156420
  79.7150600  75.0450780   6.4935790  78.5121580  74.9562720   7.4084670
  76.5451900  61.4308510   4.0783360  77.3942430  61.8678660   4.0123550
  76.1783170  61.7428770   4.9055420  87.1739670  60.7588090  15.5453570
  86.6713270  61.4993490  15.8847380  87.9896330  61.1472090  15.2290360
  85.4661680  66.0021270   8.9914930  84.5251820  66.0171500   9.1662620
  85.7805750  65.2157230   9.4375230  75.4443320  67.6840870   2.5518890
  76.2106590  67.5722230   3.1144320  75.5218010  66.9878840   1.8995660
  74.1390080  65.1165940   3.2351780  74.2193670  64.1693450   3.3469180
  75.0309830  65.4472820   3.3412440  87.4687260  73.1730120  10.6669190
  87.5934680  73.9961290  11.1393000  88.3352820  72.9620850  10.3193340
  74.9404790  75.2661330  10.3386320  75.6767270  74.7176790  10.6094890
  75.3245710  76.1317340  10.1992310  71.8250270  71.3334900   6.2127830
  70.8990050  71.5756040   6.2033240  72.2906700  72.1609160   6.0912580
  73.9463070  74.4507400  19.5271900  74.7475800  74.7719450  19.9407300
  73.4314890  74.0902980  20.2491810  82.7827700  70.5587270  19.4747310
  82.1765860  70.5818870  18.7343060  82.4781810  69.8270310  20.0114560
  84.2128070  74.2867560  18.0856720  85.1649820  74.2025580  18.0356960
  84.0656290  74.9509270  18.7590510  87.1037270  73.6661770   3.5848630
  86.8178780  73.2526910   2.7702810  86.9056820  74.5949480   3.4649150
  71.6660880  66.9380860  18.4707950  72.1699900  66.3588140  19.0424180
  70.9268300  67.2221090  19.0084320  78.7198820  68.3451850  18.0043470
  77.9544490  68.9136850  17.9198140  78.9014780  68.0528060  17.1111700
  81.8087230  68.7215080   2.6296230  81.2597330  69.1684380   3.2738970
  82.4306490  68.2164330   3.1533900  85.8622170  70.0757180  18.5618490
  86.6031640  70.4132940  18.0585950  85.0994850  70.2449240  18.0088260
  73.6983960  65.0810450  19.3658020  73.7389300  64.7824320  20.2743250
  74.5529460  65.4818060  19.2065540  77.4762350  67.6806000   4.5261530
  77.8978770  67.5145870   5.3692920  77.6013190  66.8706230   4.0316670
  75.6389770  63.6602550  17.3332510  75.1086230  63.1693500  16.7055850
  76.3077840  64.0886750  16.7990440  84.5367830  68.1272010  17.0973700
  84.9508850  68.2817090  17.9464120  83.6018830  68.2527230  17.2599480
  85.0090000  65.4668170  19.1012850  85.5910770  64.7120490  19.0133330
  85.1851770  65.9975610  18.3244330  76.1262070  60.6264920  17.4129800
  76.0318940  60.0085670  16.6880670  75.5459460  61.3531210  17.1859710
  78.8923510  59.1838160  14.4457190  78.4440810  59.2062420  13.6002740
  78.2588710  58.7857180  15.0427490  79.2983060  68.0792490  15.0669630
  79.7171170  68.9225220  14.8945870  78.3791690  68.2164530  14.8376410
  81.6346960  65.8108670  16.4507470  81.7543170  65.2149810  17.1902310
  82.4940960  65.8478360  16.0308770  83.9734860  66.3645860  15.0269980
  83.4470080  66.8888480  14.4235120  84.3166200  66.9973250  15.6579710
  77.1490480  74.3845500  16.1827360  76.6111570  75.1091560  15.8636060
  77.4024440  73.9075840  15.3924700  78.4015730  62.3530020  17.7083290
  78.9915420  62.0445870  18.3961110  77.5835970  61.8809770  17.8643190
  83.2209160  61.9695830  17.9416310  82.5324680  61.3077370  17.8766300
  83.9415180  61.5234100  18.3864770  83.8509560  58.5647460   4.0006570
  84.1311850  57.7215360   4.3565990  83.0775290  58.7970570   4.5145320
  80.0052690  75.6196710  16.4414010  79.9311390  76.5231850  16.7486380
  79.1031530  75.3008610  16.4136080  78.3888980  59.7974470   2.4453770
  78.0410980  59.1198460   1.8656220  78.5901750  59.3363980   3.2597160
  80.5538020  74.7855220   4.0640370  81.4488810  75.1240190   4.0859130
  80.5855650  74.0634630   3.4364650  74.1934180  70.1582270   2.2927370
  74.6309050  70.7011940   2.9484950  74.6781910  69.3329220   2.3023710
  71.4079980  72.9471300   9.7447630  71.7382990  72.0792360   9.5126270
  71.8370980  73.1529820  10.5752590  76.0041900  71.2780310   7.4049600
  75.7037440  71.1545280   8.3053510  75.8979390  70.4188900   6.9965330
  71.8970190  73.8141890  12.4829260  71.4601180  73.9942690  13.3153410
  72.4647870  74.5716510  12.3410980  87.5332370  73.3158890  16.7706570
  86.9334360  73.3751450  16.0270490  87.6626270  72.3763870  16.9003420
  88.7733820  71.0576710   2.1076280  87.9426780  71.1253360   2.5783510
  88.9505650  71.9480830   1.8043140  88.2290280  67.8024190   4.6110480
  88.9909190  68.3720840   4.7170170  88.2444650  67.2351390   5.3818790
  71.7294620  66.3262120   8.8418140  71.0743460  66.0573760   8.1977840
  72.5672570  66.2166600   8.3920120  89.2350250  68.6574290   9.4552410
  89.6059080  67.8741610   9.0488380  89.8752180  69.3463390   9.2769710
  86.2184010  70.0410870  14.8682730  85.4043850  70.4708030  15.1308520
  86.6258210  70.6529280  14.2551780  88.2809450  68.0958560   1.7683000
  88.5558290  69.0037440   1.6402220  88.0920190  68.0321090   2.7044990
  84.6785060  61.1203410   3.0636630  85.0969940  60.9334390   2.2233290
  84.3721120  60.2682460   3.3739560  88.1774790  66.0327550   6.7612430
  87.8018390  65.2655480   6.3293720  87.4477910  66.4150250   7.2487360
  72.7670550  66.7114690  13.3821480  73.1343590  66.6242090  14.2617500
  72.1981370  65.9481240  13.2828340  87.5674410  65.1799070  16.3951950
  87.3360500  64.9511820  15.4949900  87.8278960  66.0998620  16.3496840
  72.3186550  63.6223780  17.2879900  71.4242600  63.5890540  17.6273610
  72.8584100  63.8210570  18.0531150  86.0062480  60.4055500  19.1731650
  86.8832660  60.4138900  19.5565650  86.0183320  59.6686340  18.5624000
  70.9432700  63.5361050   4.7843470  70.0396780  63.7991250   4.6095130
  71.4273320  63.8072220   4.0043430  87.4525750  64.2585040  10.0619670
  87.9763230  63.7647690   9.4309840  88.0385170  64.3935400  10.8067240
  87.6315470  64.3424910  13.5839220  86.6818180  64.3088450  13.6984210
  87.8128480  65.2525020  13.3488990  73.4859910  62.5926590   2.6937850
  74.1951610  62.1709810   2.2085130  72.7699850  62.6601820   2.0621200
  86.9425720  63.5158390   6.0012080  87.4384840  63.2829260   6.7860960
  86.7441790  62.6770230   5.5849720  72.8226260  57.8972110  11.6363120
  73.4702450  57.3469490  11.1958280  73.2428100  58.1515260  12.4578930
  88.3712880  62.1519340   8.5349760  88.2612160  61.9975380   9.4732030
  89.1320470  61.6240280   8.2925170  86.7178600  58.0913470  14.9932760
  87.3550820  58.7047610  15.3591950  86.8653490  58.1274130  14.0481990
  89.2603150  59.9827260   1.7755900  90.1852460  59.8508440   1.5674190
  89.2378940  60.0620080   2.7292350  89.3341640  60.7537920   4.4012610
  88.5393140  60.6883040   4.9305520  89.5384920  61.6888560   4.3897960
  86.2760060  74.7929470   8.3951000  86.8719130  74.4714040   7.7185420
  86.5338210  74.3201290   9.1864270  72.5758260  58.0527780  14.3788440
  72.2273080  58.5091600  15.1446620  72.2445960  57.1584910  14.4610870
  74.1822630  71.2247380  18.5441630  74.1392260  70.8540290  19.4256090
  74.3133640  72.1624950  18.6843450  77.8828660  72.7806970  14.1451350
  77.6420020  73.0481530  13.2581870  78.8231300  72.9512700  14.2002210
  80.0883080  59.2439660  17.9007860  80.0271970  59.8361490  18.6503270
  81.0283460  59.1365620  17.7558120  82.7257640  58.9009720  17.5400150
  83.3398050  59.2189010  16.8781230  83.2707200  58.4158310  18.1596010
  89.1432820  74.8001350  14.9461990  88.6491100  75.1970220  14.2289120
  88.5346110  74.1750560  15.3399270  73.2478900  57.5803980  17.6539210
  73.7961890  57.3992030  16.8905320  73.3134210  56.7898090  18.1895520
  74.0210660  74.1709630  15.6639410  73.4270980  74.0394330  16.4029450
  74.0134500  73.3347770  15.1981510  83.4665680  57.4641860  13.8669440
  82.5925520  57.7976970  13.6642370  83.3576430  56.9915040  14.6921310
  84.3737660  59.6712730  15.2511160  84.0451020  58.8564490  14.8712890
  85.3219960  59.6282540  15.1276850  86.8272270  75.4424770  12.2248730
  86.3675240  76.1940580  11.8506750  86.1984730  74.7231240  12.1663530
  73.6522890  71.5368010  14.6147450  72.9256950  70.9173300  14.5473400
  73.7132040  71.9308620  13.7445530  77.2567990  73.7513010  11.3996860
  77.7733010  73.1400370  10.8745120  77.9065370  74.2541790  11.8907870
  79.9963490  74.6421500  12.2265840  80.2841300  74.3875800  11.3498850
  80.5086710  74.0898860  12.8171410  81.2140500  58.3811700  12.8062350
  80.4312290  58.8557200  13.0859110  80.9203430  57.4766530  12.6975530
  85.7661570  59.0834800  10.8511440  86.2069660  59.0279900  10.0033040
  85.4969160  59.9992810  10.9221620  87.6300140  58.7150040   8.8620260
  87.5688540  57.7711260   8.7151280  88.4092170  58.8230130   9.4073720
  71.9352890  74.8542400   7.8244210  71.7674930  74.2213080   8.5226100
  71.0687400  75.0601800   7.4738400  72.5580910  58.6859180   5.3276070
  73.3160270  58.7988060   4.7540100  72.0958080  59.5228380   5.2819500
  79.0994720  60.7998450   8.3178380  78.2869230  60.4255340   7.9774260
  79.6036360  60.0443530   8.6199570  83.6019700  57.4640900   9.5561450
  84.2049070  58.0361110  10.0309970  82.8612690  58.0280340   9.3335350
  86.7454300  57.8662460   4.8301730  86.9404930  58.7645910   5.0969160
  85.9584170  57.6349540   5.3234680  73.5415590  73.5475630   5.2694350
  73.0163210  73.9283660   4.5656310  73.4660170  74.1726400   5.9904060
  74.9306060  59.2123230   3.8678040  75.4598820  58.4253030   3.7385990
  75.5634380  59.8914420   4.1013570  77.1243900  58.9498370   6.9223430
  76.4946640  58.2485680   7.0893560  76.5849040  59.7102500   6.7056590
  80.0635850  75.5637600  19.5934040  80.9903160  75.3281870  19.6370000
  80.0486280  76.3909600  19.1120070  88.2980910  75.1063170   6.5908290
  88.4733100  74.4200910   5.9469210  87.6002480  75.6310220   6.1984960
  77.2499460  58.2282350  19.3575920  76.9683730  58.7315950  18.5936740
  77.6319160  57.4304100  18.9918050  76.1408560  75.4958010   4.1443600
  76.8727380  75.2117290   3.5967490  76.4002230  75.2571290   5.0342980
  75.3023350  71.6122740   4.1489930  74.6732230  72.0807840   4.6975760
  75.4171180  70.7671960   4.5836120  83.8514920  57.6435930  19.9356390
  83.7380370  57.9630540  20.8307910  84.6684660  58.0448440  19.6393670
  86.6313410  74.7907460  19.4175080  87.4238730  74.2956690  19.2101040
  86.9246560  75.4697600  20.0250690  82.7573070  46.8884910  65.3965090
  82.6767120  45.9739520  65.1256800  82.3437490  47.3851980  64.6904800
  80.8891110  48.6663930  67.2774360  80.1133210  48.1864370  67.5672930
  81.5404040  47.9869580  67.1030520  74.9056940  48.9783740  68.1550120
  74.0741820  48.7232450  68.5546630  75.5137920  49.0494510  68.8908040
  84.9098540  53.0724120  66.0573490  84.4480070  52.3011360  66.3860660
  85.7224090  53.0990190  66.5625940  74.8858200  53.0123830  68.3508140
  75.1886240  52.1221570  68.1718360  75.6301790  53.5694050  68.1230390
  73.3148890  43.9385630  61.9392510  72.4265590  44.2801600  61.8372390
  73.5990080  43.7385950  61.0473340  71.2781900  46.5391280  67.8232210
  71.8498010  45.7713480  67.8235850  71.2783440  46.8380040  66.9138820
  81.1361850  55.3582130  65.6777480  80.5173290  55.8139630  65.1071920
  81.9913630  55.5133590  65.2767180  80.3300100  51.3421120  67.2844520
  80.2608380  50.4011060  67.1233650  81.0919960  51.4322530  67.8567090
  72.5206770  41.9475640  69.6101140  72.3409610  41.0501390  69.8903900
  72.1186850  42.4947510  70.2848090  81.3605270  44.1491500  67.5113450
  81.7370090  43.2763380  67.3987120  81.2624780  44.4850200  66.6203890
  75.4910280  42.5217130  62.9730890  75.5977030  43.4220860  63.2799650
  74.5802640  42.4735100  62.6825540  85.1429390  41.6441940  64.4441790
  85.9639010  41.1538510  64.4867270  85.1763470  42.2339600  65.1973630
  73.1393440  44.4436140  68.2183480  73.8203550  44.7074510  68.8370880
  72.8241490  43.6037010  68.5521490  77.3318010  45.4903500  67.3056070
  77.8396230  45.9884470  67.9461090  77.8631250  44.7138700  67.1295430
  89.4328940  43.6608690  71.0085420  88.7281110  44.0490400  70.4900530
  89.6986860  44.3558980  71.6106350  75.6154110  40.1302060  71.5719490
  75.6172550  40.6474450  70.7665390  74.7858420  39.6532240  71.5489420
  82.0025200  50.2421370  63.0709390  81.3842470  50.7070820  62.5072110
  82.5148450  50.9348850  63.4878900  76.8656960  49.7697240  69.7492990
  76.5326340  50.3966160  70.3914060  77.0423640  50.2959120  68.9694660
  85.3790870  43.5842320  67.2169330  84.6746440  43.8727210  67.7972440
  85.7403030  44.3942430  66.8568890  75.2969440  41.8412020  69.5789940
  75.6386250  42.6854070  69.2843810  74.3585250  41.9895760  69.6955280
  76.0776060  51.7378040  71.5642170  76.6950060  52.4129120  71.2826620
  75.2169180  52.1466020  71.4729670  71.3708400  50.9277900  60.4449020
  70.9936380  51.4165000  59.7133920  71.6281470  51.6003180  61.0755550
  86.9953650  53.2017450  69.4796810  86.3117170  53.8716560  69.4713480
  87.5347940  53.3998100  68.7141670  88.4477790  43.0297110  67.6078540
  87.5002700  43.0636090  67.7393970  88.7727780  43.8436060  67.9927900
  78.9797330  39.3294290  65.9034530  79.2872310  38.7741180  65.1870030
  78.0498030  39.4638750  65.7207520  84.5312390  55.0461580  68.1941990
  84.5439550  54.6423870  67.3264250  83.9787610  55.8208870  68.0903420
  85.8257810  51.7677800  63.2832160  85.7154140  50.8252130  63.4081580
  85.8226060  52.1293440  64.1694920  83.9297830  49.9491420  69.5224600
  84.3466620  49.7351530  68.6878060  84.6537650  50.2064210  70.0933220
  81.3678090  47.3943120  62.6394650  80.4407370  47.3280500  62.8683120
  81.5202910  48.3323250  62.5249890  81.3547170  43.6660120  59.6361810
  80.4150840  43.8274080  59.7214270  81.6730430  44.3845800  59.0897800
  87.8759930  48.3478640  69.6140840  87.0478560  48.4171730  69.1390970
  88.4710410  48.9332950  69.1456670  85.3975380  48.9563420  63.1429900
  84.7787800  48.6182970  62.4956200  85.3799830  48.3123180  63.8509090
  84.8401940  45.1347960  70.5595710  84.4273120  45.9601670  70.8135700
  84.1077890  44.5493000  70.3672070  76.9734730  47.9207860  65.4214380
  76.5691730  47.2085110  64.9260280  77.0597850  47.5761100  66.3102420
  77.4416430  51.6075420  67.5853590  77.1444720  51.0020890  66.9061370
  78.3916250  51.6452730  67.4742950  75.6863350  44.6951070  69.2013420
  76.2377940  44.8046410  68.4266670  76.2006860  45.0688670  69.9168650
  85.5302040  55.1807290  71.2476690  85.0532600  55.9879480  71.0549300
  84.8463830  54.5285620  71.4002900  76.5334860  51.3457110  74.2361390
  75.6363390  51.5697080  74.4834790  76.5587730  51.4692050  73.2872790
  83.5740080  48.1950230  60.1502650  84.0133360  47.3572660  60.0040470
  84.2868500  48.8279630  60.2366790  75.3606080  48.2170430  72.8118760
  75.2213850  49.0893230  73.1806160  74.4787440  47.8743240  72.6666700
  81.6835460  53.1346300  64.1183890  82.1231370  53.8770630  63.7039280
  81.6222350  53.3772870  65.0422850  77.1586430  54.1592130  75.0203910
  77.1301860  54.5635080  74.1532340  76.9951400  53.2302490  74.8575510
  87.1557220  39.4493040  58.4643690  86.8429880  39.5419870  59.3642760
  87.9169690  40.0274070  58.4141120  73.6739360  46.8152840  62.9221030
  73.5536960  47.5414930  62.3102300  73.3640250  46.0455750  62.4448940
  71.3124730  49.9867980  68.7289670  71.3905150  50.1216750  67.7845390
  71.9266410  49.2783870  68.9217790  72.5572360  51.6868170  65.1395850
  72.1500440  51.8282760  64.2849450  73.4485370  51.4028330  64.9367060
  88.5134500  52.1332080  73.4768090  88.6397560  51.8943960  72.5585270
  88.5555880  51.3016620  73.9490170  82.3751240  55.8360080  72.0462900
  82.8895910  55.7468090  72.8485330  81.5320320  56.1819780  72.3390810
  84.3505640  56.1215420  61.4746900  84.1906780  55.8318360  62.3728730
  84.1852350  55.3455550  60.9392130  76.8294020  55.9013950  63.2518520
  76.6536500  54.9849490  63.0386320  75.9749760  56.2601240  63.4916320
  84.0531770  53.6302980  60.0344900  83.3596930  53.6280270  59.3747180
  84.7954630  53.2062300  59.6039070  83.6181700  55.2565690  64.1093390
  84.0738650  54.4755070  64.4232010  83.9574220  55.9672510  64.6534570
  88.3658510  44.1864540  74.4417830  87.7502780  44.6944210  73.9133290
  88.0454930  43.2862870  74.3843770  71.3684250  51.0282150  71.2684130
  71.5315290  50.5587510  70.4503500  71.8336700  50.5205710  71.9332970
  76.1403020  40.1587910  66.3044700  75.6971170  40.9397450  65.9729220
  76.6988010  40.4817800  67.0115640  80.4272830  43.0256430  71.9080020
  79.9652200  43.2339450  72.7199960  80.0250940  42.2115780  71.6050690
  85.4277340  44.2465380  73.0376680  84.5770930  43.9471130  73.3585750
  85.2679130  44.4907390  72.1260500  82.5227050  45.7467130  75.1375470
  82.8480460  44.9130880  74.7977700  83.3107380  46.2695650  75.2853800
  79.2561840  39.7798610  61.1850530  78.6316020  39.7758480  61.9103840
  79.1691960  38.9129570  60.7886500  78.1778920  40.7035240  68.1634300
  78.4751250  41.6098070  68.0826320  78.7264480  40.2154020  67.5493870
  75.9317240  45.2821480  64.0325950  75.7058160  45.0658650  64.9372570
  75.1509770  45.7149940  63.6871920  83.1615000  45.2884850  62.6316600
  82.5623890  46.0120650  62.4480220  83.7094610  45.2261630  61.8493050
  78.3716450  46.1807060  74.6986220  78.2760050  45.2401790  74.5486620
  79.2148430  46.4022130  74.3034290  81.7679870  43.9248390  64.6619880
  82.1609440  44.2420590  63.8488570  82.1296720  43.0460270  64.7764400
  73.5026990  42.5920730  72.8520000  73.1090380  43.4395940  73.0592780
  72.8145390  41.9547100  73.0428640  70.8044040  40.5149190  66.8850080
  70.5157090  41.0852050  67.5975060  71.5489800  40.0353640  67.2481310
  70.9914270  44.4569310  58.0952800  70.9088940  45.4000070  58.2367790
  70.6397330  44.3144220  57.2165150  82.3535010  46.5154140  68.7570660
  81.6216130  47.0240950  69.1060760  81.9559350  45.6984120  68.4559440
  78.7912400  43.1908340  67.1623150  78.7948460  42.7498290  66.3127690
  79.6863520  43.5125670  67.2694970  74.6414780  43.0734830  66.1217360
  74.3014830  43.5510060  66.8784410  73.8792100  42.6199950  65.7618460
  78.8532550  44.1920420  60.1529910  78.9745370  44.1506900  61.1015730
  78.4681060  45.0544570  59.9976640  82.8160920  41.9687820  68.1693600
  82.8333660  42.4196470  69.0135450  82.5676500  41.0693460  68.3827040
  77.8654050  46.5021560  59.5513210  77.2970950  46.0539810  58.9249120
  78.5743050  46.8614340  59.0178360  86.2431670  39.3820000  74.0079980
  86.5677440  38.6509660  74.5337960  86.2788180  39.0633640  73.1060970
  72.9423230  50.4033580  73.4279940  72.5578020  49.7627250  74.0262900
  73.2535420  51.1069700  73.9974670  79.0920370  47.2510120  68.9088560
  79.4590500  46.7768690  69.6549900  78.9025430  48.1251690  69.2496900
  71.9560860  41.9953810  65.0382030  71.6707780  41.6309480  65.8760650
  71.8939720  41.2634270  64.4245170  76.8819740  46.2918760  71.2272770
  76.5776810  47.1710740  71.4523130  77.8366200  46.3518550  71.2630210
  75.4101530  50.4979750  61.8239620  74.6363790  49.9577370  61.6638340
  76.1396160  49.9786360  61.4857380  86.1689510  49.4945110  67.6166010
  86.8888630  49.9900400  67.2262120  85.9671330  48.8163000  66.9719880
  81.6299450  40.8883070  61.7595400  80.8164060  40.3896240  61.6840710
  81.4361400  41.7281320  61.3431750  81.5508310  49.5654170  73.5035010
  81.4845620  48.6449840  73.2492600  80.9213450  49.6629610  74.2179650
  84.3447840  45.2602720  60.0557560  85.2327460  45.5719950  59.8808900
  84.3152930  44.3874970  59.6638140  75.4538930  50.1660130  65.4618430
  75.9717600  49.3628390  65.4075320  75.0022950  50.1039270  66.3035260
  80.3408430  51.4326410  60.7345730  80.6824130  52.1768640  60.2389050
  79.5121140  51.7457530  61.0970560  72.9383470  47.1321500  72.3744130
  72.5798410  47.7975350  72.9617470  72.6438030  46.3005050  72.7456750
  76.1396590  47.5905740  75.2583680  75.8396730  47.7362920  74.3611500
  76.9107830  47.0311030  75.1657070  81.4825040  52.3874740  73.2538810
  81.4969580  51.4555700  73.0357720  80.7750140  52.4734500  73.8928580
  86.6162110  46.5714560  59.5237420  86.5325830  47.0028780  58.6733860
  87.3356300  47.0312910  59.9564240  87.6936250  49.0282080  72.6007390
  86.9684440  49.6210860  72.4036780  88.2211710  49.0205620  71.8020760
  87.6449360  53.4256820  62.2519550  87.0025520  52.7712440  62.5263270
  87.2580020  53.8311910  61.4760220  83.2235840  50.7542250  66.0991240
  83.5759660  50.1570380  65.4392610  82.3398170  50.4286480  66.2699490
  79.3099120  51.5139940  63.5061650  79.9970250  52.0609150  63.8869240
  78.5231540  52.0580670  63.5411260  71.4491520  47.1312760  58.9978730
  72.3186370  47.4137560  59.2814650  70.9581840  47.9448630  58.8827540
  78.6126330  48.5185970  63.1187010  79.0689110  49.3291220  63.3447200
  78.2614540  48.2009110  63.9505500  80.9158940  54.0292310  70.3479310
  81.5601160  54.2351690  71.0252730  81.2788380  53.2680710  69.8950160
  74.5138110  38.8623620  63.5909530  74.3852740  38.8541520  64.5394450
  73.6900130  39.2006710  63.2400540  82.1891020  52.0324660  69.0656760
  82.8313250  51.3317820  69.1788930  82.7140370  52.8123100  68.8853650
  86.0346740  52.3173280  58.7895900  85.8084320  51.6003720  59.3820540
  85.6442940  52.0685720  57.9517650  83.9628640  52.8319560  72.2692820
  84.2984880  53.4186250  72.9470740  83.0428980  52.7012270  72.4990610
  71.8162770  56.3440140  59.5640360  72.1760410  56.9429480  58.9097630
  71.6755110  56.8900030  60.3375390  71.5132040  40.6214740  73.0516230
  70.7990560  40.8211660  73.6568840  71.9327080  39.8454310  73.4231030
  85.6162990  50.2345220  60.4510060  85.3284690  50.6957910  61.2387940
  86.4115160  49.7742990  60.7194280  71.8004630  54.6095000  74.0382760
  71.9095750  53.6689740  73.8978150  71.1485190  54.8749750  73.3896490
  79.7917220  52.8810890  75.4380880  79.4714090  52.1620130  75.9826570
  79.1175580  53.5565960  75.5116940  77.8331390  53.7271340  60.3814030
  77.8241490  54.4601030  59.7658540  76.9129750  53.4802920  60.4740990
  73.4338030  48.9486230  61.1260790  72.8265980  49.6885130  61.1356090
  73.9087380  49.0385590  60.2998990  83.0070820  43.1137050  70.8017680
  83.3751640  42.2932260  71.1297250  82.1469020  43.1738940  71.2173330
  86.3732850  42.0693990  61.6105240  85.7446010  42.1739660  60.8963470
  85.8784770  42.2890770  62.3999120  80.8190990  53.7899580  59.0439220
  80.9202970  53.5863570  58.1141200  79.9192730  53.5357860  59.2487000
  78.3416880  44.3479940  63.0263120  77.6333030  44.8166280  63.4676730
  78.6261360  43.6901950  63.6608310  79.9672810  45.7676640  71.0255650
  80.4658060  46.2422460  71.6907500  80.1095760  44.8440160  71.2325680
  82.3732310  41.0730600  64.4658910  82.2500090  41.0916730  63.5168420
  83.3216870  41.1209540  64.5857310  79.4609100  56.3085900  63.7386890
  79.7150600  56.2707290  62.8166260  78.5121580  56.1819230  63.7315140
  76.5451900  42.6565020  60.4013830  77.3942430  43.0935170  60.3354020
  76.1783170  42.9685280  61.2285890  87.1739670  41.9844600  71.8684040
  86.6713270  42.7250000  72.2077850  87.9896330  42.3728600  71.5520830
  85.4661680  47.2277780  65.3145400  84.5251820  47.2428010  65.4893090
  85.7805750  46.4413740  65.7605700  75.4443320  48.9097380  58.8749360
  76.2106590  48.7978740  59.4374790  75.5218010  48.2135350  58.2226130
  74.1390080  46.3422450  59.5582250  74.2193670  45.3949960  59.6699650
  75.0309830  46.6729330  59.6642910  87.4687260  54.3986630  66.9899660
  87.5934680  55.2217800  67.4623470  88.3352820  54.1877360  66.6423810
  74.9404790  56.4917840  66.6616790  75.6767270  55.9433300  66.9325360
  75.3245710  57.3573850  66.5222780  71.8250270  52.5591410  62.5358300
  70.8990050  52.8012550  62.5263710  72.2906700  53.3865670  62.4143050
  78.0507100  55.6648150  58.4842360  78.8435710  55.9536980  58.0324150
  77.5311450  55.2340320  57.8054840  84.2128070  55.5124070  74.4087190
  85.1649820  55.4282090  74.3587430  84.0656290  56.1765780  75.0820980
  87.1037270  54.8918280  59.9079100  86.8178780  54.4783420  59.0933280
  86.9056820  55.8205990  59.7879620  71.6660880  48.1637370  74.7938420
  72.1699900  47.5844650  75.3654650  70.9268300  48.4477600  75.3314790
  78.5684500  50.8851560  58.3484710  78.4635140  50.2703910  59.0746090
  78.4008720  50.3617450  57.5647720  78.7198820  49.5708360  74.3273940
  77.9544490  50.1393360  74.2428610  78.9014780  49.2784570  73.4342170
  81.8087230  49.9471590  58.9526700  81.2597330  50.3940890  59.5969440
  82.4306490  49.4420840  59.4764370  85.8622170  51.3013690  74.8848960
  86.6031640  51.6389450  74.3816420  85.0994850  51.4705750  74.3318730
  77.4762350  48.9062510  60.8492000  77.8978770  48.7402380  61.6923390
  77.6013190  48.0962740  60.3547140  75.6389770  44.8859060  73.6562980
  75.1086230  44.3950010  73.0286320  76.3077840  45.3143260  73.1220910
  79.9889990  47.9300120  58.0969100  80.5095650  47.2149140  57.7310250
  80.6358390  48.5685990  58.3969610  84.5367830  49.3528520  73.4204170
  84.9508850  49.5073600  74.2694590  83.6018830  49.4783740  73.5829950
  85.0090000  46.6924680  75.4243320  85.5910770  45.9377000  75.3363800
  85.1851770  47.2232120  74.6474800  76.1262070  41.8521430  73.7360270
  76.0318940  41.2342180  73.0111140  75.5459460  42.5787720  73.5090180
  78.8923510  40.4094670  70.7687660  78.4440810  40.4318930  69.9233210
  78.2588710  40.0113690  71.3657960  79.2983060  49.3049000  71.3900100
  79.7171170  50.1481730  71.2176340  78.3791690  49.4421040  71.1606880
  81.6346960  47.0365180  72.7737940  81.7543170  46.4406320  73.5132780
  82.4940960  47.0734870  72.3539240  83.9734860  47.5902370  71.3500450
  83.4470080  48.1144990  70.7465590  84.3166200  48.2229760  71.9810180
  76.3721250  44.9795740  57.7950160  76.1710310  44.1163100  58.1563500
  76.2013300  44.8929100  56.8571760  77.1490480  55.6102010  72.5057830
  76.6111570  56.3348070  72.1866530  77.4024440  55.1332350  71.7155170
  78.4015730  43.5786530  74.0313760  78.9915420  43.2702380  74.7191580
  77.5835970  43.1066280  74.1873660  83.2209160  43.1952340  74.2646780
  82.5324680  42.5333880  74.1996770  83.9415180  42.7490610  74.7095240
  83.8509560  39.7903970  60.3237040  84.1311850  38.9471870  60.6796460
  83.0775290  40.0227080  60.8375790  75.1704050  42.0796360  57.7828040
  75.4729950  42.0863790  56.8747190  75.9098640  41.7294220  58.2795700
  80.0052690  56.8453220  72.7644480  79.9311390  57.7488360  73.0716850
  79.1031530  56.5265120  72.7366550  78.3888980  41.0230980  58.7684240
  78.0410980  40.3454970  58.1886690  78.5901750  40.5620490  59.5827630
  80.5538020  56.0111730  60.3870840  81.4488810  56.3496700  60.4089600
  80.5855650  55.2891140  59.7595120  74.1934180  51.3838780  58.6157840
  74.6309050  51.9268450  59.2715420  74.6781910  50.5585730  58.6254180
  71.4079980  54.1727810  66.0678100  71.7382990  53.3048870  65.8356740
  71.8370980  54.3786330  66.8983060  76.0041900  52.5036820  63.7280070
  75.7037440  52.3801790  64.6283980  75.8979390  51.6445410  63.3195800
  71.8970190  55.0398400  68.8059730  71.4601180  55.2199200  69.6383880
  72.4647870  55.7973020  68.6641450  87.5332370  54.5415400  73.0937040
  86.9334360  54.6007960  72.3500960  87.6626270  53.6020380  73.2233890
  88.7733820  52.2833220  58.4306750  87.9426780  52.3509870  58.9013980
  88.9505650  53.1737340  58.1273610  88.2290280  49.0280700  60.9340950
  88.9909190  49.5977350  61.0400640  88.2444650  48.4607900  61.7049260
  71.7294620  47.5518630  65.1648610  71.0743460  47.2830270  64.5208310
  72.5672570  47.4423110  64.7150590  89.2350250  49.8830800  65.7782880
  89.6059080  49.0998120  65.3718850  89.8752180  50.5719900  65.6000180
  86.2184010  51.2667380  71.1913200  85.4043850  51.6964540  71.4538990
  86.6258210  51.8785790  70.5782250  88.2809450  49.3215070  58.0913470
  88.5558290  50.2293950  57.9632690  88.0920190  49.2577600  59.0275460
  84.6785060  42.3459920  59.3867100  85.0969940  42.1590900  58.5463760
  84.3721120  41.4938970  59.6970030  88.1774790  47.2584060  63.0842900
  87.8018390  46.4911990  62.6524190  87.4477910  47.6406760  63.5717830
  72.7670550  47.9371200  69.7051950  73.1343590  47.8498600  70.5847970
  72.1981370  47.1737750  69.6058810  87.5674410  46.4055580  72.7182420
  87.3360500  46.1768330  71.8180370  87.8278960  47.3255130  72.6727310
  72.3186550  44.8480290  73.6110370  71.4242600  44.8147050  73.9504080
  72.8584100  45.0467080  74.3761620  86.0062480  41.6312010  75.4962120
  86.8832660  41.6395410  75.8796120  86.0183320  40.8942850  74.8854470
  70.9432700  44.7617560  61.1073940  70.0396780  45.0247760  60.9325600
  71.4273320  45.0328730  60.3273900  87.4525750  45.4841550  66.3850140
  87.9763230  44.9904200  65.7540310  88.0385170  45.6191910  67.1297710
  87.6315470  45.5681420  69.9069690  86.6818180  45.5344960  70.0214680
  87.8128480  46.4781530  69.6719460  73.4859910  43.8183100  59.0168320
  74.1951610  43.3966320  58.5315600  72.7699850  43.8858330  58.3851670
  73.1334070  39.8722430  58.0570970  73.8562200  40.4131370  58.3752190
  73.4058590  39.5985850  57.1812510  86.9425720  44.7414900  62.3242550
  87.4384840  44.5085770  63.1091430  86.7441790  43.9026740  61.9080190
  72.8226260  39.1228620  67.9593590  73.4702450  38.5726000  67.5188750
  73.2428100  39.3771770  68.7809400  88.3712880  43.3775850  64.8580230
  88.2612160  43.2231890  65.7962500  89.1320470  42.8496790  64.6155640
  86.7178600  39.3169980  71.3163230  87.3550820  39.9304120  71.6822420
  86.8653490  39.3530640  70.3712460  89.2603150  41.2083770  58.0986370
  90.1852460  41.0764950  57.8904660  89.2378940  41.2876590  59.0522820
  89.3341640  41.9794430  60.7243080  88.5393140  41.9139550  61.2535990
  89.5384920  42.9145070  60.7128430  86.2760060  56.0185980  64.7181470
  86.8719130  55.6970550  64.0415890  86.5338210  55.5457800  65.5094740
  72.5758260  39.2784290  70.7018910  72.2273080  39.7348110  71.4677090
  72.2445960  38.3841420  70.7841340  74.1822630  52.4503890  74.8672100
  74.1392260  52.0796800  75.7486560  74.3133640  53.3881460  75.0073920
  77.8828660  54.0063480  70.4681820  77.6420020  54.2738040  69.5812340
  78.8231300  54.1769210  70.5232680  80.0883080  40.4696170  74.2238330
  80.0271970  41.0618000  74.9733740  81.0283460  40.3622130  74.0788590
  82.7257640  40.1266230  73.8630620  83.3398050  40.4445520  73.2011700
  83.2707200  39.6414820  74.4826480  89.1432820  56.0257860  71.2692460
  88.6491100  56.4226730  70.5519590  88.5346110  55.4007070  71.6629740
  73.2478900  38.8060490  73.9769680  73.7961890  38.6248540  73.2135790
  73.3134210  38.0154600  74.5125990  74.0210660  55.3966140  71.9869880
  73.4270980  55.2650840  72.7259920  74.0134500  54.5604280  71.5211980
  83.4665680  38.6898370  70.1899910  82.5925520  39.0233480  69.9872840
  83.3576430  38.2171550  71.0151780  84.3737660  40.8969240  71.5741630
  84.0451020  40.0821000  71.1943360  85.3219960  40.8539050  71.4507320
  86.8272270  56.6681280  68.5479200  86.3675240  57.4197090  68.1737220
  86.1984730  55.9487750  68.4894000  73.6522890  52.7624520  70.9377920
  72.9256950  52.1429810  70.8703870  73.7132040  53.1565130  70.0676000
  77.2567990  54.9769520  67.7227330  77.7733010  54.3656880  67.1975590
  77.9065370  55.4798300  68.2138340  79.9963490  55.8678010  68.5496310
  80.2841300  55.6132310  67.6729320  80.5086710  55.3155370  69.1401880
  81.2140500  39.6068210  69.1292820  80.4312290  40.0813710  69.4089580
  80.9203430  38.7023040  69.0206000  85.7661570  40.3091310  67.1741910
  86.2069660  40.2536410  66.3263510  85.4969160  41.2249320  67.2452090
  87.6300140  39.9406550  65.1850730  87.5688540  38.9967770  65.0381750
  88.4092170  40.0486640  65.7304190  71.9352890  56.0798910  64.1474680
  71.7674930  55.4469590  64.8456570  71.0687400  56.2858310  63.7968870
  72.5580910  39.9115690  61.6506540  73.3160270  40.0244570  61.0770570
  72.0958080  40.7484890  61.6049970  79.0994720  42.0254960  64.6408850
  78.2869230  41.6511850  64.3004730  79.6036360  41.2700040  64.9430040
  83.6019700  38.6897410  65.8791920  84.2049070  39.2617620  66.3540440
  82.8612690  39.2536850  65.6565820  86.7454300  39.0918970  61.1532200
  86.9404930  39.9902420  61.4199630  85.9584170  38.8606050  61.6465150
  73.5415590  54.7732140  61.5924820  73.0163210  55.1540170  60.8886780
  73.4660170  55.3982910  62.3134530  74.9306060  40.4379740  60.1908510
  75.4598820  39.6509540  60.0616460  75.5634380  41.1170930  60.4244040
  77.1243900  40.1754880  63.2453900  76.4946640  39.4742190  63.4124030
  76.5849040  40.9359010  63.0287060  80.0635850  56.7894110  75.9164510
  80.9903160  56.5538380  75.9600470  80.0486280  57.6166110  75.4350540
  88.2980910  56.3319680  62.9138760  88.4733100  55.6457420  62.2699680
  87.6002480  56.8566730  62.5215430  77.2499460  39.4538860  75.6806390
  76.9683730  39.9572460  74.9167210  77.6319160  38.6560610  75.3148520
  76.1408560  56.7214520  60.4674070  76.8727380  56.4373800  59.9197960
  76.4002230  56.4827800  61.3573450  75.3023350  52.8379250  60.4720400
  74.6732230  53.3064350  61.0206230  75.4171180  51.9928470  60.9066590
  82.7573070  46.8884910  46.6221600  82.6767120  45.9739520  46.3513310
  82.3437490  47.3851980  45.9161310  80.8891110  48.6663930  48.5030870
  80.1133210  48.1864370  48.7929440  81.5404040  47.9869580  48.3287030
  74.9056940  48.9783740  49.3806630  74.0741820  48.7232450  49.7803140
  75.5137920  49.0494510  50.1164550  84.9098540  53.0724120  47.2830000
  84.4480070  52.3011360  47.6117170  85.7224090  53.0990190  47.7882450
  74.8858200  53.0123830  49.5764650  75.1886240  52.1221570  49.3974870
  75.6301790  53.5694050  49.3486900  73.3148890  43.9385630  43.1649020
  72.4265590  44.2801600  43.0628900  73.5990080  43.7385950  42.2729850
  71.2781900  46.5391280  49.0488720  71.8498010  45.7713480  49.0492360
  71.2783440  46.8380040  48.1395330  81.1361850  55.3582130  46.9033990
  80.5173290  55.8139630  46.3328430  81.9913630  55.5133590  46.5023690
  80.3300100  51.3421120  48.5101030  80.2608380  50.4011060  48.3490160
  81.0919960  51.4322530  49.0823600  72.5206770  41.9475640  50.8357650
  72.3409610  41.0501390  51.1160410  72.1186850  42.4947510  51.5104600
  81.3605270  44.1491500  48.7369960  81.7370090  43.2763380  48.6243630
  81.2624780  44.4850200  47.8460400  75.4910280  42.5217130  44.1987400
  75.5977030  43.4220860  44.5056160  74.5802640  42.4735100  43.9082050
  85.1429390  41.6441940  45.6698300  85.9639010  41.1538510  45.7123780
  85.1763470  42.2339600  46.4230140  73.1393440  44.4436140  49.4439990
  73.8203550  44.7074510  50.0627390  72.8241490  43.6037010  49.7778000
  77.3318010  45.4903500  48.5312580  77.8396230  45.9884470  49.1717600
  77.8631250  44.7138700  48.3551940  89.4328940  43.6608690  52.2341930
  88.7281110  44.0490400  51.7157040  89.6986860  44.3558980  52.8362860
  75.6154110  40.1302060  52.7976000  75.6172550  40.6474450  51.9921900
  74.7858420  39.6532240  52.7745930  82.0025200  50.2421370  44.2965900
  81.3842470  50.7070820  43.7328620  82.5148450  50.9348850  44.7135410
  76.8656960  49.7697240  50.9749500  76.5326340  50.3966160  51.6170570
  77.0423640  50.2959120  50.1951170  85.3790870  43.5842320  48.4425840
  84.6746440  43.8727210  49.0228950  85.7403030  44.3942430  48.0825400
  75.2969440  41.8412020  50.8046450  75.6386250  42.6854070  50.5100320
  74.3585250  41.9895760  50.9211790  76.0776060  51.7378040  52.7898680
  76.6950060  52.4129120  52.5083130  75.2169180  52.1466020  52.6986180
  71.3708400  50.9277900  41.6705530  70.9936380  51.4165000  40.9390430
  71.6281470  51.6003180  42.3012060  86.9953650  53.2017450  50.7053320
  86.3117170  53.8716560  50.6969990  87.5347940  53.3998100  49.9398180
  88.4477790  43.0297110  48.8335050  87.5002700  43.0636090  48.9650480
  88.7727780  43.8436060  49.2184410  78.9797330  39.3294290  47.1291040
  79.2872310  38.7741180  46.4126540  78.0498030  39.4638750  46.9464030
  84.5312390  55.0461580  49.4198500  84.5439550  54.6423870  48.5520760
  83.9787610  55.8208870  49.3159930  85.8257810  51.7677800  44.5088670
  85.7154140  50.8252130  44.6338090  85.8226060  52.1293440  45.3951430
  83.9297830  49.9491420  50.7481110  84.3466620  49.7351530  49.9134570
  84.6537650  50.2064210  51.3189730  81.3678090  47.3943120  43.8651160
  80.4407370  47.3280500  44.0939630  81.5202910  48.3323250  43.7506400
  81.3547170  43.6660120  40.8618320  80.4150840  43.8274080  40.9470780
  81.6730430  44.3845800  40.3154310  87.8759930  48.3478640  50.8397350
  87.0478560  48.4171730  50.3647480  88.4710410  48.9332950  50.3713180
  85.3975380  48.9563420  44.3686410  84.7787800  48.6182970  43.7212710
  85.3799830  48.3123180  45.0765600  84.8401940  45.1347960  51.7852220
  84.4273120  45.9601670  52.0392210  84.1077890  44.5493000  51.5928580
  76.9734730  47.9207860  46.6470890  76.5691730  47.2085110  46.1516790
  77.0597850  47.5761100  47.5358930  77.4416430  51.6075420  48.8110100
  77.1444720  51.0020890  48.1317880  78.3916250  51.6452730  48.6999460
  75.6863350  44.6951070  50.4269930  76.2377940  44.8046410  49.6523180
  76.2006860  45.0688670  51.1425160  85.5302040  55.1807290  52.4733200
  85.0532600  55.9879480  52.2805810  84.8463830  54.5285620  52.6259410
  76.5334860  51.3457110  55.4617900  75.6363390  51.5697080  55.7091300
  76.5587730  51.4692050  54.5129300  83.5740080  48.1950230  41.3759160
  84.0133360  47.3572660  41.2296980  84.2868500  48.8279630  41.4623300
  75.3606080  48.2170430  54.0375270  75.2213850  49.0893230  54.4062670
  74.4787440  47.8743240  53.8923210  81.6835460  53.1346300  45.3440400
  82.1231370  53.8770630  44.9295790  81.6222350  53.3772870  46.2679360
  77.1586430  54.1592130  56.2460420  77.1301860  54.5635080  55.3788850
  76.9951400  53.2302490  56.0832020  87.1557220  39.4493040  39.6900200
  86.8429880  39.5419870  40.5899270  87.9169690  40.0274070  39.6397630
  73.6739360  46.8152840  44.1477540  73.5536960  47.5414930  43.5358810
  73.3640250  46.0455750  43.6705450  89.1101250  54.9419230  57.5424590
  89.5860970  55.4202120  58.2213670  89.7308410  54.8736720  56.8170090
  71.3124730  49.9867980  49.9546180  71.3905150  50.1216750  49.0101900
  71.9266410  49.2783870  50.1474300  72.5572360  51.6868170  46.3652360
  72.1500440  51.8282760  45.5105960  73.4485370  51.4028330  46.1623570
  88.5134500  52.1332080  54.7024600  88.6397560  51.8943960  53.7841780
  88.5555880  51.3016620  55.1746680  82.3751240  55.8360080  53.2719410
  82.8895910  55.7468090  54.0741840  81.5320320  56.1819780  53.5647320
  84.3505640  56.1215420  42.7003410  84.1906780  55.8318360  43.5985240
  84.1852350  55.3455550  42.1648640  76.8294020  55.9013950  44.4775030
  76.6536500  54.9849490  44.2642830  75.9749760  56.2601240  44.7172830
  84.0531770  53.6302980  41.2601410  83.3596930  53.6280270  40.6003690
  84.7954630  53.2062300  40.8295580  83.6181700  55.2565690  45.3349900
  84.0738650  54.4755070  45.6488520  83.9574220  55.9672510  45.8791080
  88.3658510  44.1864540  55.6674340  87.7502780  44.6944210  55.1389800
  88.0454930  43.2862870  55.6100280  71.3684250  51.0282150  52.4940640
  71.5315290  50.5587510  51.6760010  71.8336700  50.5205710  53.1589480
  76.1403020  40.1587910  47.5301210  75.6971170  40.9397450  47.1985730
  76.6988010  40.4817800  48.2372150  80.4272830  43.0256430  53.1336530
  79.9652200  43.2339450  53.9456470  80.0250940  42.2115780  52.8307200
  85.4277340  44.2465380  54.2633190  84.5770930  43.9471130  54.5842260
  85.2679130  44.4907390  53.3517010  82.5227050  45.7467130  56.3631980
  82.8480460  44.9130880  56.0234210  83.3107380  46.2695650  56.5110310
  79.2561840  39.7798610  42.4107040  78.6316020  39.7758480  43.1360350
  79.1691960  38.9129570  42.0143010  78.1778920  40.7035240  49.3890810
  78.4751250  41.6098070  49.3082830  78.7264480  40.2154020  48.7750380
  75.9317240  45.2821480  45.2582460  75.7058160  45.0658650  46.1629080
  75.1509770  45.7149940  44.9128430  83.1615000  45.2884850  43.8573110
  82.5623890  46.0120650  43.6736730  83.7094610  45.2261630  43.0749560
  78.3716450  46.1807060  55.9242730  78.2760050  45.2401790  55.7743130
  79.2148430  46.4022130  55.5290800  81.7679870  43.9248390  45.8876390
  82.1609440  44.2420590  45.0745080  82.1296720  43.0460270  46.0020910
  73.5026990  42.5920730  54.0776510  73.1090380  43.4395940  54.2849290
  72.8145390  41.9547100  54.2685150  80.0772040  42.6755700  57.1473250
  79.3870360  42.4827900  57.7819340  80.8204340  42.9590340  57.6797550
  70.8044040  40.5149190  48.1106590  70.5157090  41.0852050  48.8231570
  71.5489800  40.0353640  48.4737820  70.9914270  44.4569310  39.3209310
  70.9088940  45.4000070  39.4624300  70.6397330  44.3144220  38.4421660
  82.3535010  46.5154140  49.9827170  81.6216130  47.0240950  50.3317270
  81.9559350  45.6984120  49.6815950  78.7912400  43.1908340  48.3879660
  78.7948460  42.7498290  47.5384200  79.6863520  43.5125670  48.4951480
  74.6414780  43.0734830  47.3473870  74.3014830  43.5510060  48.1040920
  73.8792100  42.6199950  46.9874970  78.8532550  44.1920420  41.3786420
  78.9745370  44.1506900  42.3272240  78.4681060  45.0544570  41.2233150
  82.8160920  41.9687820  49.3950110  82.8333660  42.4196470  50.2391960
  82.5676500  41.0693460  49.6083550  77.8654050  46.5021560  40.7769720
  77.2970950  46.0539810  40.1505630  78.5743050  46.8614340  40.2434870
  86.2431670  39.3820000  55.2336490  86.5677440  38.6509660  55.7594470
  86.2788180  39.0633640  54.3317480  72.9423230  50.4033580  54.6536450
  72.5578020  49.7627250  55.2519410  73.2535420  51.1069700  55.2231180
  79.0920370  47.2510120  50.1345070  79.4590500  46.7768690  50.8806410
  78.9025430  48.1251690  50.4753410  71.9560860  41.9953810  46.2638540
  71.6707780  41.6309480  47.1017160  71.8939720  41.2634270  45.6501680
  76.8819740  46.2918760  52.4529280  76.5776810  47.1710740  52.6779640
  77.8366200  46.3518550  52.4886720  75.4101530  50.4979750  43.0496130
  74.6363790  49.9577370  42.8894850  76.1396160  49.9786360  42.7113890
  86.1689510  49.4945110  48.8422520  86.8888630  49.9900400  48.4518630
  85.9671330  48.8163000  48.1976390  81.6299450  40.8883070  42.9851910
  80.8164060  40.3896240  42.9097220  81.4361400  41.7281320  42.5688260
  81.5508310  49.5654170  54.7291520  81.4845620  48.6449840  54.4749110
  80.9213450  49.6629610  55.4436160  84.3447840  45.2602720  41.2814070
  85.2327460  45.5719950  41.1065410  84.3152930  44.3874970  40.8894650
  75.4538930  50.1660130  46.6874940  75.9717600  49.3628390  46.6331830
  75.0022950  50.1039270  47.5291770  80.3408430  51.4326410  41.9602240
  80.6824130  52.1768640  41.4645560  79.5121140  51.7457530  42.3227070
  72.9383470  47.1321500  53.6000640  72.5798410  47.7975350  54.1873980
  72.6438030  46.3005050  53.9713260  76.1396590  47.5905740  56.4840190
  75.8396730  47.7362920  55.5868010  76.9107830  47.0311030  56.3913580
  81.4825040  52.3874740  54.4795320  81.4969580  51.4555700  54.2614230
  80.7750140  52.4734500  55.1185090  86.6162110  46.5714560  40.7493930
  86.5325830  47.0028780  39.8990370  87.3356300  47.0312910  41.1820750
  87.6936250  49.0282080  53.8263900  86.9684440  49.6210860  53.6293290
  88.2211710  49.0205620  53.0277270  87.6449360  53.4256820  43.4776060
  87.0025520  52.7712440  43.7519780  87.2580020  53.8311910  42.7016730
  83.2235840  50.7542250  47.3247750  83.5759660  50.1570380  46.6649120
  82.3398170  50.4286480  47.4956000  79.3099120  51.5139940  44.7318160
  79.9970250  52.0609150  45.1125750  78.5231540  52.0580670  44.7667770
  71.4491520  47.1312760  40.2235240  72.3186370  47.4137560  40.5071160
  70.9581840  47.9448630  40.1084050  78.6126330  48.5185970  44.3443520
  79.0689110  49.3291220  44.5703710  78.2614540  48.2009110  45.1762010
  80.9158940  54.0292310  51.5735820  81.5601160  54.2351690  52.2509240
  81.2788380  53.2680710  51.1206670  74.5138110  38.8623620  44.8166040
  74.3852740  38.8541520  45.7650960  73.6900130  39.2006710  44.4657050
  82.1891020  52.0324660  50.2913270  82.8313250  51.3317820  50.4045440
  82.7140370  52.8123100  50.1110160  86.0346740  52.3173280  40.0152410
  85.8084320  51.6003720  40.6077050  85.6442940  52.0685720  39.1774160
  83.9628640  52.8319560  53.4949330  84.2984880  53.4186250  54.1727250
  83.0428980  52.7012270  53.7247120  71.8162770  56.3440140  40.7896870
  72.1760410  56.9429480  40.1354140  71.6755110  56.8900030  41.5631900
  71.5132040  40.6214740  54.2772740  70.7990560  40.8211660  54.8825350
  71.9327080  39.8454310  54.6487540  85.6162990  50.2345220  41.6766570
  85.3284690  50.6957910  42.4644450  86.4115160  49.7742990  41.9450790
  71.8004630  54.6095000  55.2639270  71.9095750  53.6689740  55.1234660
  71.1485190  54.8749750  54.6153000  79.7917220  52.8810890  56.6637390
  79.4714090  52.1620130  57.2083080  79.1175580  53.5565960  56.7373450
  77.8331390  53.7271340  41.6070540  77.8241490  54.4601030  40.9915050
  76.9129750  53.4802920  41.6997500  73.4338030  48.9486230  42.3517300
  72.8265980  49.6885130  42.3612600  73.9087380  49.0385590  41.5255500
  83.0070820  43.1137050  52.0274190  83.3751640  42.2932260  52.3553760
  82.1469020  43.1738940  52.4429840  86.3732850  42.0693990  42.8361750
  85.7446010  42.1739660  42.1219980  85.8784770  42.2890770  43.6255630
  80.8190990  53.7899580  40.2695730  80.9202970  53.5863570  39.3397710
  79.9192730  53.5357860  40.4743510  78.3416880  44.3479940  44.2519630
  77.6333030  44.8166280  44.6933240  78.6261360  43.6901950  44.8864820
  79.9672810  45.7676640  52.2512160  80.4658060  46.2422460  52.9164010
  80.1095760  44.8440160  52.4582190  82.3732310  41.0730600  45.6915420
  82.2500090  41.0916730  44.7424930  83.3216870  41.1209540  45.8113820
  79.4609100  56.3085900  44.9643400  79.7150600  56.2707290  44.0422770
  78.5121580  56.1819230  44.9571650  76.5451900  42.6565020  41.6270340
  77.3942430  43.0935170  41.5610530  76.1783170  42.9685280  42.4542400
  87.1739670  41.9844600  53.0940550  86.6713270  42.7250000  53.4334360
  87.9896330  42.3728600  52.7777340  85.4661680  47.2277780  46.5401910
  84.5251820  47.2428010  46.7149600  85.7805750  46.4413740  46.9862210
  75.4443320  48.9097380  40.1005870  76.2106590  48.7978740  40.6631300
  75.5218010  48.2135350  39.4482640  74.1390080  46.3422450  40.7838760
  74.2193670  45.3949960  40.8956160  75.0309830  46.6729330  40.8899420
  87.4687260  54.3986630  48.2156170  87.5934680  55.2217800  48.6879980
  88.3352820  54.1877360  47.8680320  74.9404790  56.4917840  47.8873300
  75.6767270  55.9433300  48.1581870  75.3245710  57.3573850  47.7479290
  71.8250270  52.5591410  43.7614810  70.8990050  52.8012550  43.7520220
  72.2906700  53.3865670  43.6399560  73.9463070  55.6763910  57.0758880
  74.7475800  55.9975960  57.4894280  73.4314890  55.3159490  57.7978790
  78.0507100  55.6648150  39.7098870  78.8435710  55.9536980  39.2580660
  77.5311450  55.2340320  39.0311350  82.7827700  51.7843780  57.0234290
  82.1765860  51.8075380  56.2830040  82.4781810  51.0526820  57.5601540
  84.2128070  55.5124070  55.6343700  85.1649820  55.4282090  55.5843940
  84.0656290  56.1765780  56.3077490  87.1037270  54.8918280  41.1335610
  86.8178780  54.4783420  40.3189790  86.9056820  55.8205990  41.0136130
  71.6660880  48.1637370  56.0194930  72.1699900  47.5844650  56.5911160
  70.9268300  48.4477600  56.5571300  78.5684500  50.8851560  39.5741220
  78.4635140  50.2703910  40.3002600  78.4008720  50.3617450  38.7904230
  78.7198820  49.5708360  55.5530450  77.9544490  50.1393360  55.4685120
  78.9014780  49.2784570  54.6598680  81.8087230  49.9471590  40.1783210
  81.2597330  50.3940890  40.8225950  82.4306490  49.4420840  40.7020880
  85.8622170  51.3013690  56.1105470  86.6031640  51.6389450  55.6072930
  85.0994850  51.4705750  55.5575240  73.6983960  46.3066960  56.9145000
  73.7389300  46.0080830  57.8230230  74.5529460  46.7074570  56.7552520
  77.4762350  48.9062510  42.0748510  77.8978770  48.7402380  42.9179900
  77.6013190  48.0962740  41.5803650  75.6389770  44.8859060  54.8819490
  75.1086230  44.3950010  54.2542830  76.3077840  45.3143260  54.3477420
  79.9889990  47.9300120  39.3225610  80.5095650  47.2149140  38.9566760
  80.6358390  48.5685990  39.6226120  84.5367830  49.3528520  54.6460680
  84.9508850  49.5073600  55.4951100  83.6018830  49.4783740  54.8086460
  85.0090000  46.6924680  56.6499830  85.5910770  45.9377000  56.5620310
  85.1851770  47.2232120  55.8731310  76.1262070  41.8521430  54.9616780
  76.0318940  41.2342180  54.2367650  75.5459460  42.5787720  54.7346690
  78.8923510  40.4094670  51.9944170  78.4440810  40.4318930  51.1489720
  78.2588710  40.0113690  52.5914470  79.2983060  49.3049000  52.6156610
  79.7171170  50.1481730  52.4432850  78.3791690  49.4421040  52.3863390
  81.6346960  47.0365180  53.9994450  81.7543170  46.4406320  54.7389290
  82.4940960  47.0734870  53.5795750  83.9734860  47.5902370  52.5756960
  83.4470080  48.1144990  51.9722100  84.3166200  48.2229760  53.2066690
  76.3721250  44.9795740  39.0206670  76.1710310  44.1163100  39.3820010
  76.2013300  44.8929100  38.0828270  77.1490480  55.6102010  53.7314340
  76.6111570  56.3348070  53.4123040  77.4024440  55.1332350  52.9411680
  78.4015730  43.5786530  55.2570270  78.9915420  43.2702380  55.9448090
  77.5835970  43.1066280  55.4130170  83.2209160  43.1952340  55.4903290
  82.5324680  42.5333880  55.4253280  83.9415180  42.7490610  55.9351750
  83.8509560  39.7903970  41.5493550  84.1311850  38.9471870  41.9052970
  83.0775290  40.0227080  42.0632300  75.1704050  42.0796360  39.0084550
  75.4729950  42.0863790  38.1003700  75.9098640  41.7294220  39.5052210
  80.0052690  56.8453220  53.9900990  79.9311390  57.7488360  54.2973360
  79.1031530  56.5265120  53.9623060  78.3888980  41.0230980  39.9940750
  78.0410980  40.3454970  39.4143200  78.5901750  40.5620490  40.8084140
  80.5538020  56.0111730  41.6127350  81.4488810  56.3496700  41.6346110
  80.5855650  55.2891140  40.9851630  74.1934180  51.3838780  39.8414350
  74.6309050  51.9268450  40.4971930  74.6781910  50.5585730  39.8510690
  71.4079980  54.1727810  47.2934610  71.7382990  53.3048870  47.0613250
  71.8370980  54.3786330  48.1239570  76.0041900  52.5036820  44.9536580
  75.7037440  52.3801790  45.8540490  75.8979390  51.6445410  44.5452310
  71.8970190  55.0398400  50.0316240  71.4601180  55.2199200  50.8640390
  72.4647870  55.7973020  49.8897960  87.5332370  54.5415400  54.3193550
  86.9334360  54.6007960  53.5757470  87.6626270  53.6020380  54.4490400
  88.7733820  52.2833220  39.6563260  87.9426780  52.3509870  40.1270490
  88.9505650  53.1737340  39.3530120  88.2290280  49.0280700  42.1597460
  88.9909190  49.5977350  42.2657150  88.2444650  48.4607900  42.9305770
  71.7294620  47.5518630  46.3905120  71.0743460  47.2830270  45.7464820
  72.5672570  47.4423110  45.9407100  89.2350250  49.8830800  47.0039390
  89.6059080  49.0998120  46.5975360  89.8752180  50.5719900  46.8256690
  86.2184010  51.2667380  52.4169710  85.4043850  51.6964540  52.6795500
  86.6258210  51.8785790  51.8038760  88.2809450  49.3215070  39.3169980
  88.5558290  50.2293950  39.1889200  88.0920190  49.2577600  40.2531970
  84.6785060  42.3459920  40.6123610  85.0969940  42.1590900  39.7720270
  84.3721120  41.4938970  40.9226540  88.1774790  47.2584060  44.3099410
  87.8018390  46.4911990  43.8780700  87.4477910  47.6406760  44.7974340
  72.7670550  47.9371200  50.9308460  73.1343590  47.8498600  51.8104480
  72.1981370  47.1737750  50.8315320  87.5674410  46.4055580  53.9438930
  87.3360500  46.1768330  53.0436880  87.8278960  47.3255130  53.8983820
  72.3186550  44.8480290  54.8366880  71.4242600  44.8147050  55.1760590
  72.8584100  45.0467080  55.6018130  86.0062480  41.6312010  56.7218630
  86.8832660  41.6395410  57.1052630  86.0183320  40.8942850  56.1110980
  70.9432700  44.7617560  42.3330450  70.0396780  45.0247760  42.1582110
  71.4273320  45.0328730  41.5530410  87.4525750  45.4841550  47.6106650
  87.9763230  44.9904200  46.9796820  88.0385170  45.6191910  48.3554220
  87.6315470  45.5681420  51.1326200  86.6818180  45.5344960  51.2471190
  87.8128480  46.4781530  50.8975970  73.4859910  43.8183100  40.2424830
  74.1951610  43.3966320  39.7572110  72.7699850  43.8858330  39.6108180
  73.1334070  39.8722430  39.2827480  73.8562200  40.4131370  39.6008700
  73.4058590  39.5985850  38.4069020  86.9425720  44.7414900  43.5499060
  87.4384840  44.5085770  44.3347940  86.7441790  43.9026740  43.1336700
  72.8226260  39.1228620  49.1850100  73.4702450  38.5726000  48.7445260
  73.2428100  39.3771770  50.0065910  88.3712880  43.3775850  46.0836740
  88.2612160  43.2231890  47.0219010  89.1320470  42.8496790  45.8412150
  86.7178600  39.3169980  52.5419740  87.3550820  39.9304120  52.9078930
  86.8653490  39.3530640  51.5968970  89.2603150  41.2083770  39.3242880
  90.1852460  41.0764950  39.1161170  89.2378940  41.2876590  40.2779330
  89.3341640  41.9794430  41.9499590  88.5393140  41.9139550  42.4792500
  89.5384920  42.9145070  41.9384940  86.2760060  56.0185980  45.9437980
  86.8719130  55.6970550  45.2672400  86.5338210  55.5457800  46.7351250
  72.5758260  39.2784290  51.9275420  72.2273080  39.7348110  52.6933600
  72.2445960  38.3841420  52.0097850  74.1822630  52.4503890  56.0928610
  74.1392260  52.0796800  56.9743070  74.3133640  53.3881460  56.2330430
  77.8828660  54.0063480  51.6938330  77.6420020  54.2738040  50.8068850
  78.8231300  54.1769210  51.7489190  80.0883080  40.4696170  55.4494840
  80.0271970  41.0618000  56.1990250  81.0283460  40.3622130  55.3045100
  82.7257640  40.1266230  55.0887130  83.3398050  40.4445520  54.4268210
  83.2707200  39.6414820  55.7082990  89.1432820  56.0257860  52.4948970
  88.6491100  56.4226730  51.7776100  88.5346110  55.4007070  52.8886250
  73.2478900  38.8060490  55.2026190  73.7961890  38.6248540  54.4392300
  73.3134210  38.0154600  55.7382500  74.0210660  55.3966140  53.2126390
  73.4270980  55.2650840  53.9516430  74.0134500  54.5604280  52.7468490
  83.4665680  38.6898370  51.4156420  82.5925520  39.0233480  51.2129350
  83.3576430  38.2171550  52.2408290  84.3737660  40.8969240  52.7998140
  84.0451020  40.0821000  52.4199870  85.3219960  40.8539050  52.6763830
  86.8272270  56.6681280  49.7735710  86.3675240  57.4197090  49.3993730
  86.1984730  55.9487750  49.7150510  73.6522890  52.7624520  52.1634430
  72.9256950  52.1429810  52.0960380  73.7132040  53.1565130  51.2932510
  77.2567990  54.9769520  48.9483840  77.7733010  54.3656880  48.4232100
  77.9065370  55.4798300  49.4394850  79.9963490  55.8678010  49.7752820
  80.2841300  55.6132310  48.8985830  80.5086710  55.3155370  50.3658390
  81.2140500  39.6068210  50.3549330  80.4312290  40.0813710  50.6346090
  80.9203430  38.7023040  50.2462510  85.7661570  40.3091310  48.3998420
  86.2069660  40.2536410  47.5520020  85.4969160  41.2249320  48.4708600
  87.6300140  39.9406550  46.4107240  87.5688540  38.9967770  46.2638260
  88.4092170  40.0486640  46.9560700  71.9352890  56.0798910  45.3731190
  71.7674930  55.4469590  46.0713080  71.0687400  56.2858310  45.0225380
  72.5580910  39.9115690  42.8763050  73.3160270  40.0244570  42.3027080
  72.0958080  40.7484890  42.8306480  79.0994720  42.0254960  45.8665360
  78.2869230  41.6511850  45.5261240  79.6036360  41.2700040  46.1686550
  83.6019700  38.6897410  47.1048430  84.2049070  39.2617620  47.5796950
  82.8612690  39.2536850  46.8822330  86.7454300  39.0918970  42.3788710
  86.9404930  39.9902420  42.6456140  85.9584170  38.8606050  42.8721660
  73.5415590  54.7732140  42.8181330  73.0163210  55.1540170  42.1143290
  73.4660170  55.3982910  43.5391040  74.9306060  40.4379740  41.4165020
  75.4598820  39.6509540  41.2872970  75.5634380  41.1170930  41.6500550
  77.1243900  40.1754880  44.4710410  76.4946640  39.4742190  44.6380540
  76.5849040  40.9359010  44.2543570  80.0635850  56.7894110  57.1421020
  80.9903160  56.5538380  57.1856980  80.0486280  57.6166110  56.6607050
  88.2980910  56.3319680  44.1395270  88.4733100  55.6457420  43.4956190
  87.6002480  56.8566730  43.7471940  77.2499460  39.4538860  56.9062900
  76.9683730  39.9572460  56.1423720  77.6319160  38.6560610  56.5405030
  76.1408560  56.7214520  41.6930580  76.8727380  56.4373800  41.1454470
  76.4002230  56.4827800  42.5829960  75.3023350  52.8379250  41.6976910
  74.6732230  53.3064350  42.2462740  75.4171180  51.9928470  42.1323100
  83.8514920  38.8692440  57.4843370  83.7380370  39.1887050  58.3794890
  84.6684660  39.2704950  57.1880650  86.6313410  56.0163970  56.9662060
  87.4238730  55.5213200  56.7588020  86.9246560  56.6954110  57.5737670
  82.7573070  46.8884910  27.8478110  82.6767120  45.9739520  27.5769820
  82.3437490  47.3851980  27.1417820  81.3605270  44.1491500  29.9626470
  81.7370090  43.2763380  29.8500140  81.2624780  44.4850200  29.0716910
  85.1429390  41.6441940  26.8954810  85.9639010  41.1538510  26.9380290
  85.1763470  42.2339600  27.6486650  89.4328940  43.6608690  33.4598440
  88.7281110  44.0490400  32.9413550  89.6986860  44.3558980  34.0619370
  82.0025200  50.2421370  25.5222410  81.3842470  50.7070820  24.9585130
  82.5148450  50.9348850  25.9391920  85.3790870  43.5842320  29.6682350
  84.6746440  43.8727210  30.2485460  85.7403030  44.3942430  29.3081910
  76.0776060  51.7378040  34.0155190  76.6950060  52.4129120  33.7339640
  75.2169180  52.1466020  33.9242690  86.9953650  53.2017450  31.9309830
  86.3117170  53.8716560  31.9226500  87.5347940  53.3998100  31.1654690
  88.4477790  43.0297110  30.0591560  87.5002700  43.0636090  30.1906990
  88.7727780  43.8436060  30.4440920  78.9797330  39.3294290  28.3547550
  79.2872310  38.7741180  27.6383050  78.0498030  39.4638750  28.1720540
  87.8759930  48.3478640  32.0653860  87.0478560  48.4171730  31.5903990
  88.4710410  48.9332950  31.5969690  85.3975380  48.9563420  25.5942920
  84.7787800  48.6182970  24.9469220  85.3799830  48.3123180  26.3022110
  84.8401940  45.1347960  33.0108730  84.4273120  45.9601670  33.2648720
  84.1077890  44.5493000  32.8185090  85.5302040  55.1807290  33.6989710
  85.0532600  55.9879480  33.5062320  84.8463830  54.5285620  33.8515920
  76.5334860  51.3457110  36.6874410  75.6363390  51.5697080  36.9347810
  76.5587730  51.4692050  35.7385810  75.3606080  48.2170430  35.2631780
  75.2213850  49.0893230  35.6319180  74.4787440  47.8743240  35.1179720
  77.1586430  54.1592130  37.4716930  77.1301860  54.5635080  36.6045360
  76.9951400  53.2302490  37.3088530  87.1557220  39.4493040  20.9156710
  86.8429880  39.5419870  21.8155780  87.9169690  40.0274070  20.8654140
  89.1101250  54.9419230  38.7681100  89.5860970  55.4202120  39.4470180
  89.7308410  54.8736720  38.0426600  88.5134500  52.1332080  35.9281110
  88.6397560  51.8943960  35.0098290  88.5555880  51.3016620  36.4003190
  82.3751240  55.8360080  34.4975920  82.8895910  55.7468090  35.2998350
  81.5320320  56.1819780  34.7903830  88.3658510  44.1864540  36.8930850
  87.7502780  44.6944210  36.3646310  88.0454930  43.2862870  36.8356790
  85.4277340  44.2465380  35.4889700  84.5770930  43.9471130  35.8098770
  85.2679130  44.4907390  34.5773520  82.5227050  45.7467130  37.5888490
  82.8480460  44.9130880  37.2490720  83.3107380  46.2695650  37.7366820
  79.2561840  39.7798610  23.6363550  78.6316020  39.7758480  24.3616860
  79.1691960  38.9129570  23.2399520  78.3716450  46.1807060  37.1499240
  78.2760050  45.2401790  36.9999640  79.2148430  46.4022130  36.7547310
  81.7679870  43.9248390  27.1132900  82.1609440  44.2420590  26.3001590
  82.1296720  43.0460270  27.2277420  73.5026990  42.5920730  35.3033020
  73.1090380  43.4395940  35.5105800  72.8145390  41.9547100  35.4941660
  80.0772040  42.6755700  38.3729760  79.3870360  42.4827900  39.0075850
  80.8204340  42.9590340  38.9054060  82.8160920  41.9687820  30.6206620
  82.8333660  42.4196470  31.4648470  82.5676500  41.0693460  30.8340060
  86.2431670  39.3820000  36.4593000  86.5677440  38.6509660  36.9850980
  86.2788180  39.0633640  35.5573990  76.8819740  46.2918760  33.6785790
  76.5776810  47.1710740  33.9036150  77.8366200  46.3518550  33.7143230
  86.1689510  49.4945110  30.0679030  86.8888630  49.9900400  29.6775140
  85.9671330  48.8163000  29.4232900  81.6299450  40.8883070  24.2108420
  80.8164060  40.3896240  24.1353730  81.4361400  41.7281320  23.7944770
  72.9383470  47.1321500  34.8257150  72.5798410  47.7975350  35.4130490
  72.6438030  46.3005050  35.1969770  76.1396590  47.5905740  37.7096700
  75.8396730  47.7362920  36.8124520  76.9107830  47.0311030  37.6170090
  87.6936250  49.0282080  35.0520410  86.9684440  49.6210860  34.8549800
  88.2211710  49.0205620  34.2533780  71.5132040  40.6214740  35.5029250
  70.7990560  40.8211660  36.1081860  71.9327080  39.8454310  35.8744050
  79.7917220  52.8810890  37.8893900  79.4714090  52.1620130  38.4339590
  79.1175580  53.5565960  37.9629960  83.0070820  43.1137050  33.2530700
  83.3751640  42.2932260  33.5810270  82.1469020  43.1738940  33.6686350
  86.3732850  42.0693990  24.0618260  85.7446010  42.1739660  23.3476490
  85.8784770  42.2890770  24.8512140  80.8190990  53.7899580  21.4952240
  80.9202970  53.5863570  20.5654220  79.9192730  53.5357860  21.7000020
  82.3732310  41.0730600  26.9171930  82.2500090  41.0916730  25.9681440
  83.3216870  41.1209540  27.0370330  79.4609100  56.3085900  26.1899910
  79.7150600  56.2707290  25.2679280  78.5121580  56.1819230  26.1828160
  87.1739670  41.9844600  34.3197060  86.6713270  42.7250000  34.6590870
  87.9896330  42.3728600  34.0033850  85.4661680  47.2277780  27.7658420
  84.5251820  47.2428010  27.9406110  85.7805750  46.4413740  28.2118720
  87.4687260  54.3986630  29.4412680  87.5934680  55.2217800  29.9136490
  88.3352820  54.1877360  29.0936830  82.7827700  51.7843780  38.2490800
  82.1765860  51.8075380  37.5086550  82.4781810  51.0526820  38.7858050
  84.2128070  55.5124070  36.8600210  85.1649820  55.4282090  36.8100450
  84.0656290  56.1765780  37.5334000  78.7198820  49.5708360  36.7786960
  77.9544490  50.1393360  36.6941630  78.9014780  49.2784570  35.8855190
  85.8622170  51.3013690  37.3361980  86.6031640  51.6389450  36.8329440
  85.0994850  51.4705750  36.7831750  73.6983960  46.3066960  38.1401510
  73.7389300  46.0080830  39.0486740  74.5529460  46.7074570  37.9809030
  75.6389770  44.8859060  36.1076000  75.1086230  44.3950010  35.4799340
  76.3077840  45.3143260  35.5733930  84.5367830  49.3528520  35.8717190
  84.9508850  49.5073600  36.7207610  83.6018830  49.4783740  36.0342970
  85.0090000  46.6924680  37.8756340  85.5910770  45.9377000  37.7876820
  85.1851770  47.2232120  37.0987820  76.1262070  41.8521430  36.1873290
  76.0318940  41.2342180  35.4624160  75.5459460  42.5787720  35.9603200
  77.1490480  55.6102010  34.9570850  76.6111570  56.3348070  34.6379550
  77.4024440  55.1332350  34.1668190  78.4015730  43.5786530  36.4826780
  78.9915420  43.2702380  37.1704600  77.5835970  43.1066280  36.6386680
  83.2209160  43.1952340  36.7159800  82.5324680  42.5333880  36.6509790
  83.9415180  42.7490610  37.1608260  83.8509560  39.7903970  22.7750060
  84.1311850  38.9471870  23.1309480  83.0775290  40.0227080  23.2888810
  75.1704050  42.0796360  20.2341060  75.4729950  42.0863790  19.3260210
  75.9098640  41.7294220  20.7308720  80.0052690  56.8453220  35.2157500
  79.9311390  57.7488360  35.5229870  79.1031530  56.5265120  35.1879570
  78.3888980  41.0230980  21.2197260  78.0410980  40.3454970  20.6399710
  78.5901750  40.5620490  22.0340650  80.5538020  56.0111730  22.8383860
  81.4488810  56.3496700  22.8602620  80.5855650  55.2891140  22.2108140
  87.5332370  54.5415400  35.5450060  86.9334360  54.6007960  34.8013980
  87.6626270  53.6020380  35.6746910  88.2290280  49.0280700  23.3853970
  88.9909190  49.5977350  23.4913660  88.2444650  48.4607900  24.1562280
  89.2350250  49.8830800  28.2295900  89.6059080  49.0998120  27.8231870
  89.8752180  50.5719900  28.0513200  86.2184010  51.2667380  33.6426220
  85.4043850  51.6964540  33.9052010  86.6258210  51.8785790  33.0295270
  84.6785060  42.3459920  21.8380120  85.0969940  42.1590900  20.9976780
  84.3721120  41.4938970  22.1483050  88.1774790  47.2584060  25.5355920
  87.8018390  46.4911990  25.1037210  87.4477910  47.6406760  26.0230850
  72.7670550  47.9371200  32.1564970  73.1343590  47.8498600  33.0360990
  72.1981370  47.1737750  32.0571830  87.5674410  46.4055580  35.1695440
  87.3360500  46.1768330  34.2693390  87.8278960  47.3255130  35.1240330
  72.3186550  44.8480290  36.0623390  71.4242600  44.8147050  36.4017100
  72.8584100  45.0467080  36.8274640  86.0062480  41.6312010  37.9475140
  86.8832660  41.6395410  38.3309140  86.0183320  40.8942850  37.3367490
  87.4525750  45.4841550  28.8363160  87.9763230  44.9904200  28.2053330
  88.0385170  45.6191910  29.5810730  87.6315470  45.5681420  32.3582710
  86.6818180  45.5344960  32.4727700  87.8128480  46.4781530  32.1232480
  73.1334070  39.8722430  20.5083990  73.8562200  40.4131370  20.8265210
  73.4058590  39.5985850  19.6325530  86.9425720  44.7414900  24.7755570
  87.4384840  44.5085770  25.5604450  86.7441790  43.9026740  24.3593210
  88.3712880  43.3775850  27.3093250  88.2612160  43.2231890  28.2475520
  89.1320470  42.8496790  27.0668660  86.7178600  39.3169980  33.7676250
  87.3550820  39.9304120  34.1335440  86.8653490  39.3530640  32.8225480
  89.2603150  41.2083770  20.5499390  90.1852460  41.0764950  20.3417680
  89.2378940  41.2876590  21.5035840  89.3341640  41.9794430  23.1756100
  88.5393140  41.9139550  23.7049010  89.5384920  42.9145070  23.1641450
  86.2760060  56.0185980  27.1694490  86.8719130  55.6970550  26.4928910
  86.5338210  55.5457800  27.9607760  72.5758260  39.2784290  33.1531930
  72.2273080  39.7348110  33.9190110  72.2445960  38.3841420  33.2354360
  80.0883080  40.4696170  36.6751350  80.0271970  41.0618000  37.4246760
  81.0283460  40.3622130  36.5301610  82.7257640  40.1266230  36.3143640
  83.3398050  40.4445520  35.6524720  83.2707200  39.6414820  36.9339500
  89.1432820  56.0257860  33.7205480  88.6491100  56.4226730  33.0032610
  88.5346110  55.4007070  34.1142760  73.2478900  38.8060490  36.4282700
  73.7961890  38.6248540  35.6648810  73.3134210  38.0154600  36.9639010
  83.4665680  38.6898370  32.6412930  82.5925520  39.0233480  32.4385860
  83.3576430  38.2171550  33.4664800  84.3737660  40.8969240  34.0254650
  84.0451020  40.0821000  33.6456380  85.3219960  40.8539050  33.9020340
  86.8272270  56.6681280  30.9992220  86.3675240  57.4197090  30.6250240
  86.1984730  55.9487750  30.9407020  77.2567990  54.9769520  30.1740350
  77.7733010  54.3656880  29.6488610  77.9065370  55.4798300  30.6651360
  81.2140500  39.6068210  31.5805840  80.4312290  40.0813710  31.8602600
  80.9203430  38.7023040  31.4719020  85.7661570  40.3091310  29.6254930
  86.2069660  40.2536410  28.7776530  85.4969160  41.2249320  29.6965110
  87.6300140  39.9406550  27.6363750  87.5688540  38.9967770  27.4894770
  88.4092170  40.0486640  28.1817210  72.5580910  39.9115690  24.1019560
  73.3160270  40.0244570  23.5283590  72.0958080  40.7484890  24.0562990
  79.0994720  42.0254960  27.0921870  78.2869230  41.6511850  26.7517750
  79.6036360  41.2700040  27.3943060  83.6019700  38.6897410  28.3304940
  84.2049070  39.2617620  28.8053460  82.8612690  39.2536850  28.1078840
  86.7454300  39.0918970  23.6045220  86.9404930  39.9902420  23.8712650
  85.9584170  38.8606050  24.0978170  74.9306060  40.4379740  22.6421530
  75.4598820  39.6509540  22.5129480  75.5634380  41.1170930  22.8757060
  77.1243900  40.1754880  25.6966920  76.4946640  39.4742190  25.8637050
  76.5849040  40.9359010  25.4800080  80.0635850  56.7894110  38.3677530
  80.9903160  56.5538380  38.4113490  80.0486280  57.6166110  37.8863560
  88.2980910  56.3319680  25.3651780  88.4733100  55.6457420  24.7212700
  87.6002480  56.8566730  24.9728450  77.2499460  39.4538860  38.1319410
  76.9683730  39.9572460  37.3680230  77.6319160  38.6560610  37.7661540
  83.8514920  38.8692440  38.7099880  83.7380370  39.1887050  39.6051400
  84.6684660  39.2704950  38.4137160  86.6313410  56.0163970  38.1918570
  87.4238730  55.5213200  37.9844530  86.9246560  56.6954110  38.7994180
  82.7573070  46.8884910   9.0734620  82.6767120  45.9739520   8.8026330
  82.3437490  47.3851980   8.3674330  80.8891110  48.6663930  10.9543890
  80.1133210  48.1864370  11.2442460  81.5404040  47.9869580  10.7800050
  74.9056940  48.9783740  11.8319650  74.0741820  48.7232450  12.2316160
  75.5137920  49.0494510  12.5677570  84.9098540  53.0724120   9.7343020
  84.4480070  52.3011360  10.0630190  85.7224090  53.0990190  10.2395470
  74.8858200  53.0123830  12.0277670  75.1886240  52.1221570  11.8487890
  75.6301790  53.5694050  11.7999920  73.3148890  43.9385630   5.6162040
  72.4265590  44.2801600   5.5141920  73.5990080  43.7385950   4.7242870
  71.2781900  46.5391280  11.5001740  71.8498010  45.7713480  11.5005380
  71.2783440  46.8380040  10.5908350  81.1361850  55.3582130   9.3547010
  80.5173290  55.8139630   8.7841450  81.9913630  55.5133590   8.9536710
  80.3300100  51.3421120  10.9614050  80.2608380  50.4011060  10.8003180
  81.0919960  51.4322530  11.5336620  72.5206770  41.9475640  13.2870670
  72.3409610  41.0501390  13.5673430  72.1186850  42.4947510  13.9617620
  81.3605270  44.1491500  11.1882980  81.7370090  43.2763380  11.0756650
  81.2624780  44.4850200  10.2973420  75.4910280  42.5217130   6.6500420
  75.5977030  43.4220860   6.9569180  74.5802640  42.4735100   6.3595070
  85.1429390  41.6441940   8.1211320  85.9639010  41.1538510   8.1636800
  85.1763470  42.2339600   8.8743160  73.1393440  44.4436140  11.8953010
  73.8203550  44.7074510  12.5140410  72.8241490  43.6037010  12.2291020
  77.3318010  45.4903500  10.9825600  77.8396230  45.9884470  11.6230620
  77.8631250  44.7138700  10.8064960  89.4328940  43.6608690  14.6854950
  88.7281110  44.0490400  14.1670060  89.6986860  44.3558980  15.2875880
  75.6154110  40.1302060  15.2489020  75.6172550  40.6474450  14.4434920
  74.7858420  39.6532240  15.2258950  82.0025200  50.2421370   6.7478920
  81.3842470  50.7070820   6.1841640  82.5148450  50.9348850   7.1648430
  76.8656960  49.7697240  13.4262520  76.5326340  50.3966160  14.0683590
  77.0423640  50.2959120  12.6464190  85.3790870  43.5842320  10.8938860
  84.6746440  43.8727210  11.4741970  85.7403030  44.3942430  10.5338420
  75.2969440  41.8412020  13.2559470  75.6386250  42.6854070  12.9613340
  74.3585250  41.9895760  13.3724810  76.0776060  51.7378040  15.2411700
  76.6950060  52.4129120  14.9596150  75.2169180  52.1466020  15.1499200
  71.3708400  50.9277900   4.1218550  70.9936380  51.4165000   3.3903450
  71.6281470  51.6003180   4.7525080  86.9953650  53.2017450  13.1566340
  86.3117170  53.8716560  13.1483010  87.5347940  53.3998100  12.3911200
  88.4477790  43.0297110  11.2848070  87.5002700  43.0636090  11.4163500
  88.7727780  43.8436060  11.6697430  78.9797330  39.3294290   9.5804060
  79.2872310  38.7741180   8.8639560  78.0498030  39.4638750   9.3977050
  84.5312390  55.0461580  11.8711520  84.5439550  54.6423870  11.0033780
  83.9787610  55.8208870  11.7672950  85.8257810  51.7677800   6.9601690
  85.7154140  50.8252130   7.0851110  85.8226060  52.1293440   7.8464450
  83.9297830  49.9491420  13.1994130  84.3466620  49.7351530  12.3647590
  84.6537650  50.2064210  13.7702750  81.3678090  47.3943120   6.3164180
  80.4407370  47.3280500   6.5452650  81.5202910  48.3323250   6.2019420
  81.3547170  43.6660120   3.3131340  80.4150840  43.8274080   3.3983800
  81.6730430  44.3845800   2.7667330  87.8759930  48.3478640  13.2910370
  87.0478560  48.4171730  12.8160500  88.4710410  48.9332950  12.8226200
  85.3975380  48.9563420   6.8199430  84.7787800  48.6182970   6.1725730
  85.3799830  48.3123180   7.5278620  84.8401940  45.1347960  14.2365240
  84.4273120  45.9601670  14.4905230  84.1077890  44.5493000  14.0441600
  76.9734730  47.9207860   9.0983910  76.5691730  47.2085110   8.6029810
  77.0597850  47.5761100   9.9871950  77.4416430  51.6075420  11.2623120
  77.1444720  51.0020890  10.5830900  78.3916250  51.6452730  11.1512480
  75.6863350  44.6951070  12.8782950  76.2377940  44.8046410  12.1036200
  76.2006860  45.0688670  13.5938180  85.5302040  55.1807290  14.9246220
  85.0532600  55.9879480  14.7318830  84.8463830  54.5285620  15.0772430
  76.5334860  51.3457110  17.9130920  75.6363390  51.5697080  18.1604320
  76.5587730  51.4692050  16.9642320  83.5740080  48.1950230   3.8272180
  84.0133360  47.3572660   3.6810000  84.2868500  48.8279630   3.9136320
  75.3606080  48.2170430  16.4888290  75.2213850  49.0893230  16.8575690
  74.4787440  47.8743240  16.3436230  81.6835460  53.1346300   7.7953420
  82.1231370  53.8770630   7.3808810  81.6222350  53.3772870   8.7192380
  77.1586430  54.1592130  18.6973440  77.1301860  54.5635080  17.8301870
  76.9951400  53.2302490  18.5345040  87.1557220  39.4493040   2.1413220
  86.8429880  39.5419870   3.0412290  87.9169690  40.0274070   2.0910650
  73.6739360  46.8152840   6.5990560  73.5536960  47.5414930   5.9871830
  73.3640250  46.0455750   6.1218470  89.1101250  54.9419230  19.9937610
  89.5860970  55.4202120  20.6726690  89.7308410  54.8736720  19.2683110
  71.3124730  49.9867980  12.4059200  71.3905150  50.1216750  11.4614920
  71.9266410  49.2783870  12.5987320  72.5572360  51.6868170   8.8165380
  72.1500440  51.8282760   7.9618980  73.4485370  51.4028330   8.6136590
  88.5134500  52.1332080  17.1537620  88.6397560  51.8943960  16.2354800
  88.5555880  51.3016620  17.6259700  82.3751240  55.8360080  15.7232430
  82.8895910  55.7468090  16.5254860  81.5320320  56.1819780  16.0160340
  84.3505640  56.1215420   5.1516430  84.1906780  55.8318360   6.0498260
  84.1852350  55.3455550   4.6161660  76.8294020  55.9013950   6.9288050
  76.6536500  54.9849490   6.7155850  75.9749760  56.2601240   7.1685850
  84.0531770  53.6302980   3.7114430  83.3596930  53.6280270   3.0516710
  84.7954630  53.2062300   3.2808600  83.6181700  55.2565690   7.7862920
  84.0738650  54.4755070   8.1001540  83.9574220  55.9672510   8.3304100
  88.3658510  44.1864540  18.1187360  87.7502780  44.6944210  17.5902820
  88.0454930  43.2862870  18.0613300  71.3684250  51.0282150  14.9453660
  71.5315290  50.5587510  14.1273030  71.8336700  50.5205710  15.6102500
  76.1403020  40.1587910   9.9814230  75.6971170  40.9397450   9.6498750
  76.6988010  40.4817800  10.6885170  80.4272830  43.0256430  15.5849550
  79.9652200  43.2339450  16.3969490  80.0250940  42.2115780  15.2820220
  85.4277340  44.2465380  16.7146210  84.5770930  43.9471130  17.0355280
  85.2679130  44.4907390  15.8030030  79.2561840  39.7798610   4.8620060
  78.6316020  39.7758480   5.5873370  79.1691960  38.9129570   4.4656030
  78.1778920  40.7035240  11.8403830  78.4751250  41.6098070  11.7595850
  78.7264480  40.2154020  11.2263400  75.9317240  45.2821480   7.7095480
  75.7058160  45.0658650   8.6142100  75.1509770  45.7149940   7.3641450
  83.1615000  45.2884850   6.3086130  82.5623890  46.0120650   6.1249750
  83.7094610  45.2261630   5.5262580  78.3716450  46.1807060  18.3755750
  78.2760050  45.2401790  18.2256150  79.2148430  46.4022130  17.9803820
  81.7679870  43.9248390   8.3389410  82.1609440  44.2420590   7.5258100
  82.1296720  43.0460270   8.4533930  73.5026990  42.5920730  16.5289530
  73.1090380  43.4395940  16.7362310  72.8145390  41.9547100  16.7198170
  80.0772040  42.6755700  19.5986270  79.3870360  42.4827900  20.2332360
  80.8204340  42.9590340  20.1310570  70.8044040  40.5149190  10.5619610
  70.5157090  41.0852050  11.2744590  71.5489800  40.0353640  10.9250840
  82.3535010  46.5154140  12.4340190  81.6216130  47.0240950  12.7830290
  81.9559350  45.6984120  12.1328970  78.7912400  43.1908340  10.8392680
  78.7948460  42.7498290   9.9897220  79.6863520  43.5125670  10.9464500
  74.6414780  43.0734830   9.7986890  74.3014830  43.5510060  10.5553940
  73.8792100  42.6199950   9.4387990  78.8532550  44.1920420   3.8299440
  78.9745370  44.1506900   4.7785260  78.4681060  45.0544570   3.6746170
  82.8160920  41.9687820  11.8463130  82.8333660  42.4196470  12.6904980
  82.5676500  41.0693460  12.0596570  77.8654050  46.5021560   3.2282740
  77.2970950  46.0539810   2.6018650  78.5743050  46.8614340   2.6947890
  86.2431670  39.3820000  17.6849510  86.5677440  38.6509660  18.2107490
  86.2788180  39.0633640  16.7830500  79.0920370  47.2510120  12.5858090
  79.4590500  46.7768690  13.3319430  78.9025430  48.1251690  12.9266430
  71.9560860  41.9953810   8.7151560  71.6707780  41.6309480   9.5530180
  71.8939720  41.2634270   8.1014700  76.8819740  46.2918760  14.9042300
  76.5776810  47.1710740  15.1292660  77.8366200  46.3518550  14.9399740
  75.4101530  50.4979750   5.5009150  74.6363790  49.9577370   5.3407870
  76.1396160  49.9786360   5.1626910  86.1689510  49.4945110  11.2935540
  86.8888630  49.9900400  10.9031650  85.9671330  48.8163000  10.6489410
  81.6299450  40.8883070   5.4364930  80.8164060  40.3896240   5.3610240
  81.4361400  41.7281320   5.0201280  84.3447840  45.2602720   3.7327090
  85.2327460  45.5719950   3.5578430  84.3152930  44.3874970   3.3407670
  75.4538930  50.1660130   9.1387960  75.9717600  49.3628390   9.0844850
  75.0022950  50.1039270   9.9804790  80.3408430  51.4326410   4.4115260
  80.6824130  52.1768640   3.9158580  79.5121140  51.7457530   4.7740090
  76.1396590  47.5905740  18.9353210  75.8396730  47.7362920  18.0381030
  76.9107830  47.0311030  18.8426600  81.4825040  52.3874740  16.9308340
  81.4969580  51.4555700  16.7127250  80.7750140  52.4734500  17.5698110
  86.6162110  46.5714560   3.2006950  86.5325830  47.0028780   2.3503390
  87.3356300  47.0312910   3.6333770  87.6936250  49.0282080  16.2776920
  86.9684440  49.6210860  16.0806310  88.2211710  49.0205620  15.4790290
  87.6449360  53.4256820   5.9289080  87.0025520  52.7712440   6.2032800
  87.2580020  53.8311910   5.1529750  83.2235840  50.7542250   9.7760770
  83.5759660  50.1570380   9.1162140  82.3398170  50.4286480   9.9469020
  79.3099120  51.5139940   7.1831180  79.9970250  52.0609150   7.5638770
  78.5231540  52.0580670   7.2180790  71.4491520  47.1312760   2.6748260
  72.3186370  47.4137560   2.9584180  70.9581840  47.9448630   2.5597070
  78.6126330  48.5185970   6.7956540  79.0689110  49.3291220   7.0216730
  78.2614540  48.2009110   7.6275030  80.9158940  54.0292310  14.0248840
  81.5601160  54.2351690  14.7022260  81.2788380  53.2680710  13.5719690
  74.5138110  38.8623620   7.2679060  74.3852740  38.8541520   8.2163980
  73.6900130  39.2006710   6.9170070  82.1891020  52.0324660  12.7426290
  82.8313250  51.3317820  12.8558460  82.7140370  52.8123100  12.5623180
  86.0346740  52.3173280   2.4665430  85.8084320  51.6003720   3.0590070
  85.6442940  52.0685720   1.6287180  83.9628640  52.8319560  15.9462350
  84.2984880  53.4186250  16.6240270  83.0428980  52.7012270  16.1760140
  71.8162770  56.3440140   3.2409890  72.1760410  56.9429480   2.5867160
  71.6755110  56.8900030   4.0144920  71.5132040  40.6214740  16.7285760
  70.7990560  40.8211660  17.3338370  71.9327080  39.8454310  17.1000560
  85.6162990  50.2345220   4.1279590  85.3284690  50.6957910   4.9157470
  86.4115160  49.7742990   4.3963810  71.8004630  54.6095000  17.7152290
  71.9095750  53.6689740  17.5747680  71.1485190  54.8749750  17.0666020
  79.7917220  52.8810890  19.1150410  79.4714090  52.1620130  19.6596100
  79.1175580  53.5565960  19.1886470  77.8331390  53.7271340   4.0583560
  77.8241490  54.4601030   3.4428070  76.9129750  53.4802920   4.1510520
  73.4338030  48.9486230   4.8030320  72.8265980  49.6885130   4.8125620
  73.9087380  49.0385590   3.9768520  83.0070820  43.1137050  14.4787210
  83.3751640  42.2932260  14.8066780  82.1469020  43.1738940  14.8942860
  86.3732850  42.0693990   5.2874770  85.7446010  42.1739660   4.5733000
  85.8784770  42.2890770   6.0768650  80.8190990  53.7899580   2.7208750
  80.9202970  53.5863570   1.7910730  79.9192730  53.5357860   2.9256530
  78.3416880  44.3479940   6.7032650  77.6333030  44.8166280   7.1446260
  78.6261360  43.6901950   7.3377840  79.9672810  45.7676640  14.7025180
  80.4658060  46.2422460  15.3677030  80.1095760  44.8440160  14.9095210
  82.3732310  41.0730600   8.1428440  82.2500090  41.0916730   7.1937950
  83.3216870  41.1209540   8.2626840  79.4609100  56.3085900   7.4156420
  79.7150600  56.2707290   6.4935790  78.5121580  56.1819230   7.4084670
  76.5451900  42.6565020   4.0783360  77.3942430  43.0935170   4.0123550
  76.1783170  42.9685280   4.9055420  87.1739670  41.9844600  15.5453570
  86.6713270  42.7250000  15.8847380  87.9896330  42.3728600  15.2290360
  85.4661680  47.2277780   8.9914930  84.5251820  47.2428010   9.1662620
  85.7805750  46.4413740   9.4375230  75.4443320  48.9097380   2.5518890
  76.2106590  48.7978740   3.1144320  75.5218010  48.2135350   1.8995660
  74.1390080  46.3422450   3.2351780  74.2193670  45.3949960   3.3469180
  75.0309830  46.6729330   3.3412440  87.4687260  54.3986630  10.6669190
  87.5934680  55.2217800  11.1393000  88.3352820  54.1877360  10.3193340
  74.9404790  56.4917840  10.3386320  75.6767270  55.9433300  10.6094890
  75.3245710  57.3573850  10.1992310  71.8250270  52.5591410   6.2127830
  70.8990050  52.8012550   6.2033240  72.2906700  53.3865670   6.0912580
  84.2128070  55.5124070  18.0856720  85.1649820  55.4282090  18.0356960
  84.0656290  56.1765780  18.7590510  87.1037270  54.8918280   3.5848630
  86.8178780  54.4783420   2.7702810  86.9056820  55.8205990   3.4649150
  78.7198820  49.5708360  18.0043470  77.9544490  50.1393360  17.9198140
  78.9014780  49.2784570  17.1111700  81.8087230  49.9471590   2.6296230
  81.2597330  50.3940890   3.2738970  82.4306490  49.4420840   3.1533900
  77.4762350  48.9062510   4.5261530  77.8978770  48.7402380   5.3692920
  77.6013190  48.0962740   4.0316670  75.6389770  44.8859060  17.3332510
  75.1086230  44.3950010  16.7055850  76.3077840  45.3143260  16.7990440
  76.1262070  41.8521430  17.4129800  76.0318940  41.2342180  16.6880670
  75.5459460  42.5787720  17.1859710  78.8923510  40.4094670  14.4457190
  78.4440810  40.4318930  13.6002740  78.2588710  40.0113690  15.0427490
  79.2983060  49.3049000  15.0669630  79.7171170  50.1481730  14.8945870
  78.3791690  49.4421040  14.8376410  83.9734860  47.5902370  15.0269980
  83.4470080  48.1144990  14.4235120  84.3166200  48.2229760  15.6579710
  77.1490480  55.6102010  16.1827360  76.6111570  56.3348070  15.8636060
  77.4024440  55.1332350  15.3924700  78.4015730  43.5786530  17.7083290
  78.9915420  43.2702380  18.3961110  77.5835970  43.1066280  17.8643190
  83.2209160  43.1952340  17.9416310  82.5324680  42.5333880  17.8766300
  83.9415180  42.7490610  18.3864770  83.8509560  39.7903970   4.0006570
  84.1311850  38.9471870   4.3565990  83.0775290  40.0227080   4.5145320
  80.0052690  56.8453220  16.4414010  79.9311390  57.7488360  16.7486380
  79.1031530  56.5265120  16.4136080  78.3888980  41.0230980   2.4453770
  78.0410980  40.3454970   1.8656220  78.5901750  40.5620490   3.2597160
  80.5538020  56.0111730   4.0640370  81.4488810  56.3496700   4.0859130
  80.5855650  55.2891140   3.4364650  74.1934180  51.3838780   2.2927370
  74.6309050  51.9268450   2.9484950  74.6781910  50.5585730   2.3023710
  71.4079980  54.1727810   9.7447630  71.7382990  53.3048870   9.5126270
  71.8370980  54.3786330  10.5752590  76.0041900  52.5036820   7.4049600
  75.7037440  52.3801790   8.3053510  75.8979390  51.6445410   6.9965330
  71.8970190  55.0398400  12.4829260  71.4601180  55.2199200  13.3153410
  72.4647870  55.7973020  12.3410980  87.5332370  54.5415400  16.7706570
  86.9334360  54.6007960  16.0270490  87.6626270  53.6020380  16.9003420
  88.7733820  52.2833220   2.1076280  87.9426780  52.3509870   2.5783510
  88.9505650  53.1737340   1.8043140  88.2290280  49.0280700   4.6110480
  88.9909190  49.5977350   4.7170170  88.2444650  48.4607900   5.3818790
  71.7294620  47.5518630   8.8418140  71.0743460  47.2830270   8.1977840
  72.5672570  47.4423110   8.3920120  89.2350250  49.8830800   9.4552410
  89.6059080  49.0998120   9.0488380  89.8752180  50.5719900   9.2769710
  86.2184010  51.2667380  14.8682730  85.4043850  51.6964540  15.1308520
  86.6258210  51.8785790  14.2551780  88.2809450  49.3215070   1.7683000
  88.5558290  50.2293950   1.6402220  88.0920190  49.2577600   2.7044990
  84.6785060  42.3459920   3.0636630  85.0969940  42.1590900   2.2233290
  84.3721120  41.4938970   3.3739560  88.1774790  47.2584060   6.7612430
  87.8018390  46.4911990   6.3293720  87.4477910  47.6406760   7.2487360
  72.7670550  47.9371200  13.3821480  73.1343590  47.8498600  14.2617500
  72.1981370  47.1737750  13.2828340  87.5674410  46.4055580  16.3951950
  87.3360500  46.1768330  15.4949900  87.8278960  47.3255130  16.3496840
  86.0062480  41.6312010  19.1731650  86.8832660  41.6395410  19.5565650
  86.0183320  40.8942850  18.5624000  70.9432700  44.7617560   4.7843470
  70.0396780  45.0247760   4.6095130  71.4273320  45.0328730   4.0043430
  87.4525750  45.4841550  10.0619670  87.9763230  44.9904200   9.4309840
  88.0385170  45.6191910  10.8067240  87.6315470  45.5681420  13.5839220
  86.6818180  45.5344960  13.6984210  87.8128480  46.4781530  13.3488990
  73.4859910  43.8183100   2.6937850  74.1951610  43.3966320   2.2085130
  72.7699850  43.8858330   2.0621200  86.9425720  44.7414900   6.0012080
  87.4384840  44.5085770   6.7860960  86.7441790  43.9026740   5.5849720
  72.8226260  39.1228620  11.6363120  73.4702450  38.5726000  11.1958280
  73.2428100  39.3771770  12.4578930  88.3712880  43.3775850   8.5349760
  88.2612160  43.2231890   9.4732030  89.1320470  42.8496790   8.2925170
  86.7178600  39.3169980  14.9932760  87.3550820  39.9304120  15.3591950
  86.8653490  39.3530640  14.0481990  89.2603150  41.2083770   1.7755900
  90.1852460  41.0764950   1.5674190  89.2378940  41.2876590   2.7292350
  89.3341640  41.9794430   4.4012610  88.5393140  41.9139550   4.9305520
  89.5384920  42.9145070   4.3897960  86.2760060  56.0185980   8.3951000
  86.8719130  55.6970550   7.7185420  86.5338210  55.5457800   9.1864270
  72.5758260  39.2784290  14.3788440  72.2273080  39.7348110  15.1446620
  72.2445960  38.3841420  14.4610870  77.8828660  54.0063480  14.1451350
  77.6420020  54.2738040  13.2581870  78.8231300  54.1769210  14.2002210
  80.0883080  40.4696170  17.9007860  80.0271970  41.0618000  18.6503270
  81.0283460  40.3622130  17.7558120  82.7257640  40.1266230  17.5400150
  83.3398050  40.4445520  16.8781230  83.2707200  39.6414820  18.1596010
  89.1432820  56.0257860  14.9461990  88.6491100  56.4226730  14.2289120
  88.5346110  55.4007070  15.3399270  73.2478900  38.8060490  17.6539210
  73.7961890  38.6248540  16.8905320  73.3134210  38.0154600  18.1895520
  74.0210660  55.3966140  15.6639410  73.4270980  55.2650840  16.4029450
  74.0134500  54.5604280  15.1981510  83.4665680  38.6898370  13.8669440
  82.5925520  39.0233480  13.6642370  83.3576430  38.2171550  14.6921310
  84.3737660  40.8969240  15.2511160  84.0451020  40.0821000  14.8712890
  85.3219960  40.8539050  15.1276850  86.8272270  56.6681280  12.2248730
  86.3675240  57.4197090  11.8506750  86.1984730  55.9487750  12.1663530
  73.6522890  52.7624520  14.6147450  72.9256950  52.1429810  14.5473400
  73.7132040  53.1565130  13.7445530  77.2567990  54.9769520  11.3996860
  77.7733010  54.3656880  10.8745120  77.9065370  55.4798300  11.8907870
  79.9963490  55.8678010  12.2265840  80.2841300  55.6132310  11.3498850
  80.5086710  55.3155370  12.8171410  81.2140500  39.6068210  12.8062350
  80.4312290  40.0813710  13.0859110  80.9203430  38.7023040  12.6975530
  85.7661570  40.3091310  10.8511440  86.2069660  40.2536410  10.0033040
  85.4969160  41.2249320  10.9221620  87.6300140  39.9406550   8.8620260
  87.5688540  38.9967770   8.7151280  88.4092170  40.0486640   9.4073720
  71.9352890  56.0798910   7.8244210  71.7674930  55.4469590   8.5226100
  71.0687400  56.2858310   7.4738400  72.5580910  39.9115690   5.3276070
  73.3160270  40.0244570   4.7540100  72.0958080  40.7484890   5.2819500
  79.0994720  42.0254960   8.3178380  78.2869230  41.6511850   7.9774260
  79.6036360  41.2700040   8.6199570  83.6019700  38.6897410   9.5561450
  84.2049070  39.2617620  10.0309970  82.8612690  39.2536850   9.3335350
  86.7454300  39.0918970   4.8301730  86.9404930  39.9902420   5.0969160
  85.9584170  38.8606050   5.3234680  73.5415590  54.7732140   5.2694350
  73.0163210  55.1540170   4.5656310  73.4660170  55.3982910   5.9904060
  74.9306060  40.4379740   3.8678040  75.4598820  39.6509540   3.7385990
  75.5634380  41.1170930   4.1013570  77.1243900  40.1754880   6.9223430
  76.4946640  39.4742190   7.0893560  76.5849040  40.9359010   6.7056590
  80.0635850  56.7894110  19.5934040  80.9903160  56.5538380  19.6370000
  80.0486280  57.6166110  19.1120070  88.2980910  56.3319680   6.5908290
  88.4733100  55.6457420   5.9469210  87.6002480  56.8566730   6.1984960
  77.2499460  39.4538860  19.3575920  76.9683730  39.9572460  18.5936740
  77.6319160  38.6560610  18.9918050  76.1408560  56.7214520   4.1443600
  76.8727380  56.4373800   3.5967490  76.4002230  56.4827800   5.0342980
  75.3023350  52.8379250   4.1489930  74.6732230  53.3064350   4.6975760
  75.4171180  51.9928470   4.5836120  83.8514920  38.8692440  19.9356390
  83.7380370  39.1887050  20.8307910  84.6684660  39.2704950  19.6393670
  86.6313410  56.0163970  19.4175080  87.4238730  55.5213200  19.2101040
  86.9246560  56.6954110  20.0250690  82.7573070  28.1141420  65.3965090
  82.6767120  27.1996030  65.1256800  82.3437490  28.6108490  64.6904800
  80.8891110  29.8920440  67.2774360  80.1133210  29.4120880  67.5672930
  81.5404040  29.2126090  67.1030520  74.9056940  30.2040250  68.1550120
  74.0741820  29.9488960  68.5546630  75.5137920  30.2751020  68.8908040
  84.9098540  34.2980630  66.0573490  84.4480070  33.5267870  66.3860660
  85.7224090  34.3246700  66.5625940  74.8858200  34.2380340  68.3508140
  75.1886240  33.3478080  68.1718360  75.6301790  34.7950560  68.1230390
  73.3148890  25.1642140  61.9392510  72.4265590  25.5058110  61.8372390
  73.5990080  24.9642460  61.0473340  71.2781900  27.7647790  67.8232210
  71.8498010  26.9969990  67.8235850  71.2783440  28.0636550  66.9138820
  81.1361850  36.5838640  65.6777480  80.5173290  37.0396140  65.1071920
  81.9913630  36.7390100  65.2767180  80.3300100  32.5677630  67.2844520
  80.2608380  31.6267570  67.1233650  81.0919960  32.6579040  67.8567090
  72.5206770  23.1732150  69.6101140  72.3409610  22.2757900  69.8903900
  72.1186850  23.7204020  70.2848090  81.3605270  25.3748010  67.5113450
  81.7370090  24.5019890  67.3987120  81.2624780  25.7106710  66.6203890
  75.4910280  23.7473640  62.9730890  75.5977030  24.6477370  63.2799650
  74.5802640  23.6991610  62.6825540  85.1429390  22.8698450  64.4441790
  85.9639010  22.3795020  64.4867270  85.1763470  23.4596110  65.1973630
  73.1393440  25.6692650  68.2183480  73.8203550  25.9331020  68.8370880
  72.8241490  24.8293520  68.5521490  77.3318010  26.7160010  67.3056070
  77.8396230  27.2140980  67.9461090  77.8631250  25.9395210  67.1295430
  89.4328940  24.8865200  71.0085420  88.7281110  25.2746910  70.4900530
  89.6986860  25.5815490  71.6106350  75.6154110  21.3558570  71.5719490
  75.6172550  21.8730960  70.7665390  74.7858420  20.8788750  71.5489420
  82.0025200  31.4677880  63.0709390  81.3842470  31.9327330  62.5072110
  82.5148450  32.1605360  63.4878900  76.8656960  30.9953750  69.7492990
  76.5326340  31.6222670  70.3914060  77.0423640  31.5215630  68.9694660
  85.3790870  24.8098830  67.2169330  84.6746440  25.0983720  67.7972440
  85.7403030  25.6198940  66.8568890  75.2969440  23.0668530  69.5789940
  75.6386250  23.9110580  69.2843810  74.3585250  23.2152270  69.6955280
  76.0776060  32.9634550  71.5642170  76.6950060  33.6385630  71.2826620
  75.2169180  33.3722530  71.4729670  71.3708400  32.1534410  60.4449020
  70.9936380  32.6421510  59.7133920  71.6281470  32.8259690  61.0755550
  86.9953650  34.4273960  69.4796810  86.3117170  35.0973070  69.4713480
  87.5347940  34.6254610  68.7141670  88.4477790  24.2553620  67.6078540
  87.5002700  24.2892600  67.7393970  88.7727780  25.0692570  67.9927900
  78.9797330  20.5550800  65.9034530  79.2872310  19.9997690  65.1870030
  78.0498030  20.6895260  65.7207520  84.5312390  36.2718090  68.1941990
  84.5439550  35.8680380  67.3264250  83.9787610  37.0465380  68.0903420
  85.8257810  32.9934310  63.2832160  85.7154140  32.0508640  63.4081580
  85.8226060  33.3549950  64.1694920  83.9297830  31.1747930  69.5224600
  84.3466620  30.9608040  68.6878060  84.6537650  31.4320720  70.0933220
  81.3678090  28.6199630  62.6394650  80.4407370  28.5537010  62.8683120
  81.5202910  29.5579760  62.5249890  81.3547170  24.8916630  59.6361810
  80.4150840  25.0530590  59.7214270  81.6730430  25.6102310  59.0897800
  87.8759930  29.5735150  69.6140840  87.0478560  29.6428240  69.1390970
  88.4710410  30.1589460  69.1456670  85.3975380  30.1819930  63.1429900
  84.7787800  29.8439480  62.4956200  85.3799830  29.5379690  63.8509090
  84.8401940  26.3604470  70.5595710  84.4273120  27.1858180  70.8135700
  84.1077890  25.7749510  70.3672070  76.9734730  29.1464370  65.4214380
  76.5691730  28.4341620  64.9260280  77.0597850  28.8017610  66.3102420
  77.4416430  32.8331930  67.5853590  77.1444720  32.2277400  66.9061370
  78.3916250  32.8709240  67.4742950  75.6863350  25.9207580  69.2013420
  76.2377940  26.0302920  68.4266670  76.2006860  26.2945180  69.9168650
  85.5302040  36.4063800  71.2476690  85.0532600  37.2135990  71.0549300
  84.8463830  35.7542130  71.4002900  76.5334860  32.5713620  74.2361390
  75.6363390  32.7953590  74.4834790  76.5587730  32.6948560  73.2872790
  83.5740080  29.4206740  60.1502650  84.0133360  28.5829170  60.0040470
  84.2868500  30.0536140  60.2366790  75.3606080  29.4426940  72.8118760
  75.2213850  30.3149740  73.1806160  74.4787440  29.0999750  72.6666700
  81.6835460  34.3602810  64.1183890  82.1231370  35.1027140  63.7039280
  81.6222350  34.6029380  65.0422850  77.1586430  35.3848640  75.0203910
  77.1301860  35.7891590  74.1532340  76.9951400  34.4559000  74.8575510
  87.1557220  20.6749550  58.4643690  86.8429880  20.7676380  59.3642760
  87.9169690  21.2530580  58.4141120  73.6739360  28.0409350  62.9221030
  73.5536960  28.7671440  62.3102300  73.3640250  27.2712260  62.4448940
  71.3124730  31.2124490  68.7289670  71.3905150  31.3473260  67.7845390
  71.9266410  30.5040380  68.9217790  72.5572360  32.9124680  65.1395850
  72.1500440  33.0539270  64.2849450  73.4485370  32.6284840  64.9367060
  88.5134500  33.3588590  73.4768090  88.6397560  33.1200470  72.5585270
  88.5555880  32.5273130  73.9490170  82.3751240  37.0616590  72.0462900
  82.8895910  36.9724600  72.8485330  81.5320320  37.4076290  72.3390810
  84.3505640  37.3471930  61.4746900  84.1906780  37.0574870  62.3728730
  84.1852350  36.5712060  60.9392130  76.8294020  37.1270460  63.2518520
  76.6536500  36.2106000  63.0386320  75.9749760  37.4857750  63.4916320
  84.0531770  34.8559490  60.0344900  83.3596930  34.8536780  59.3747180
  84.7954630  34.4318810  59.6039070  83.6181700  36.4822200  64.1093390
  84.0738650  35.7011580  64.4232010  83.9574220  37.1929020  64.6534570
  88.3658510  25.4121050  74.4417830  87.7502780  25.9200720  73.9133290
  88.0454930  24.5119380  74.3843770  71.3684250  32.2538660  71.2684130
  71.5315290  31.7844020  70.4503500  71.8336700  31.7462220  71.9332970
  76.1403020  21.3844420  66.3044700  75.6971170  22.1653960  65.9729220
  76.6988010  21.7074310  67.0115640  80.4272830  24.2512940  71.9080020
  79.9652200  24.4595960  72.7199960  80.0250940  23.4372290  71.6050690
  85.4277340  25.4721890  73.0376680  84.5770930  25.1727640  73.3585750
  85.2679130  25.7163900  72.1260500  82.5227050  26.9723640  75.1375470
  82.8480460  26.1387390  74.7977700  83.3107380  27.4952160  75.2853800
  79.2561840  21.0055120  61.1850530  78.6316020  21.0014990  61.9103840
  79.1691960  20.1386080  60.7886500  78.1778920  21.9291750  68.1634300
  78.4751250  22.8354580  68.0826320  78.7264480  21.4410530  67.5493870
  75.9317240  26.5077990  64.0325950  75.7058160  26.2915160  64.9372570
  75.1509770  26.9406450  63.6871920  83.1615000  26.5141360  62.6316600
  82.5623890  27.2377160  62.4480220  83.7094610  26.4518140  61.8493050
  78.3716450  27.4063570  74.6986220  78.2760050  26.4658300  74.5486620
  79.2148430  27.6278640  74.3034290  81.7679870  25.1504900  64.6619880
  82.1609440  25.4677100  63.8488570  82.1296720  24.2716780  64.7764400
  73.5026990  23.8177240  72.8520000  73.1090380  24.6652450  73.0592780
  72.8145390  23.1803610  73.0428640  70.8044040  21.7405700  66.8850080
  70.5157090  22.3108560  67.5975060  71.5489800  21.2610150  67.2481310
  70.9914270  25.6825820  58.0952800  70.9088940  26.6256580  58.2367790
  70.6397330  25.5400730  57.2165150  82.3535010  27.7410650  68.7570660
  81.6216130  28.2497460  69.1060760  81.9559350  26.9240630  68.4559440
  78.7912400  24.4164850  67.1623150  78.7948460  23.9754800  66.3127690
  79.6863520  24.7382180  67.2694970  74.6414780  24.2991340  66.1217360
  74.3014830  24.7766570  66.8784410  73.8792100  23.8456460  65.7618460
  78.8532550  25.4176930  60.1529910  78.9745370  25.3763410  61.1015730
  78.4681060  26.2801080  59.9976640  82.8160920  23.1944330  68.1693600
  82.8333660  23.6452980  69.0135450  82.5676500  22.2949970  68.3827040
  77.8654050  27.7278070  59.5513210  77.2970950  27.2796320  58.9249120
  78.5743050  28.0870850  59.0178360  86.2431670  20.6076510  74.0079980
  86.5677440  19.8766170  74.5337960  86.2788180  20.2890150  73.1060970
  72.9423230  31.6290090  73.4279940  72.5578020  30.9883760  74.0262900
  73.2535420  32.3326210  73.9974670  79.0920370  28.4766630  68.9088560
  79.4590500  28.0025200  69.6549900  78.9025430  29.3508200  69.2496900
  71.9560860  23.2210320  65.0382030  71.6707780  22.8565990  65.8760650
  71.8939720  22.4890780  64.4245170  76.8819740  27.5175270  71.2272770
  76.5776810  28.3967250  71.4523130  77.8366200  27.5775060  71.2630210
  75.4101530  31.7236260  61.8239620  74.6363790  31.1833880  61.6638340
  76.1396160  31.2042870  61.4857380  86.1689510  30.7201620  67.6166010
  86.8888630  31.2156910  67.2262120  85.9671330  30.0419510  66.9719880
  81.6299450  22.1139580  61.7595400  80.8164060  21.6152750  61.6840710
  81.4361400  22.9537830  61.3431750  81.5508310  30.7910680  73.5035010
  81.4845620  29.8706350  73.2492600  80.9213450  30.8886120  74.2179650
  84.3447840  26.4859230  60.0557560  85.2327460  26.7976460  59.8808900
  84.3152930  25.6131480  59.6638140  75.4538930  31.3916640  65.4618430
  75.9717600  30.5884900  65.4075320  75.0022950  31.3295780  66.3035260
  80.3408430  32.6582920  60.7345730  80.6824130  33.4025150  60.2389050
  79.5121140  32.9714040  61.0970560  72.9383470  28.3578010  72.3744130
  72.5798410  29.0231860  72.9617470  72.6438030  27.5261560  72.7456750
  76.1396590  28.8162250  75.2583680  75.8396730  28.9619430  74.3611500
  76.9107830  28.2567540  75.1657070  81.4825040  33.6131250  73.2538810
  81.4969580  32.6812210  73.0357720  80.7750140  33.6991010  73.8928580
  86.6162110  27.7971070  59.5237420  86.5325830  28.2285290  58.6733860
  87.3356300  28.2569420  59.9564240  87.6936250  30.2538590  72.6007390
  86.9684440  30.8467370  72.4036780  88.2211710  30.2462130  71.8020760
  87.6449360  34.6513330  62.2519550  87.0025520  33.9968950  62.5263270
  87.2580020  35.0568420  61.4760220  83.2235840  31.9798760  66.0991240
  83.5759660  31.3826890  65.4392610  82.3398170  31.6542990  66.2699490
  79.3099120  32.7396450  63.5061650  79.9970250  33.2865660  63.8869240
  78.5231540  33.2837180  63.5411260  71.4491520  28.3569270  58.9978730
  72.3186370  28.6394070  59.2814650  70.9581840  29.1705140  58.8827540
  78.6126330  29.7442480  63.1187010  79.0689110  30.5547730  63.3447200
  78.2614540  29.4265620  63.9505500  80.9158940  35.2548820  70.3479310
  81.5601160  35.4608200  71.0252730  81.2788380  34.4937220  69.8950160
  74.5138110  20.0880130  63.5909530  74.3852740  20.0798030  64.5394450
  73.6900130  20.4263220  63.2400540  82.1891020  33.2581170  69.0656760
  82.8313250  32.5574330  69.1788930  82.7140370  34.0379610  68.8853650
  86.0346740  33.5429790  58.7895900  85.8084320  32.8260230  59.3820540
  85.6442940  33.2942230  57.9517650  83.9628640  34.0576070  72.2692820
  84.2984880  34.6442760  72.9470740  83.0428980  33.9268780  72.4990610
  71.8162770  37.5696650  59.5640360  72.1760410  38.1685990  58.9097630
  71.6755110  38.1156540  60.3375390  71.5132040  21.8471250  73.0516230
  70.7990560  22.0468170  73.6568840  71.9327080  21.0710820  73.4231030
  85.6162990  31.4601730  60.4510060  85.3284690  31.9214420  61.2387940
  86.4115160  30.9999500  60.7194280  71.8004630  35.8351510  74.0382760
  71.9095750  34.8946250  73.8978150  71.1485190  36.1006260  73.3896490
  79.7917220  34.1067400  75.4380880  79.4714090  33.3876640  75.9826570
  79.1175580  34.7822470  75.5116940  77.8331390  34.9527850  60.3814030
  77.8241490  35.6857540  59.7658540  76.9129750  34.7059430  60.4740990
  73.4338030  30.1742740  61.1260790  72.8265980  30.9141640  61.1356090
  73.9087380  30.2642100  60.2998990  83.0070820  24.3393560  70.8017680
  83.3751640  23.5188770  71.1297250  82.1469020  24.3995450  71.2173330
  86.3732850  23.2950500  61.6105240  85.7446010  23.3996170  60.8963470
  85.8784770  23.5147280  62.3999120  80.8190990  35.0156090  59.0439220
  80.9202970  34.8120080  58.1141200  79.9192730  34.7614370  59.2487000
  78.3416880  25.5736450  63.0263120  77.6333030  26.0422790  63.4676730
  78.6261360  24.9158460  63.6608310  79.9672810  26.9933150  71.0255650
  80.4658060  27.4678970  71.6907500  80.1095760  26.0696670  71.2325680
  82.3732310  22.2987110  64.4658910  82.2500090  22.3173240  63.5168420
  83.3216870  22.3466050  64.5857310  79.4609100  37.5342410  63.7386890
  79.7150600  37.4963800  62.8166260  78.5121580  37.4075740  63.7315140
  76.5451900  23.8821530  60.4013830  77.3942430  24.3191680  60.3354020
  76.1783170  24.1941790  61.2285890  87.1739670  23.2101110  71.8684040
  86.6713270  23.9506510  72.2077850  87.9896330  23.5985110  71.5520830
  85.4661680  28.4534290  65.3145400  84.5251820  28.4684520  65.4893090
  85.7805750  27.6670250  65.7605700  75.4443320  30.1353890  58.8749360
  76.2106590  30.0235250  59.4374790  75.5218010  29.4391860  58.2226130
  74.1390080  27.5678960  59.5582250  74.2193670  26.6206470  59.6699650
  75.0309830  27.8985840  59.6642910  87.4687260  35.6243140  66.9899660
  87.5934680  36.4474310  67.4623470  88.3352820  35.4133870  66.6423810
  74.9404790  37.7174350  66.6616790  75.6767270  37.1689810  66.9325360
  75.3245710  38.5830360  66.5222780  71.8250270  33.7847920  62.5358300
  70.8990050  34.0269060  62.5263710  72.2906700  34.6122180  62.4143050
  78.0507100  36.8904660  58.4842360  78.8435710  37.1793490  58.0324150
  77.5311450  36.4596830  57.8054840  84.2128070  36.7380580  74.4087190
  85.1649820  36.6538600  74.3587430  84.0656290  37.4022290  75.0820980
  87.1037270  36.1174790  59.9079100  86.8178780  35.7039930  59.0933280
  86.9056820  37.0462500  59.7879620  71.6660880  29.3893880  74.7938420
  72.1699900  28.8101160  75.3654650  70.9268300  29.6734110  75.3314790
  78.5684500  32.1108070  58.3484710  78.4635140  31.4960420  59.0746090
  78.4008720  31.5873960  57.5647720  78.7198820  30.7964870  74.3273940
  77.9544490  31.3649870  74.2428610  78.9014780  30.5041080  73.4342170
  81.8087230  31.1728100  58.9526700  81.2597330  31.6197400  59.5969440
  82.4306490  30.6677350  59.4764370  85.8622170  32.5270200  74.8848960
  86.6031640  32.8645960  74.3816420  85.0994850  32.6962260  74.3318730
  77.4762350  30.1319020  60.8492000  77.8978770  29.9658890  61.6923390
  77.6013190  29.3219250  60.3547140  75.6389770  26.1115570  73.6562980
  75.1086230  25.6206520  73.0286320  76.3077840  26.5399770  73.1220910
  79.9889990  29.1556630  58.0969100  80.5095650  28.4405650  57.7310250
  80.6358390  29.7942500  58.3969610  84.5367830  30.5785030  73.4204170
  84.9508850  30.7330110  74.2694590  83.6018830  30.7040250  73.5829950
  85.0090000  27.9181190  75.4243320  85.5910770  27.1633510  75.3363800
  85.1851770  28.4488630  74.6474800  76.1262070  23.0777940  73.7360270
  76.0318940  22.4598690  73.0111140  75.5459460  23.8044230  73.5090180
  78.8923510  21.6351180  70.7687660  78.4440810  21.6575440  69.9233210
  78.2588710  21.2370200  71.3657960  79.2983060  30.5305510  71.3900100
  79.7171170  31.3738240  71.2176340  78.3791690  30.6677550  71.1606880
  81.6346960  28.2621690  72.7737940  81.7543170  27.6662830  73.5132780
  82.4940960  28.2991380  72.3539240  83.9734860  28.8158880  71.3500450
  83.4470080  29.3401500  70.7465590  84.3166200  29.4486270  71.9810180
  76.3721250  26.2052250  57.7950160  76.1710310  25.3419610  58.1563500
  76.2013300  26.1185610  56.8571760  77.1490480  36.8358520  72.5057830
  76.6111570  37.5604580  72.1866530  77.4024440  36.3588860  71.7155170
  78.4015730  24.8043040  74.0313760  78.9915420  24.4958890  74.7191580
  77.5835970  24.3322790  74.1873660  83.2209160  24.4208850  74.2646780
  82.5324680  23.7590390  74.1996770  83.9415180  23.9747120  74.7095240
  83.8509560  21.0160480  60.3237040  84.1311850  20.1728380  60.6796460
  83.0775290  21.2483590  60.8375790  75.1704050  23.3052870  57.7828040
  75.4729950  23.3120300  56.8747190  75.9098640  22.9550730  58.2795700
  80.0052690  38.0709730  72.7644480  79.9311390  38.9744870  73.0716850
  79.1031530  37.7521630  72.7366550  78.3888980  22.2487490  58.7684240
  78.0410980  21.5711480  58.1886690  78.5901750  21.7877000  59.5827630
  80.5538020  37.2368240  60.3870840  81.4488810  37.5753210  60.4089600
  80.5855650  36.5147650  59.7595120  74.1934180  32.6095290  58.6157840
  74.6309050  33.1524960  59.2715420  74.6781910  31.7842240  58.6254180
  71.4079980  35.3984320  66.0678100  71.7382990  34.5305380  65.8356740
  71.8370980  35.6042840  66.8983060  76.0041900  33.7293330  63.7280070
  75.7037440  33.6058300  64.6283980  75.8979390  32.8701920  63.3195800
  71.8970190  36.2654910  68.8059730  71.4601180  36.4455710  69.6383880
  72.4647870  37.0229530  68.6641450  87.5332370  35.7671910  73.0937040
  86.9334360  35.8264470  72.3500960  87.6626270  34.8276890  73.2233890
  88.7733820  33.5089730  58.4306750  87.9426780  33.5766380  58.9013980
  88.9505650  34.3993850  58.1273610  88.2290280  30.2537210  60.9340950
  88.9909190  30.8233860  61.0400640  88.2444650  29.6864410  61.7049260
  71.7294620  28.7775140  65.1648610  71.0743460  28.5086780  64.5208310
  72.5672570  28.6679620  64.7150590  89.2350250  31.1087310  65.7782880
  89.6059080  30.3254630  65.3718850  89.8752180  31.7976410  65.6000180
  86.2184010  32.4923890  71.1913200  85.4043850  32.9221050  71.4538990
  86.6258210  33.1042300  70.5782250  88.2809450  30.5471580  58.0913470
  88.5558290  31.4550460  57.9632690  88.0920190  30.4834110  59.0275460
  84.6785060  23.5716430  59.3867100  85.0969940  23.3847410  58.5463760
  84.3721120  22.7195480  59.6970030  88.1774790  28.4840570  63.0842900
  87.8018390  27.7168500  62.6524190  87.4477910  28.8663270  63.5717830
  72.7670550  29.1627710  69.7051950  73.1343590  29.0755110  70.5847970
  72.1981370  28.3994260  69.6058810  87.5674410  27.6312090  72.7182420
  87.3360500  27.4024840  71.8180370  87.8278960  28.5511640  72.6727310
  72.3186550  26.0736800  73.6110370  71.4242600  26.0403560  73.9504080
  72.8584100  26.2723590  74.3761620  86.0062480  22.8568520  75.4962120
  86.8832660  22.8651920  75.8796120  86.0183320  22.1199360  74.8854470
  70.9432700  25.9874070  61.1073940  70.0396780  26.2504270  60.9325600
  71.4273320  26.2585240  60.3273900  87.4525750  26.7098060  66.3850140
  87.9763230  26.2160710  65.7540310  88.0385170  26.8448420  67.1297710
  87.6315470  26.7937930  69.9069690  86.6818180  26.7601470  70.0214680
  87.8128480  27.7038040  69.6719460  73.4859910  25.0439610  59.0168320
  74.1951610  24.6222830  58.5315600  72.7699850  25.1114840  58.3851670
  73.1334070  21.0978940  58.0570970  73.8562200  21.6387880  58.3752190
  73.4058590  20.8242360  57.1812510  86.9425720  25.9671410  62.3242550
  87.4384840  25.7342280  63.1091430  86.7441790  25.1283250  61.9080190
  72.8226260  20.3485130  67.9593590  73.4702450  19.7982510  67.5188750
  73.2428100  20.6028280  68.7809400  88.3712880  24.6032360  64.8580230
  88.2612160  24.4488400  65.7962500  89.1320470  24.0753300  64.6155640
  86.7178600  20.5426490  71.3163230  87.3550820  21.1560630  71.6822420
  86.8653490  20.5787150  70.3712460  89.2603150  22.4340280  58.0986370
  90.1852460  22.3021460  57.8904660  89.2378940  22.5133100  59.0522820
  89.3341640  23.2050940  60.7243080  88.5393140  23.1396060  61.2535990
  89.5384920  24.1401580  60.7128430  86.2760060  37.2442490  64.7181470
  86.8719130  36.9227060  64.0415890  86.5338210  36.7714310  65.5094740
  72.5758260  20.5040800  70.7018910  72.2273080  20.9604620  71.4677090
  72.2445960  19.6097930  70.7841340  74.1822630  33.6760400  74.8672100
  74.1392260  33.3053310  75.7486560  74.3133640  34.6137970  75.0073920
  77.8828660  35.2319990  70.4681820  77.6420020  35.4994550  69.5812340
  78.8231300  35.4025720  70.5232680  80.0883080  21.6952680  74.2238330
  80.0271970  22.2874510  74.9733740  81.0283460  21.5878640  74.0788590
  82.7257640  21.3522740  73.8630620  83.3398050  21.6702030  73.2011700
  83.2707200  20.8671330  74.4826480  89.1432820  37.2514370  71.2692460
  88.6491100  37.6483240  70.5519590  88.5346110  36.6263580  71.6629740
  73.2478900  20.0317000  73.9769680  73.7961890  19.8505050  73.2135790
  73.3134210  19.2411110  74.5125990  74.0210660  36.6222650  71.9869880
  73.4270980  36.4907350  72.7259920  74.0134500  35.7860790  71.5211980
  83.4665680  19.9154880  70.1899910  82.5925520  20.2489990  69.9872840
  83.3576430  19.4428060  71.0151780  84.3737660  22.1225750  71.5741630
  84.0451020  21.3077510  71.1943360  85.3219960  22.0795560  71.4507320
  86.8272270  37.8937790  68.5479200  86.3675240  38.6453600  68.1737220
  86.1984730  37.1744260  68.4894000  73.6522890  33.9881030  70.9377920
  72.9256950  33.3686320  70.8703870  73.7132040  34.3821640  70.0676000
  77.2567990  36.2026030  67.7227330  77.7733010  35.5913390  67.1975590
  77.9065370  36.7054810  68.2138340  79.9963490  37.0934520  68.5496310
  80.2841300  36.8388820  67.6729320  80.5086710  36.5411880  69.1401880
  81.2140500  20.8324720  69.1292820  80.4312290  21.3070220  69.4089580
  80.9203430  19.9279550  69.0206000  85.7661570  21.5347820  67.1741910
  86.2069660  21.4792920  66.3263510  85.4969160  22.4505830  67.2452090
  87.6300140  21.1663060  65.1850730  87.5688540  20.2224280  65.0381750
  88.4092170  21.2743150  65.7304190  71.9352890  37.3055420  64.1474680
  71.7674930  36.6726100  64.8456570  71.0687400  37.5114820  63.7968870
  72.5580910  21.1372200  61.6506540  73.3160270  21.2501080  61.0770570
  72.0958080  21.9741400  61.6049970  79.0994720  23.2511470  64.6408850
  78.2869230  22.8768360  64.3004730  79.6036360  22.4956550  64.9430040
  83.6019700  19.9153920  65.8791920  84.2049070  20.4874130  66.3540440
  82.8612690  20.4793360  65.6565820  86.7454300  20.3175480  61.1532200
  86.9404930  21.2158930  61.4199630  85.9584170  20.0862560  61.6465150
  73.5415590  35.9988650  61.5924820  73.0163210  36.3796680  60.8886780
  73.4660170  36.6239420  62.3134530  74.9306060  21.6636250  60.1908510
  75.4598820  20.8766050  60.0616460  75.5634380  22.3427440  60.4244040
  77.1243900  21.4011390  63.2453900  76.4946640  20.6998700  63.4124030
  76.5849040  22.1615520  63.0287060  80.0635850  38.0150620  75.9164510
  80.9903160  37.7794890  75.9600470  80.0486280  38.8422620  75.4350540
  88.2980910  37.5576190  62.9138760  88.4733100  36.8713930  62.2699680
  87.6002480  38.0823240  62.5215430  77.2499460  20.6795370  75.6806390
  76.9683730  21.1828970  74.9167210  77.6319160  19.8817120  75.3148520
  76.1408560  37.9471030  60.4674070  76.8727380  37.6630310  59.9197960
  76.4002230  37.7084310  61.3573450  75.3023350  34.0635760  60.4720400
  74.6732230  34.5320860  61.0206230  75.4171180  33.2184980  60.9066590
  82.7573070  28.1141420  46.6221600  82.6767120  27.1996030  46.3513310
  82.3437490  28.6108490  45.9161310  80.8891110  29.8920440  48.5030870
  80.1133210  29.4120880  48.7929440  81.5404040  29.2126090  48.3287030
  74.9056940  30.2040250  49.3806630  74.0741820  29.9488960  49.7803140
  75.5137920  30.2751020  50.1164550  84.9098540  34.2980630  47.2830000
  84.4480070  33.5267870  47.6117170  85.7224090  34.3246700  47.7882450
  74.8858200  34.2380340  49.5764650  75.1886240  33.3478080  49.3974870
  75.6301790  34.7950560  49.3486900  73.3148890  25.1642140  43.1649020
  72.4265590  25.5058110  43.0628900  73.5990080  24.9642460  42.2729850
  71.2781900  27.7647790  49.0488720  71.8498010  26.9969990  49.0492360
  71.2783440  28.0636550  48.1395330  81.1361850  36.5838640  46.9033990
  80.5173290  37.0396140  46.3328430  81.9913630  36.7390100  46.5023690
  80.3300100  32.5677630  48.5101030  80.2608380  31.6267570  48.3490160
  81.0919960  32.6579040  49.0823600  72.5206770  23.1732150  50.8357650
  72.3409610  22.2757900  51.1160410  72.1186850  23.7204020  51.5104600
  81.3605270  25.3748010  48.7369960  81.7370090  24.5019890  48.6243630
  81.2624780  25.7106710  47.8460400  75.4910280  23.7473640  44.1987400
  75.5977030  24.6477370  44.5056160  74.5802640  23.6991610  43.9082050
  85.1429390  22.8698450  45.6698300  85.9639010  22.3795020  45.7123780
  85.1763470  23.4596110  46.4230140  73.1393440  25.6692650  49.4439990
  73.8203550  25.9331020  50.0627390  72.8241490  24.8293520  49.7778000
  77.3318010  26.7160010  48.5312580  77.8396230  27.2140980  49.1717600
  77.8631250  25.9395210  48.3551940  89.4328940  24.8865200  52.2341930
  88.7281110  25.2746910  51.7157040  89.6986860  25.5815490  52.8362860
  75.6154110  21.3558570  52.7976000  75.6172550  21.8730960  51.9921900
  74.7858420  20.8788750  52.7745930  82.0025200  31.4677880  44.2965900
  81.3842470  31.9327330  43.7328620  82.5148450  32.1605360  44.7135410
  76.8656960  30.9953750  50.9749500  76.5326340  31.6222670  51.6170570
  77.0423640  31.5215630  50.1951170  85.3790870  24.8098830  48.4425840
  84.6746440  25.0983720  49.0228950  85.7403030  25.6198940  48.0825400
  75.2969440  23.0668530  50.8046450  75.6386250  23.9110580  50.5100320
  74.3585250  23.2152270  50.9211790  76.0776060  32.9634550  52.7898680
  76.6950060  33.6385630  52.5083130  75.2169180  33.3722530  52.6986180
  71.3708400  32.1534410  41.6705530  70.9936380  32.6421510  40.9390430
  71.6281470  32.8259690  42.3012060  86.9953650  34.4273960  50.7053320
  86.3117170  35.0973070  50.6969990  87.5347940  34.6254610  49.9398180
  88.4477790  24.2553620  48.8335050  87.5002700  24.2892600  48.9650480
  88.7727780  25.0692570  49.2184410  78.9797330  20.5550800  47.1291040
  79.2872310  19.9997690  46.4126540  78.0498030  20.6895260  46.9464030
  84.5312390  36.2718090  49.4198500  84.5439550  35.8680380  48.5520760
  83.9787610  37.0465380  49.3159930  85.8257810  32.9934310  44.5088670
  85.7154140  32.0508640  44.6338090  85.8226060  33.3549950  45.3951430
  83.9297830  31.1747930  50.7481110  84.3466620  30.9608040  49.9134570
  84.6537650  31.4320720  51.3189730  81.3678090  28.6199630  43.8651160
  80.4407370  28.5537010  44.0939630  81.5202910  29.5579760  43.7506400
  81.3547170  24.8916630  40.8618320  80.4150840  25.0530590  40.9470780
  81.6730430  25.6102310  40.3154310  87.8759930  29.5735150  50.8397350
  87.0478560  29.6428240  50.3647480  88.4710410  30.1589460  50.3713180
  85.3975380  30.1819930  44.3686410  84.7787800  29.8439480  43.7212710
  85.3799830  29.5379690  45.0765600  84.8401940  26.3604470  51.7852220
  84.4273120  27.1858180  52.0392210  84.1077890  25.7749510  51.5928580
  76.9734730  29.1464370  46.6470890  76.5691730  28.4341620  46.1516790
  77.0597850  28.8017610  47.5358930  77.4416430  32.8331930  48.8110100
  77.1444720  32.2277400  48.1317880  78.3916250  32.8709240  48.6999460
  75.6863350  25.9207580  50.4269930  76.2377940  26.0302920  49.6523180
  76.2006860  26.2945180  51.1425160  85.5302040  36.4063800  52.4733200
  85.0532600  37.2135990  52.2805810  84.8463830  35.7542130  52.6259410
  76.5334860  32.5713620  55.4617900  75.6363390  32.7953590  55.7091300
  76.5587730  32.6948560  54.5129300  83.5740080  29.4206740  41.3759160
  84.0133360  28.5829170  41.2296980  84.2868500  30.0536140  41.4623300
  75.3606080  29.4426940  54.0375270  75.2213850  30.3149740  54.4062670
  74.4787440  29.0999750  53.8923210  81.6835460  34.3602810  45.3440400
  82.1231370  35.1027140  44.9295790  81.6222350  34.6029380  46.2679360
  77.1586430  35.3848640  56.2460420  77.1301860  35.7891590  55.3788850
  76.9951400  34.4559000  56.0832020  87.1557220  20.6749550  39.6900200
  86.8429880  20.7676380  40.5899270  87.9169690  21.2530580  39.6397630
  73.6739360  28.0409350  44.1477540  73.5536960  28.7671440  43.5358810
  73.3640250  27.2712260  43.6705450  89.1101250  36.1675740  57.5424590
  89.5860970  36.6458630  58.2213670  89.7308410  36.0993230  56.8170090
  71.3124730  31.2124490  49.9546180  71.3905150  31.3473260  49.0101900
  71.9266410  30.5040380  50.1474300  72.5572360  32.9124680  46.3652360
  72.1500440  33.0539270  45.5105960  73.4485370  32.6284840  46.1623570
  88.5134500  33.3588590  54.7024600  88.6397560  33.1200470  53.7841780
  88.5555880  32.5273130  55.1746680  82.3751240  37.0616590  53.2719410
  82.8895910  36.9724600  54.0741840  81.5320320  37.4076290  53.5647320
  84.3505640  37.3471930  42.7003410  84.1906780  37.0574870  43.5985240
  84.1852350  36.5712060  42.1648640  76.8294020  37.1270460  44.4775030
  76.6536500  36.2106000  44.2642830  75.9749760  37.4857750  44.7172830
  84.0531770  34.8559490  41.2601410  83.3596930  34.8536780  40.6003690
  84.7954630  34.4318810  40.8295580  83.6181700  36.4822200  45.3349900
  84.0738650  35.7011580  45.6488520  83.9574220  37.1929020  45.8791080
  88.3658510  25.4121050  55.6674340  87.7502780  25.9200720  55.1389800
  88.0454930  24.5119380  55.6100280  71.3684250  32.2538660  52.4940640
  71.5315290  31.7844020  51.6760010  71.8336700  31.7462220  53.1589480
  76.1403020  21.3844420  47.5301210  75.6971170  22.1653960  47.1985730
  76.6988010  21.7074310  48.2372150  80.4272830  24.2512940  53.1336530
  79.9652200  24.4595960  53.9456470  80.0250940  23.4372290  52.8307200
  85.4277340  25.4721890  54.2633190  84.5770930  25.1727640  54.5842260
  85.2679130  25.7163900  53.3517010  82.5227050  26.9723640  56.3631980
  82.8480460  26.1387390  56.0234210  83.3107380  27.4952160  56.5110310
  79.2561840  21.0055120  42.4107040  78.6316020  21.0014990  43.1360350
  79.1691960  20.1386080  42.0143010  78.1778920  21.9291750  49.3890810
  78.4751250  22.8354580  49.3082830  78.7264480  21.4410530  48.7750380
  75.9317240  26.5077990  45.2582460  75.7058160  26.2915160  46.1629080
  75.1509770  26.9406450  44.9128430  83.1615000  26.5141360  43.8573110
  82.5623890  27.2377160  43.6736730  83.7094610  26.4518140  43.0749560
  78.3716450  27.4063570  55.9242730  78.2760050  26.4658300  55.7743130
  79.2148430  27.6278640  55.5290800  81.7679870  25.1504900  45.8876390
  82.1609440  25.4677100  45.0745080  82.1296720  24.2716780  46.0020910
  73.5026990  23.8177240  54.0776510  73.1090380  24.6652450  54.2849290
  72.8145390  23.1803610  54.2685150  80.0772040  23.9012210  57.1473250
  79.3870360  23.7084410  57.7819340  80.8204340  24.1846850  57.6797550
  70.8044040  21.7405700  48.1106590  70.5157090  22.3108560  48.8231570
  71.5489800  21.2610150  48.4737820  70.9914270  25.6825820  39.3209310
  70.9088940  26.6256580  39.4624300  70.6397330  25.5400730  38.4421660
  82.3535010  27.7410650  49.9827170  81.6216130  28.2497460  50.3317270
  81.9559350  26.9240630  49.6815950  78.7912400  24.4164850  48.3879660
  78.7948460  23.9754800  47.5384200  79.6863520  24.7382180  48.4951480
  74.6414780  24.2991340  47.3473870  74.3014830  24.7766570  48.1040920
  73.8792100  23.8456460  46.9874970  78.8532550  25.4176930  41.3786420
  78.9745370  25.3763410  42.3272240  78.4681060  26.2801080  41.2233150
  82.8160920  23.1944330  49.3950110  82.8333660  23.6452980  50.2391960
  82.5676500  22.2949970  49.6083550  77.8654050  27.7278070  40.7769720
  77.2970950  27.2796320  40.1505630  78.5743050  28.0870850  40.2434870
  86.2431670  20.6076510  55.2336490  86.5677440  19.8766170  55.7594470
  86.2788180  20.2890150  54.3317480  72.9423230  31.6290090  54.6536450
  72.5578020  30.9883760  55.2519410  73.2535420  32.3326210  55.2231180
  79.0920370  28.4766630  50.1345070  79.4590500  28.0025200  50.8806410
  78.9025430  29.3508200  50.4753410  71.9560860  23.2210320  46.2638540
  71.6707780  22.8565990  47.1017160  71.8939720  22.4890780  45.6501680
  76.8819740  27.5175270  52.4529280  76.5776810  28.3967250  52.6779640
  77.8366200  27.5775060  52.4886720  75.4101530  31.7236260  43.0496130
  74.6363790  31.1833880  42.8894850  76.1396160  31.2042870  42.7113890
  86.1689510  30.7201620  48.8422520  86.8888630  31.2156910  48.4518630
  85.9671330  30.0419510  48.1976390  81.6299450  22.1139580  42.9851910
  80.8164060  21.6152750  42.9097220  81.4361400  22.9537830  42.5688260
  81.5508310  30.7910680  54.7291520  81.4845620  29.8706350  54.4749110
  80.9213450  30.8886120  55.4436160  84.3447840  26.4859230  41.2814070
  85.2327460  26.7976460  41.1065410  84.3152930  25.6131480  40.8894650
  75.4538930  31.3916640  46.6874940  75.9717600  30.5884900  46.6331830
  75.0022950  31.3295780  47.5291770  80.3408430  32.6582920  41.9602240
  80.6824130  33.4025150  41.4645560  79.5121140  32.9714040  42.3227070
  72.9383470  28.3578010  53.6000640  72.5798410  29.0231860  54.1873980
  72.6438030  27.5261560  53.9713260  76.1396590  28.8162250  56.4840190
  75.8396730  28.9619430  55.5868010  76.9107830  28.2567540  56.3913580
  81.4825040  33.6131250  54.4795320  81.4969580  32.6812210  54.2614230
  80.7750140  33.6991010  55.1185090  86.6162110  27.7971070  40.7493930
  86.5325830  28.2285290  39.8990370  87.3356300  28.2569420  41.1820750
  87.6936250  30.2538590  53.8263900  86.9684440  30.8467370  53.6293290
  88.2211710  30.2462130  53.0277270  87.6449360  34.6513330  43.4776060
  87.0025520  33.9968950  43.7519780  87.2580020  35.0568420  42.7016730
  83.2235840  31.9798760  47.3247750  83.5759660  31.3826890  46.6649120
  82.3398170  31.6542990  47.4956000  79.3099120  32.7396450  44.7318160
  79.9970250  33.2865660  45.1125750  78.5231540  33.2837180  44.7667770
  71.4491520  28.3569270  40.2235240  72.3186370  28.6394070  40.5071160
  70.9581840  29.1705140  40.1084050  78.6126330  29.7442480  44.3443520
  79.0689110  30.5547730  44.5703710  78.2614540  29.4265620  45.1762010
  80.9158940  35.2548820  51.5735820  81.5601160  35.4608200  52.2509240
  81.2788380  34.4937220  51.1206670  74.5138110  20.0880130  44.8166040
  74.3852740  20.0798030  45.7650960  73.6900130  20.4263220  44.4657050
  82.1891020  33.2581170  50.2913270  82.8313250  32.5574330  50.4045440
  82.7140370  34.0379610  50.1110160  86.0346740  33.5429790  40.0152410
  85.8084320  32.8260230  40.6077050  85.6442940  33.2942230  39.1774160
  83.9628640  34.0576070  53.4949330  84.2984880  34.6442760  54.1727250
  83.0428980  33.9268780  53.7247120  71.8162770  37.5696650  40.7896870
  72.1760410  38.1685990  40.1354140  71.6755110  38.1156540  41.5631900
  71.5132040  21.8471250  54.2772740  70.7990560  22.0468170  54.8825350
  71.9327080  21.0710820  54.6487540  85.6162990  31.4601730  41.6766570
  85.3284690  31.9214420  42.4644450  86.4115160  30.9999500  41.9450790
  71.8004630  35.8351510  55.2639270  71.9095750  34.8946250  55.1234660
  71.1485190  36.1006260  54.6153000  79.7917220  34.1067400  56.6637390
  79.4714090  33.3876640  57.2083080  79.1175580  34.7822470  56.7373450
  77.8331390  34.9527850  41.6070540  77.8241490  35.6857540  40.9915050
  76.9129750  34.7059430  41.6997500  73.4338030  30.1742740  42.3517300
  72.8265980  30.9141640  42.3612600  73.9087380  30.2642100  41.5255500
  83.0070820  24.3393560  52.0274190  83.3751640  23.5188770  52.3553760
  82.1469020  24.3995450  52.4429840  86.3732850  23.2950500  42.8361750
  85.7446010  23.3996170  42.1219980  85.8784770  23.5147280  43.6255630
  80.8190990  35.0156090  40.2695730  80.9202970  34.8120080  39.3397710
  79.9192730  34.7614370  40.4743510  78.3416880  25.5736450  44.2519630
  77.6333030  26.0422790  44.6933240  78.6261360  24.9158460  44.8864820
  79.9672810  26.9933150  52.2512160  80.4658060  27.4678970  52.9164010
  80.1095760  26.0696670  52.4582190  82.3732310  22.2987110  45.6915420
  82.2500090  22.3173240  44.7424930  83.3216870  22.3466050  45.8113820
  79.4609100  37.5342410  44.9643400  79.7150600  37.4963800  44.0422770
  78.5121580  37.4075740  44.9571650  76.5451900  23.8821530  41.6270340
  77.3942430  24.3191680  41.5610530  76.1783170  24.1941790  42.4542400
  87.1739670  23.2101110  53.0940550  86.6713270  23.9506510  53.4334360
  87.9896330  23.5985110  52.7777340  85.4661680  28.4534290  46.5401910
  84.5251820  28.4684520  46.7149600  85.7805750  27.6670250  46.9862210
  75.4443320  30.1353890  40.1005870  76.2106590  30.0235250  40.6631300
  75.5218010  29.4391860  39.4482640  74.1390080  27.5678960  40.7838760
  74.2193670  26.6206470  40.8956160  75.0309830  27.8985840  40.8899420
  87.4687260  35.6243140  48.2156170  87.5934680  36.4474310  48.6879980
  88.3352820  35.4133870  47.8680320  74.9404790  37.7174350  47.8873300
  75.6767270  37.1689810  48.1581870  75.3245710  38.5830360  47.7479290
  71.8250270  33.7847920  43.7614810  70.8990050  34.0269060  43.7520220
  72.2906700  34.6122180  43.6399560  73.9463070  36.9020420  57.0758880
  74.7475800  37.2232470  57.4894280  73.4314890  36.5416000  57.7978790
  78.0507100  36.8904660  39.7098870  78.8435710  37.1793490  39.2580660
  77.5311450  36.4596830  39.0311350  82.7827700  33.0100290  57.0234290
  82.1765860  33.0331890  56.2830040  82.4781810  32.2783330  57.5601540
  84.2128070  36.7380580  55.6343700  85.1649820  36.6538600  55.5843940
  84.0656290  37.4022290  56.3077490  87.1037270  36.1174790  41.1335610
  86.8178780  35.7039930  40.3189790  86.9056820  37.0462500  41.0136130
  71.6660880  29.3893880  56.0194930  72.1699900  28.8101160  56.5911160
  70.9268300  29.6734110  56.5571300  78.5684500  32.1108070  39.5741220
  78.4635140  31.4960420  40.3002600  78.4008720  31.5873960  38.7904230
  78.7198820  30.7964870  55.5530450  77.9544490  31.3649870  55.4685120
  78.9014780  30.5041080  54.6598680  81.8087230  31.1728100  40.1783210
  81.2597330  31.6197400  40.8225950  82.4306490  30.6677350  40.7020880
  85.8622170  32.5270200  56.1105470  86.6031640  32.8645960  55.6072930
  85.0994850  32.6962260  55.5575240  73.6983960  27.5323470  56.9145000
  73.7389300  27.2337340  57.8230230  74.5529460  27.9331080  56.7552520
  77.4762350  30.1319020  42.0748510  77.8978770  29.9658890  42.9179900
  77.6013190  29.3219250  41.5803650  75.6389770  26.1115570  54.8819490
  75.1086230  25.6206520  54.2542830  76.3077840  26.5399770  54.3477420
  79.9889990  29.1556630  39.3225610  80.5095650  28.4405650  38.9566760
  80.6358390  29.7942500  39.6226120  84.5367830  30.5785030  54.6460680
  84.9508850  30.7330110  55.4951100  83.6018830  30.7040250  54.8086460
  85.0090000  27.9181190  56.6499830  85.5910770  27.1633510  56.5620310
  85.1851770  28.4488630  55.8731310  76.1262070  23.0777940  54.9616780
  76.0318940  22.4598690  54.2367650  75.5459460  23.8044230  54.7346690
  78.8923510  21.6351180  51.9944170  78.4440810  21.6575440  51.1489720
  78.2588710  21.2370200  52.5914470  79.2983060  30.5305510  52.6156610
  79.7171170  31.3738240  52.4432850  78.3791690  30.6677550  52.3863390
  81.6346960  28.2621690  53.9994450  81.7543170  27.6662830  54.7389290
  82.4940960  28.2991380  53.5795750  83.9734860  28.8158880  52.5756960
  83.4470080  29.3401500  51.9722100  84.3166200  29.4486270  53.2066690
  76.3721250  26.2052250  39.0206670  76.1710310  25.3419610  39.3820010
  76.2013300  26.1185610  38.0828270  77.1490480  36.8358520  53.7314340
  76.6111570  37.5604580  53.4123040  77.4024440  36.3588860  52.9411680
  78.4015730  24.8043040  55.2570270  78.9915420  24.4958890  55.9448090
  77.5835970  24.3322790  55.4130170  83.2209160  24.4208850  55.4903290
  82.5324680  23.7590390  55.4253280  83.9415180  23.9747120  55.9351750
  83.8509560  21.0160480  41.5493550  84.1311850  20.1728380  41.9052970
  83.0775290  21.2483590  42.0632300  75.1704050  23.3052870  39.0084550
  75.4729950  23.3120300  38.1003700  75.9098640  22.9550730  39.5052210
  80.0052690  38.0709730  53.9900990  79.9311390  38.9744870  54.2973360
  79.1031530  37.7521630  53.9623060  78.3888980  22.2487490  39.9940750
  78.0410980  21.5711480  39.4143200  78.5901750  21.7877000  40.8084140
  80.5538020  37.2368240  41.6127350  81.4488810  37.5753210  41.6346110
  80.5855650  36.5147650  40.9851630  74.1934180  32.6095290  39.8414350
  74.6309050  33.1524960  40.4971930  74.6781910  31.7842240  39.8510690
  71.4079980  35.3984320  47.2934610  71.7382990  34.5305380  47.0613250
  71.8370980  35.6042840  48.1239570  76.0041900  33.7293330  44.9536580
  75.7037440  33.6058300  45.8540490  75.8979390  32.8701920  44.5452310
  71.8970190  36.2654910  50.0316240  71.4601180  36.4455710  50.8640390
  72.4647870  37.0229530  49.8897960  87.5332370  35.7671910  54.3193550
  86.9334360  35.8264470  53.5757470  87.6626270  34.8276890  54.4490400
  88.7733820  33.5089730  39.6563260  87.9426780  33.5766380  40.1270490
  88.9505650  34.3993850  39.3530120  88.2290280  30.2537210  42.1597460
  88.9909190  30.8233860  42.2657150  88.2444650  29.6864410  42.9305770
  71.7294620  28.7775140  46.3905120  71.0743460  28.5086780  45.7464820
  72.5672570  28.6679620  45.9407100  89.2350250  31.1087310  47.0039390
  89.6059080  30.3254630  46.5975360  89.8752180  31.7976410  46.8256690
  86.2184010  32.4923890  52.4169710  85.4043850  32.9221050  52.6795500
  86.6258210  33.1042300  51.8038760  88.2809450  30.5471580  39.3169980
  88.5558290  31.4550460  39.1889200  88.0920190  30.4834110  40.2531970
  84.6785060  23.5716430  40.6123610  85.0969940  23.3847410  39.7720270
  84.3721120  22.7195480  40.9226540  88.1774790  28.4840570  44.3099410
  87.8018390  27.7168500  43.8780700  87.4477910  28.8663270  44.7974340
  72.7670550  29.1627710  50.9308460  73.1343590  29.0755110  51.8104480
  72.1981370  28.3994260  50.8315320  87.5674410  27.6312090  53.9438930
  87.3360500  27.4024840  53.0436880  87.8278960  28.5511640  53.8983820
  72.3186550  26.0736800  54.8366880  71.4242600  26.0403560  55.1760590
  72.8584100  26.2723590  55.6018130  86.0062480  22.8568520  56.7218630
  86.8832660  22.8651920  57.1052630  86.0183320  22.1199360  56.1110980
  70.9432700  25.9874070  42.3330450  70.0396780  26.2504270  42.1582110
  71.4273320  26.2585240  41.5530410  87.4525750  26.7098060  47.6106650
  87.9763230  26.2160710  46.9796820  88.0385170  26.8448420  48.3554220
  87.6315470  26.7937930  51.1326200  86.6818180  26.7601470  51.2471190
  87.8128480  27.7038040  50.8975970  73.4859910  25.0439610  40.2424830
  74.1951610  24.6222830  39.7572110  72.7699850  25.1114840  39.6108180
  73.1334070  21.0978940  39.2827480  73.8562200  21.6387880  39.6008700
  73.4058590  20.8242360  38.4069020  86.9425720  25.9671410  43.5499060
  87.4384840  25.7342280  44.3347940  86.7441790  25.1283250  43.1336700
  72.8226260  20.3485130  49.1850100  73.4702450  19.7982510  48.7445260
  73.2428100  20.6028280  50.0065910  88.3712880  24.6032360  46.0836740
  88.2612160  24.4488400  47.0219010  89.1320470  24.0753300  45.8412150
  86.7178600  20.5426490  52.5419740  87.3550820  21.1560630  52.9078930
  86.8653490  20.5787150  51.5968970  89.2603150  22.4340280  39.3242880
  90.1852460  22.3021460  39.1161170  89.2378940  22.5133100  40.2779330
  89.3341640  23.2050940  41.9499590  88.5393140  23.1396060  42.4792500
  89.5384920  24.1401580  41.9384940  86.2760060  37.2442490  45.9437980
  86.8719130  36.9227060  45.2672400  86.5338210  36.7714310  46.7351250
  72.5758260  20.5040800  51.9275420  72.2273080  20.9604620  52.6933600
  72.2445960  19.6097930  52.0097850  74.1822630  33.6760400  56.0928610
  74.1392260  33.3053310  56.9743070  74.3133640  34.6137970  56.2330430
  77.8828660  35.2319990  51.6938330  77.6420020  35.4994550  50.8068850
  78.8231300  35.4025720  51.7489190  80.0883080  21.6952680  55.4494840
  80.0271970  22.2874510  56.1990250  81.0283460  21.5878640  55.3045100
  82.7257640  21.3522740  55.0887130  83.3398050  21.6702030  54.4268210
  83.2707200  20.8671330  55.7082990  89.1432820  37.2514370  52.4948970
  88.6491100  37.6483240  51.7776100  88.5346110  36.6263580  52.8886250
  73.2478900  20.0317000  55.2026190  73.7961890  19.8505050  54.4392300
  73.3134210  19.2411110  55.7382500  74.0210660  36.6222650  53.2126390
  73.4270980  36.4907350  53.9516430  74.0134500  35.7860790  52.7468490
  83.4665680  19.9154880  51.4156420  82.5925520  20.2489990  51.2129350
  83.3576430  19.4428060  52.2408290  84.3737660  22.1225750  52.7998140
  84.0451020  21.3077510  52.4199870  85.3219960  22.0795560  52.6763830
  86.8272270  37.8937790  49.7735710  86.3675240  38.6453600  49.3993730
  86.1984730  37.1744260  49.7150510  73.6522890  33.9881030  52.1634430
  72.9256950  33.3686320  52.0960380  73.7132040  34.3821640  51.2932510
  77.2567990  36.2026030  48.9483840  77.7733010  35.5913390  48.4232100
  77.9065370  36.7054810  49.4394850  79.9963490  37.0934520  49.7752820
  80.2841300  36.8388820  48.8985830  80.5086710  36.5411880  50.3658390
  81.2140500  20.8324720  50.3549330  80.4312290  21.3070220  50.6346090
  80.9203430  19.9279550  50.2462510  85.7661570  21.5347820  48.3998420
  86.2069660  21.4792920  47.5520020  85.4969160  22.4505830  48.4708600
  87.6300140  21.1663060  46.4107240  87.5688540  20.2224280  46.2638260
  88.4092170  21.2743150  46.9560700  71.9352890  37.3055420  45.3731190
  71.7674930  36.6726100  46.0713080  71.0687400  37.5114820  45.0225380
  72.5580910  21.1372200  42.8763050  73.3160270  21.2501080  42.3027080
  72.0958080  21.9741400  42.8306480  79.0994720  23.2511470  45.8665360
  78.2869230  22.8768360  45.5261240  79.6036360  22.4956550  46.1686550
  83.6019700  19.9153920  47.1048430  84.2049070  20.4874130  47.5796950
  82.8612690  20.4793360  46.8822330  86.7454300  20.3175480  42.3788710
  86.9404930  21.2158930  42.6456140  85.9584170  20.0862560  42.8721660
  73.5415590  35.9988650  42.8181330  73.0163210  36.3796680  42.1143290
  73.4660170  36.6239420  43.5391040  74.9306060  21.6636250  41.4165020
  75.4598820  20.8766050  41.2872970  75.5634380  22.3427440  41.6500550
  77.1243900  21.4011390  44.4710410  76.4946640  20.6998700  44.6380540
  76.5849040  22.1615520  44.2543570  80.0635850  38.0150620  57.1421020
  80.9903160  37.7794890  57.1856980  80.0486280  38.8422620  56.6607050
  88.2980910  37.5576190  44.1395270  88.4733100  36.8713930  43.4956190
  87.6002480  38.0823240  43.7471940  77.2499460  20.6795370  56.9062900
  76.9683730  21.1828970  56.1423720  77.6319160  19.8817120  56.5405030
  76.1408560  37.9471030  41.6930580  76.8727380  37.6630310  41.1454470
  76.4002230  37.7084310  42.5829960  75.3023350  34.0635760  41.6976910
  74.6732230  34.5320860  42.2462740  75.4171180  33.2184980  42.1323100
  83.8514920  20.0948950  57.4843370  83.7380370  20.4143560  58.3794890
  84.6684660  20.4961460  57.1880650  86.6313410  37.2420480  56.9662060
  87.4238730  36.7469710  56.7588020  86.9246560  37.9210620  57.5737670
  82.7573070  28.1141420  27.8478110  82.6767120  27.1996030  27.5769820
  82.3437490  28.6108490  27.1417820  80.8891110  29.8920440  29.7287380
  80.1133210  29.4120880  30.0185950  81.5404040  29.2126090  29.5543540
  74.9056940  30.2040250  30.6063140  74.0741820  29.9488960  31.0059650
  75.5137920  30.2751020  31.3421060  84.9098540  34.2980630  28.5086510
  84.4480070  33.5267870  28.8373680  85.7224090  34.3246700  29.0138960
  74.8858200  34.2380340  30.8021160  75.1886240  33.3478080  30.6231380
  75.6301790  34.7950560  30.5743410  73.3148890  25.1642140  24.3905530
  72.4265590  25.5058110  24.2885410  73.5990080  24.9642460  23.4986360
  71.2781900  27.7647790  30.2745230  71.8498010  26.9969990  30.2748870
  71.2783440  28.0636550  29.3651840  81.1361850  36.5838640  28.1290500
  80.5173290  37.0396140  27.5584940  81.9913630  36.7390100  27.7280200
  80.3300100  32.5677630  29.7357540  80.2608380  31.6267570  29.5746670
  81.0919960  32.6579040  30.3080110  72.5206770  23.1732150  32.0614160
  72.3409610  22.2757900  32.3416920  72.1186850  23.7204020  32.7361110
  81.3605270  25.3748010  29.9626470  81.7370090  24.5019890  29.8500140
  81.2624780  25.7106710  29.0716910  75.4910280  23.7473640  25.4243910
  75.5977030  24.6477370  25.7312670  74.5802640  23.6991610  25.1338560
  85.1429390  22.8698450  26.8954810  85.9639010  22.3795020  26.9380290
  85.1763470  23.4596110  27.6486650  73.1393440  25.6692650  30.6696500
  73.8203550  25.9331020  31.2883900  72.8241490  24.8293520  31.0034510
  77.3318010  26.7160010  29.7569090  77.8396230  27.2140980  30.3974110
  77.8631250  25.9395210  29.5808450  89.4328940  24.8865200  33.4598440
  88.7281110  25.2746910  32.9413550  89.6986860  25.5815490  34.0619370
  75.6154110  21.3558570  34.0232510  75.6172550  21.8730960  33.2178410
  74.7858420  20.8788750  34.0002440  82.0025200  31.4677880  25.5222410
  81.3842470  31.9327330  24.9585130  82.5148450  32.1605360  25.9391920
  76.8656960  30.9953750  32.2006010  76.5326340  31.6222670  32.8427080
  77.0423640  31.5215630  31.4207680  85.3790870  24.8098830  29.6682350
  84.6746440  25.0983720  30.2485460  85.7403030  25.6198940  29.3081910
  75.2969440  23.0668530  32.0302960  75.6386250  23.9110580  31.7356830
  74.3585250  23.2152270  32.1468300  76.0776060  32.9634550  34.0155190
  76.6950060  33.6385630  33.7339640  75.2169180  33.3722530  33.9242690
  71.3708400  32.1534410  22.8962040  70.9936380  32.6421510  22.1646940
  71.6281470  32.8259690  23.5268570  86.9953650  34.4273960  31.9309830
  86.3117170  35.0973070  31.9226500  87.5347940  34.6254610  31.1654690
  88.4477790  24.2553620  30.0591560  87.5002700  24.2892600  30.1906990
  88.7727780  25.0692570  30.4440920  78.9797330  20.5550800  28.3547550
  79.2872310  19.9997690  27.6383050  78.0498030  20.6895260  28.1720540
  84.5312390  36.2718090  30.6455010  84.5439550  35.8680380  29.7777270
  83.9787610  37.0465380  30.5416440  85.8257810  32.9934310  25.7345180
  85.7154140  32.0508640  25.8594600  85.8226060  33.3549950  26.6207940
  83.9297830  31.1747930  31.9737620  84.3466620  30.9608040  31.1391080
  84.6537650  31.4320720  32.5446240  81.3678090  28.6199630  25.0907670
  80.4407370  28.5537010  25.3196140  81.5202910  29.5579760  24.9762910
  81.3547170  24.8916630  22.0874830  80.4150840  25.0530590  22.1727290
  81.6730430  25.6102310  21.5410820  87.8759930  29.5735150  32.0653860
  87.0478560  29.6428240  31.5903990  88.4710410  30.1589460  31.5969690
  85.3975380  30.1819930  25.5942920  84.7787800  29.8439480  24.9469220
  85.3799830  29.5379690  26.3022110  84.8401940  26.3604470  33.0108730
  84.4273120  27.1858180  33.2648720  84.1077890  25.7749510  32.8185090
  76.9734730  29.1464370  27.8727400  76.5691730  28.4341620  27.3773300
  77.0597850  28.8017610  28.7615440  77.4416430  32.8331930  30.0366610
  77.1444720  32.2277400  29.3574390  78.3916250  32.8709240  29.9255970
  75.6863350  25.9207580  31.6526440  76.2377940  26.0302920  30.8779690
  76.2006860  26.2945180  32.3681670  85.5302040  36.4063800  33.6989710
  85.0532600  37.2135990  33.5062320  84.8463830  35.7542130  33.8515920
  76.5334860  32.5713620  36.6874410  75.6363390  32.7953590  36.9347810
  76.5587730  32.6948560  35.7385810  83.5740080  29.4206740  22.6015670
  84.0133360  28.5829170  22.4553490  84.2868500  30.0536140  22.6879810
  75.3606080  29.4426940  35.2631780  75.2213850  30.3149740  35.6319180
  74.4787440  29.0999750  35.1179720  81.6835460  34.3602810  26.5696910
  82.1231370  35.1027140  26.1552300  81.6222350  34.6029380  27.4935870
  77.1586430  35.3848640  37.4716930  77.1301860  35.7891590  36.6045360
  76.9951400  34.4559000  37.3088530  87.1557220  20.6749550  20.9156710
  86.8429880  20.7676380  21.8155780  87.9169690  21.2530580  20.8654140
  73.6739360  28.0409350  25.3734050  73.5536960  28.7671440  24.7615320
  73.3640250  27.2712260  24.8961960  89.1101250  36.1675740  38.7681100
  89.5860970  36.6458630  39.4470180  89.7308410  36.0993230  38.0426600
  71.3124730  31.2124490  31.1802690  71.3905150  31.3473260  30.2358410
  71.9266410  30.5040380  31.3730810  72.5572360  32.9124680  27.5908870
  72.1500440  33.0539270  26.7362470  73.4485370  32.6284840  27.3880080
  88.5134500  33.3588590  35.9281110  88.6397560  33.1200470  35.0098290
  88.5555880  32.5273130  36.4003190  82.3751240  37.0616590  34.4975920
  82.8895910  36.9724600  35.2998350  81.5320320  37.4076290  34.7903830
  84.3505640  37.3471930  23.9259920  84.1906780  37.0574870  24.8241750
  84.1852350  36.5712060  23.3905150  76.8294020  37.1270460  25.7031540
  76.6536500  36.2106000  25.4899340  75.9749760  37.4857750  25.9429340
  84.0531770  34.8559490  22.4857920  83.3596930  34.8536780  21.8260200
  84.7954630  34.4318810  22.0552090  83.6181700  36.4822200  26.5606410
  84.0738650  35.7011580  26.8745030  83.9574220  37.1929020  27.1047590
  88.3658510  25.4121050  36.8930850  87.7502780  25.9200720  36.3646310
  88.0454930  24.5119380  36.8356790  71.3684250  32.2538660  33.7197150
  71.5315290  31.7844020  32.9016520  71.8336700  31.7462220  34.3845990
  76.1403020  21.3844420  28.7557720  75.6971170  22.1653960  28.4242240
  76.6988010  21.7074310  29.4628660  80.4272830  24.2512940  34.3593040
  79.9652200  24.4595960  35.1712980  80.0250940  23.4372290  34.0563710
  85.4277340  25.4721890  35.4889700  84.5770930  25.1727640  35.8098770
  85.2679130  25.7163900  34.5773520  82.5227050  26.9723640  37.5888490
  82.8480460  26.1387390  37.2490720  83.3107380  27.4952160  37.7366820
  79.2561840  21.0055120  23.6363550  78.6316020  21.0014990  24.3616860
  79.1691960  20.1386080  23.2399520  78.1778920  21.9291750  30.6147320
  78.4751250  22.8354580  30.5339340  78.7264480  21.4410530  30.0006890
  75.9317240  26.5077990  26.4838970  75.7058160  26.2915160  27.3885590
  75.1509770  26.9406450  26.1384940  83.1615000  26.5141360  25.0829620
  82.5623890  27.2377160  24.8993240  83.7094610  26.4518140  24.3006070
  78.3716450  27.4063570  37.1499240  78.2760050  26.4658300  36.9999640
  79.2148430  27.6278640  36.7547310  81.7679870  25.1504900  27.1132900
  82.1609440  25.4677100  26.3001590  82.1296720  24.2716780  27.2277420
  73.5026990  23.8177240  35.3033020  73.1090380  24.6652450  35.5105800
  72.8145390  23.1803610  35.4941660  80.0772040  23.9012210  38.3729760
  79.3870360  23.7084410  39.0075850  80.8204340  24.1846850  38.9054060
  70.8044040  21.7405700  29.3363100  70.5157090  22.3108560  30.0488080
  71.5489800  21.2610150  29.6994330  70.9914270  25.6825820  20.5465820
  70.9088940  26.6256580  20.6880810  70.6397330  25.5400730  19.6678170
  82.3535010  27.7410650  31.2083680  81.6216130  28.2497460  31.5573780
  81.9559350  26.9240630  30.9072460  78.7912400  24.4164850  29.6136170
  78.7948460  23.9754800  28.7640710  79.6863520  24.7382180  29.7207990
  74.6414780  24.2991340  28.5730380  74.3014830  24.7766570  29.3297430
  73.8792100  23.8456460  28.2131480  78.8532550  25.4176930  22.6042930
  78.9745370  25.3763410  23.5528750  78.4681060  26.2801080  22.4489660
  82.8160920  23.1944330  30.6206620  82.8333660  23.6452980  31.4648470
  82.5676500  22.2949970  30.8340060  77.8654050  27.7278070  22.0026230
  77.2970950  27.2796320  21.3762140  78.5743050  28.0870850  21.4691380
  86.2431670  20.6076510  36.4593000  86.5677440  19.8766170  36.9850980
  86.2788180  20.2890150  35.5573990  72.9423230  31.6290090  35.8792960
  72.5578020  30.9883760  36.4775920  73.2535420  32.3326210  36.4487690
  79.0920370  28.4766630  31.3601580  79.4590500  28.0025200  32.1062920
  78.9025430  29.3508200  31.7009920  71.9560860  23.2210320  27.4895050
  71.6707780  22.8565990  28.3273670  71.8939720  22.4890780  26.8758190
  76.8819740  27.5175270  33.6785790  76.5776810  28.3967250  33.9036150
  77.8366200  27.5775060  33.7143230  75.4101530  31.7236260  24.2752640
  74.6363790  31.1833880  24.1151360  76.1396160  31.2042870  23.9370400
  86.1689510  30.7201620  30.0679030  86.8888630  31.2156910  29.6775140
  85.9671330  30.0419510  29.4232900  81.6299450  22.1139580  24.2108420
  80.8164060  21.6152750  24.1353730  81.4361400  22.9537830  23.7944770
  81.5508310  30.7910680  35.9548030  81.4845620  29.8706350  35.7005620
  80.9213450  30.8886120  36.6692670  84.3447840  26.4859230  22.5070580
  85.2327460  26.7976460  22.3321920  84.3152930  25.6131480  22.1151160
  75.4538930  31.3916640  27.9131450  75.9717600  30.5884900  27.8588340
  75.0022950  31.3295780  28.7548280  80.3408430  32.6582920  23.1858750
  80.6824130  33.4025150  22.6902070  79.5121140  32.9714040  23.5483580
  72.9383470  28.3578010  34.8257150  72.5798410  29.0231860  35.4130490
  72.6438030  27.5261560  35.1969770  76.1396590  28.8162250  37.7096700
  75.8396730  28.9619430  36.8124520  76.9107830  28.2567540  37.6170090
  81.4825040  33.6131250  35.7051830  81.4969580  32.6812210  35.4870740
  80.7750140  33.6991010  36.3441600  86.6162110  27.7971070  21.9750440
  86.5325830  28.2285290  21.1246880  87.3356300  28.2569420  22.4077260
  87.6936250  30.2538590  35.0520410  86.9684440  30.8467370  34.8549800
  88.2211710  30.2462130  34.2533780  87.6449360  34.6513330  24.7032570
  87.0025520  33.9968950  24.9776290  87.2580020  35.0568420  23.9273240
  83.2235840  31.9798760  28.5504260  83.5759660  31.3826890  27.8905630
  82.3398170  31.6542990  28.7212510  79.3099120  32.7396450  25.9574670
  79.9970250  33.2865660  26.3382260  78.5231540  33.2837180  25.9924280
  71.4491520  28.3569270  21.4491750  72.3186370  28.6394070  21.7327670
  70.9581840  29.1705140  21.3340560  78.6126330  29.7442480  25.5700030
  79.0689110  30.5547730  25.7960220  78.2614540  29.4265620  26.4018520
  80.9158940  35.2548820  32.7992330  81.5601160  35.4608200  33.4765750
  81.2788380  34.4937220  32.3463180  74.5138110  20.0880130  26.0422550
  74.3852740  20.0798030  26.9907470  73.6900130  20.4263220  25.6913560
  82.1891020  33.2581170  31.5169780  82.8313250  32.5574330  31.6301950
  82.7140370  34.0379610  31.3366670  86.0346740  33.5429790  21.2408920
  85.8084320  32.8260230  21.8333560  85.6442940  33.2942230  20.4030670
  83.9628640  34.0576070  34.7205840  84.2984880  34.6442760  35.3983760
  83.0428980  33.9268780  34.9503630  71.8162770  37.5696650  22.0153380
  72.1760410  38.1685990  21.3610650  71.6755110  38.1156540  22.7888410
  71.5132040  21.8471250  35.5029250  70.7990560  22.0468170  36.1081860
  71.9327080  21.0710820  35.8744050  85.6162990  31.4601730  22.9023080
  85.3284690  31.9214420  23.6900960  86.4115160  30.9999500  23.1707300
  71.8004630  35.8351510  36.4895780  71.9095750  34.8946250  36.3491170
  71.1485190  36.1006260  35.8409510  79.7917220  34.1067400  37.8893900
  79.4714090  33.3876640  38.4339590  79.1175580  34.7822470  37.9629960
  77.8331390  34.9527850  22.8327050  77.8241490  35.6857540  22.2171560
  76.9129750  34.7059430  22.9254010  73.4338030  30.1742740  23.5773810
  72.8265980  30.9141640  23.5869110  73.9087380  30.2642100  22.7512010
  83.0070820  24.3393560  33.2530700  83.3751640  23.5188770  33.5810270
  82.1469020  24.3995450  33.6686350  86.3732850  23.2950500  24.0618260
  85.7446010  23.3996170  23.3476490  85.8784770  23.5147280  24.8512140
  80.8190990  35.0156090  21.4952240  80.9202970  34.8120080  20.5654220
  79.9192730  34.7614370  21.7000020  78.3416880  25.5736450  25.4776140
  77.6333030  26.0422790  25.9189750  78.6261360  24.9158460  26.1121330
  79.9672810  26.9933150  33.4768670  80.4658060  27.4678970  34.1420520
  80.1095760  26.0696670  33.6838700  82.3732310  22.2987110  26.9171930
  82.2500090  22.3173240  25.9681440  83.3216870  22.3466050  27.0370330
  79.4609100  37.5342410  26.1899910  79.7150600  37.4963800  25.2679280
  78.5121580  37.4075740  26.1828160  76.5451900  23.8821530  22.8526850
  77.3942430  24.3191680  22.7867040  76.1783170  24.1941790  23.6798910
  87.1739670  23.2101110  34.3197060  86.6713270  23.9506510  34.6590870
  87.9896330  23.5985110  34.0033850  85.4661680  28.4534290  27.7658420
  84.5251820  28.4684520  27.9406110  85.7805750  27.6670250  28.2118720
  75.4443320  30.1353890  21.3262380  76.2106590  30.0235250  21.8887810
  75.5218010  29.4391860  20.6739150  74.1390080  27.5678960  22.0095270
  74.2193670  26.6206470  22.1212670  75.0309830  27.8985840  22.1155930
  87.4687260  35.6243140  29.4412680  87.5934680  36.4474310  29.9136490
  88.3352820  35.4133870  29.0936830  71.8250270  33.7847920  24.9871320
  70.8990050  34.0269060  24.9776730  72.2906700  34.6122180  24.8656070
  73.9463070  36.9020420  38.3015390  74.7475800  37.2232470  38.7150790
  73.4314890  36.5416000  39.0235300  78.0507100  36.8904660  20.9355380
  78.8435710  37.1793490  20.4837170  77.5311450  36.4596830  20.2567860
  82.7827700  33.0100290  38.2490800  82.1765860  33.0331890  37.5086550
  82.4781810  32.2783330  38.7858050  84.2128070  36.7380580  36.8600210
  85.1649820  36.6538600  36.8100450  84.0656290  37.4022290  37.5334000
  87.1037270  36.1174790  22.3592120  86.8178780  35.7039930  21.5446300
  86.9056820  37.0462500  22.2392640  71.6660880  29.3893880  37.2451440
  72.1699900  28.8101160  37.8167670  70.9268300  29.6734110  37.7827810
  78.5684500  32.1108070  20.7997730  78.4635140  31.4960420  21.5259110
  78.4008720  31.5873960  20.0160740  78.7198820  30.7964870  36.7786960
  77.9544490  31.3649870  36.6941630  78.9014780  30.5041080  35.8855190
  81.8087230  31.1728100  21.4039720  81.2597330  31.6197400  22.0482460
  82.4306490  30.6677350  21.9277390  85.8622170  32.5270200  37.3361980
  86.6031640  32.8645960  36.8329440  85.0994850  32.6962260  36.7831750
  73.6983960  27.5323470  38.1401510  73.7389300  27.2337340  39.0486740
  74.5529460  27.9331080  37.9809030  77.4762350  30.1319020  23.3005020
  77.8978770  29.9658890  24.1436410  77.6013190  29.3219250  22.8060160
  75.6389770  26.1115570  36.1076000  75.1086230  25.6206520  35.4799340
  76.3077840  26.5399770  35.5733930  79.9889990  29.1556630  20.5482120
  80.5095650  28.4405650  20.1823270  80.6358390  29.7942500  20.8482630
  84.5367830  30.5785030  35.8717190  84.9508850  30.7330110  36.7207610
  83.6018830  30.7040250  36.0342970  85.0090000  27.9181190  37.8756340
  85.5910770  27.1633510  37.7876820  85.1851770  28.4488630  37.0987820
  76.1262070  23.0777940  36.1873290  76.0318940  22.4598690  35.4624160
  75.5459460  23.8044230  35.9603200  78.8923510  21.6351180  33.2200680
  78.4440810  21.6575440  32.3746230  78.2588710  21.2370200  33.8170980
  79.2983060  30.5305510  33.8413120  79.7171170  31.3738240  33.6689360
  78.3791690  30.6677550  33.6119900  81.6346960  28.2621690  35.2250960
  81.7543170  27.6662830  35.9645800  82.4940960  28.2991380  34.8052260
  83.9734860  28.8158880  33.8013470  83.4470080  29.3401500  33.1978610
  84.3166200  29.4486270  34.4323200  76.3721250  26.2052250  20.2463180
  76.1710310  25.3419610  20.6076520  76.2013300  26.1185610  19.3084780
  77.1490480  36.8358520  34.9570850  76.6111570  37.5604580  34.6379550
  77.4024440  36.3588860  34.1668190  78.4015730  24.8043040  36.4826780
  78.9915420  24.4958890  37.1704600  77.5835970  24.3322790  36.6386680
  83.2209160  24.4208850  36.7159800  82.5324680  23.7590390  36.6509790
  83.9415180  23.9747120  37.1608260  83.8509560  21.0160480  22.7750060
  84.1311850  20.1728380  23.1309480  83.0775290  21.2483590  23.2888810
  75.1704050  23.3052870  20.2341060  75.4729950  23.3120300  19.3260210
  75.9098640  22.9550730  20.7308720  80.0052690  38.0709730  35.2157500
  79.9311390  38.9744870  35.5229870  79.1031530  37.7521630  35.1879570
  78.3888980  22.2487490  21.2197260  78.0410980  21.5711480  20.6399710
  78.5901750  21.7877000  22.0340650  80.5538020  37.2368240  22.8383860
  81.4488810  37.5753210  22.8602620  80.5855650  36.5147650  22.2108140
  74.1934180  32.6095290  21.0670860  74.6309050  33.1524960  21.7228440
  74.6781910  31.7842240  21.0767200  71.4079980  35.3984320  28.5191120
  71.7382990  34.5305380  28.2869760  71.8370980  35.6042840  29.3496080
  76.0041900  33.7293330  26.1793090  75.7037440  33.6058300  27.0797000
  75.8979390  32.8701920  25.7708820  71.8970190  36.2654910  31.2572750
  71.4601180  36.4455710  32.0896900  72.4647870  37.0229530  31.1154470
  87.5332370  35.7671910  35.5450060  86.9334360  35.8264470  34.8013980
  87.6626270  34.8276890  35.6746910  88.7733820  33.5089730  20.8819770
  87.9426780  33.5766380  21.3527000  88.9505650  34.3993850  20.5786630
  88.2290280  30.2537210  23.3853970  88.9909190  30.8233860  23.4913660
  88.2444650  29.6864410  24.1562280  71.7294620  28.7775140  27.6161630
  71.0743460  28.5086780  26.9721330  72.5672570  28.6679620  27.1663610
  89.2350250  31.1087310  28.2295900  89.6059080  30.3254630  27.8231870
  89.8752180  31.7976410  28.0513200  86.2184010  32.4923890  33.6426220
  85.4043850  32.9221050  33.9052010  86.6258210  33.1042300  33.0295270
  88.2809450  30.5471580  20.5426490  88.5558290  31.4550460  20.4145710
  88.0920190  30.4834110  21.4788480  84.6785060  23.5716430  21.8380120
  85.0969940  23.3847410  20.9976780  84.3721120  22.7195480  22.1483050
  88.1774790  28.4840570  25.5355920  87.8018390  27.7168500  25.1037210
  87.4477910  28.8663270  26.0230850  72.7670550  29.1627710  32.1564970
  73.1343590  29.0755110  33.0360990  72.1981370  28.3994260  32.0571830
  87.5674410  27.6312090  35.1695440  87.3360500  27.4024840  34.2693390
  87.8278960  28.5511640  35.1240330  72.3186550  26.0736800  36.0623390
  71.4242600  26.0403560  36.4017100  72.8584100  26.2723590  36.8274640
  86.0062480  22.8568520  37.9475140  86.8832660  22.8651920  38.3309140
  86.0183320  22.1199360  37.3367490  70.9432700  25.9874070  23.5586960
  70.0396780  26.2504270  23.3838620  71.4273320  26.2585240  22.7786920
  87.4525750  26.7098060  28.8363160  87.9763230  26.2160710  28.2053330
  88.0385170  26.8448420  29.5810730  87.6315470  26.7937930  32.3582710
  86.6818180  26.7601470  32.4727700  87.8128480  27.7038040  32.1232480
  73.4859910  25.0439610  21.4681340  74.1951610  24.6222830  20.9828620
  72.7699850  25.1114840  20.8364690  73.1334070  21.0978940  20.5083990
  73.8562200  21.6387880  20.8265210  73.4058590  20.8242360  19.6325530
  86.9425720  25.9671410  24.7755570  87.4384840  25.7342280  25.5604450
  86.7441790  25.1283250  24.3593210  72.8226260  20.3485130  30.4106610
  73.4702450  19.7982510  29.9701770  73.2428100  20.6028280  31.2322420
  88.3712880  24.6032360  27.3093250  88.2612160  24.4488400  28.2475520
  89.1320470  24.0753300  27.0668660  86.7178600  20.5426490  33.7676250
  87.3550820  21.1560630  34.1335440  86.8653490  20.5787150  32.8225480
  89.2603150  22.4340280  20.5499390  90.1852460  22.3021460  20.3417680
  89.2378940  22.5133100  21.5035840  89.3341640  23.2050940  23.1756100
  88.5393140  23.1396060  23.7049010  89.5384920  24.1401580  23.1641450
  86.2760060  37.2442490  27.1694490  86.8719130  36.9227060  26.4928910
  86.5338210  36.7714310  27.9607760  72.5758260  20.5040800  33.1531930
  72.2273080  20.9604620  33.9190110  72.2445960  19.6097930  33.2354360
  74.1822630  33.6760400  37.3185120  74.1392260  33.3053310  38.1999580
  74.3133640  34.6137970  37.4586940  77.8828660  35.2319990  32.9194840
  77.6420020  35.4994550  32.0325360  78.8231300  35.4025720  32.9745700
  80.0883080  21.6952680  36.6751350  80.0271970  22.2874510  37.4246760
  81.0283460  21.5878640  36.5301610  82.7257640  21.3522740  36.3143640
  83.3398050  21.6702030  35.6524720  83.2707200  20.8671330  36.9339500
  89.1432820  37.2514370  33.7205480  88.6491100  37.6483240  33.0032610
  88.5346110  36.6263580  34.1142760  73.2478900  20.0317000  36.4282700
  73.7961890  19.8505050  35.6648810  73.3134210  19.2411110  36.9639010
  74.0210660  36.6222650  34.4382900  73.4270980  36.4907350  35.1772940
  74.0134500  35.7860790  33.9725000  83.4665680  19.9154880  32.6412930
  82.5925520  20.2489990  32.4385860  83.3576430  19.4428060  33.4664800
  84.3737660  22.1225750  34.0254650  84.0451020  21.3077510  33.6456380
  85.3219960  22.0795560  33.9020340  86.8272270  37.8937790  30.9992220
  86.3675240  38.6453600  30.6250240  86.1984730  37.1744260  30.9407020
  73.6522890  33.9881030  33.3890940  72.9256950  33.3686320  33.3216890
  73.7132040  34.3821640  32.5189020  77.2567990  36.2026030  30.1740350
  77.7733010  35.5913390  29.6488610  77.9065370  36.7054810  30.6651360
  79.9963490  37.0934520  31.0009330  80.2841300  36.8388820  30.1242340
  80.5086710  36.5411880  31.5914900  81.2140500  20.8324720  31.5805840
  80.4312290  21.3070220  31.8602600  80.9203430  19.9279550  31.4719020
  85.7661570  21.5347820  29.6254930  86.2069660  21.4792920  28.7776530
  85.4969160  22.4505830  29.6965110  87.6300140  21.1663060  27.6363750
  87.5688540  20.2224280  27.4894770  88.4092170  21.2743150  28.1817210
  71.9352890  37.3055420  26.5987700  71.7674930  36.6726100  27.2969590
  71.0687400  37.5114820  26.2481890  72.5580910  21.1372200  24.1019560
  73.3160270  21.2501080  23.5283590  72.0958080  21.9741400  24.0562990
  79.0994720  23.2511470  27.0921870  78.2869230  22.8768360  26.7517750
  79.6036360  22.4956550  27.3943060  83.6019700  19.9153920  28.3304940
  84.2049070  20.4874130  28.8053460  82.8612690  20.4793360  28.1078840
  86.7454300  20.3175480  23.6045220  86.9404930  21.2158930  23.8712650
  85.9584170  20.0862560  24.0978170  73.5415590  35.9988650  24.0437840
  73.0163210  36.3796680  23.3399800  73.4660170  36.6239420  24.7647550
  74.9306060  21.6636250  22.6421530  75.4598820  20.8766050  22.5129480
  75.5634380  22.3427440  22.8757060  77.1243900  21.4011390  25.6966920
  76.4946640  20.6998700  25.8637050  76.5849040  22.1615520  25.4800080
  80.0635850  38.0150620  38.3677530  80.9903160  37.7794890  38.4113490
  80.0486280  38.8422620  37.8863560  88.2980910  37.5576190  25.3651780
  88.4733100  36.8713930  24.7212700  87.6002480  38.0823240  24.9728450
  77.2499460  20.6795370  38.1319410  76.9683730  21.1828970  37.3680230
  77.6319160  19.8817120  37.7661540  76.1408560  37.9471030  22.9187090
  76.8727380  37.6630310  22.3710980  76.4002230  37.7084310  23.8086470
  75.3023350  34.0635760  22.9233420  74.6732230  34.5320860  23.4719250
  75.4171180  33.2184980  23.3579610  83.8514920  20.0948950  38.7099880
  83.7380370  20.4143560  39.6051400  84.6684660  20.4961460  38.4137160
  86.6313410  37.2420480  38.1918570  87.4238730  36.7469710  37.9844530
  86.9246560  37.9210620  38.7994180  82.7573070  28.1141420   9.0734620
  82.6767120  27.1996030   8.8026330  82.3437490  28.6108490   8.3674330
  80.8891110  29.8920440  10.9543890  80.1133210  29.4120880  11.2442460
  81.5404040  29.2126090  10.7800050  74.9056940  30.2040250  11.8319650
  74.0741820  29.9488960  12.2316160  75.5137920  30.2751020  12.5677570
  84.9098540  34.2980630   9.7343020  84.4480070  33.5267870  10.0630190
  85.7224090  34.3246700  10.2395470  74.8858200  34.2380340  12.0277670
  75.1886240  33.3478080  11.8487890  75.6301790  34.7950560  11.7999920
  73.3148890  25.1642140   5.6162040  72.4265590  25.5058110   5.5141920
  73.5990080  24.9642460   4.7242870  71.2781900  27.7647790  11.5001740
  71.8498010  26.9969990  11.5005380  71.2783440  28.0636550  10.5908350
  81.1361850  36.5838640   9.3547010  80.5173290  37.0396140   8.7841450
  81.9913630  36.7390100   8.9536710  80.3300100  32.5677630  10.9614050
  80.2608380  31.6267570  10.8003180  81.0919960  32.6579040  11.5336620
  72.5206770  23.1732150  13.2870670  72.3409610  22.2757900  13.5673430
  72.1186850  23.7204020  13.9617620  81.3605270  25.3748010  11.1882980
  81.7370090  24.5019890  11.0756650  81.2624780  25.7106710  10.2973420
  75.4910280  23.7473640   6.6500420  75.5977030  24.6477370   6.9569180
  74.5802640  23.6991610   6.3595070  85.1429390  22.8698450   8.1211320
  85.9639010  22.3795020   8.1636800  85.1763470  23.4596110   8.8743160
  73.1393440  25.6692650  11.8953010  73.8203550  25.9331020  12.5140410
  72.8241490  24.8293520  12.2291020  77.3318010  26.7160010  10.9825600
  77.8396230  27.2140980  11.6230620  77.8631250  25.9395210  10.8064960
  89.4328940  24.8865200  14.6854950  88.7281110  25.2746910  14.1670060
  89.6986860  25.5815490  15.2875880  75.6154110  21.3558570  15.2489020
  75.6172550  21.8730960  14.4434920  74.7858420  20.8788750  15.2258950
  82.0025200  31.4677880   6.7478920  81.3842470  31.9327330   6.1841640
  82.5148450  32.1605360   7.1648430  76.8656960  30.9953750  13.4262520
  76.5326340  31.6222670  14.0683590  77.0423640  31.5215630  12.6464190
  85.3790870  24.8098830  10.8938860  84.6746440  25.0983720  11.4741970
  85.7403030  25.6198940  10.5338420  75.2969440  23.0668530  13.2559470
  75.6386250  23.9110580  12.9613340  74.3585250  23.2152270  13.3724810
  76.0776060  32.9634550  15.2411700  76.6950060  33.6385630  14.9596150
  75.2169180  33.3722530  15.1499200  71.3708400  32.1534410   4.1218550
  70.9936380  32.6421510   3.3903450  71.6281470  32.8259690   4.7525080
  86.9953650  34.4273960  13.1566340  86.3117170  35.0973070  13.1483010
  87.5347940  34.6254610  12.3911200  88.4477790  24.2553620  11.2848070
  87.5002700  24.2892600  11.4163500  88.7727780  25.0692570  11.6697430
  78.9797330  20.5550800   9.5804060  79.2872310  19.9997690   8.8639560
  78.0498030  20.6895260   9.3977050  84.5312390  36.2718090  11.8711520
  84.5439550  35.8680380  11.0033780  83.9787610  37.0465380  11.7672950
  85.8257810  32.9934310   6.9601690  85.7154140  32.0508640   7.0851110
  85.8226060  33.3549950   7.8464450  83.9297830  31.1747930  13.1994130
  84.3466620  30.9608040  12.3647590  84.6537650  31.4320720  13.7702750
  81.3678090  28.6199630   6.3164180  80.4407370  28.5537010   6.5452650
  81.5202910  29.5579760   6.2019420  81.3547170  24.8916630   3.3131340
  80.4150840  25.0530590   3.3983800  81.6730430  25.6102310   2.7667330
  87.8759930  29.5735150  13.2910370  87.0478560  29.6428240  12.8160500
  88.4710410  30.1589460  12.8226200  85.3975380  30.1819930   6.8199430
  84.7787800  29.8439480   6.1725730  85.3799830  29.5379690   7.5278620
  84.8401940  26.3604470  14.2365240  84.4273120  27.1858180  14.4905230
  84.1077890  25.7749510  14.0441600  76.9734730  29.1464370   9.0983910
  76.5691730  28.4341620   8.6029810  77.0597850  28.8017610   9.9871950
  77.4416430  32.8331930  11.2623120  77.1444720  32.2277400  10.5830900
  78.3916250  32.8709240  11.1512480  75.6863350  25.9207580  12.8782950
  76.2377940  26.0302920  12.1036200  76.2006860  26.2945180  13.5938180
  85.5302040  36.4063800  14.9246220  85.0532600  37.2135990  14.7318830
  84.8463830  35.7542130  15.0772430  76.5334860  32.5713620  17.9130920
  75.6363390  32.7953590  18.1604320  76.5587730  32.6948560  16.9642320
  83.5740080  29.4206740   3.8272180  84.0133360  28.5829170   3.6810000
  84.2868500  30.0536140   3.9136320  75.3606080  29.4426940  16.4888290
  75.2213850  30.3149740  16.8575690  74.4787440  29.0999750  16.3436230
  81.6835460  34.3602810   7.7953420  82.1231370  35.1027140   7.3808810
  81.6222350  34.6029380   8.7192380  77.1586430  35.3848640  18.6973440
  77.1301860  35.7891590  17.8301870  76.9951400  34.4559000  18.5345040
  87.1557220  20.6749550   2.1413220  86.8429880  20.7676380   3.0412290
  87.9169690  21.2530580   2.0910650  73.6739360  28.0409350   6.5990560
  73.5536960  28.7671440   5.9871830  73.3640250  27.2712260   6.1218470
  89.1101250  36.1675740  19.9937610  89.5860970  36.6458630  20.6726690
  89.7308410  36.0993230  19.2683110  71.3124730  31.2124490  12.4059200
  71.3905150  31.3473260  11.4614920  71.9266410  30.5040380  12.5987320
  72.5572360  32.9124680   8.8165380  72.1500440  33.0539270   7.9618980
  73.4485370  32.6284840   8.6136590  88.5134500  33.3588590  17.1537620
  88.6397560  33.1200470  16.2354800  88.5555880  32.5273130  17.6259700
  82.3751240  37.0616590  15.7232430  82.8895910  36.9724600  16.5254860
  81.5320320  37.4076290  16.0160340  84.3505640  37.3471930   5.1516430
  84.1906780  37.0574870   6.0498260  84.1852350  36.5712060   4.6161660
  76.8294020  37.1270460   6.9288050  76.6536500  36.2106000   6.7155850
  75.9749760  37.4857750   7.1685850  84.0531770  34.8559490   3.7114430
  83.3596930  34.8536780   3.0516710  84.7954630  34.4318810   3.2808600
  83.6181700  36.4822200   7.7862920  84.0738650  35.7011580   8.1001540
  83.9574220  37.1929020   8.3304100  88.3658510  25.4121050  18.1187360
  87.7502780  25.9200720  17.5902820  88.0454930  24.5119380  18.0613300
  71.3684250  32.2538660  14.9453660  71.5315290  31.7844020  14.1273030
  71.8336700  31.7462220  15.6102500  76.1403020  21.3844420   9.9814230
  75.6971170  22.1653960   9.6498750  76.6988010  21.7074310  10.6885170
  80.4272830  24.2512940  15.5849550  79.9652200  24.4595960  16.3969490
  80.0250940  23.4372290  15.2820220  85.4277340  25.4721890  16.7146210
  84.5770930  25.1727640  17.0355280  85.2679130  25.7163900  15.8030030
  82.5227050  26.9723640  18.8145000  82.8480460  26.1387390  18.4747230
  83.3107380  27.4952160  18.9623330  79.2561840  21.0055120   4.8620060
  78.6316020  21.0014990   5.5873370  79.1691960  20.1386080   4.4656030
  78.1778920  21.9291750  11.8403830  78.4751250  22.8354580  11.7595850
  78.7264480  21.4410530  11.2263400  75.9317240  26.5077990   7.7095480
  75.7058160  26.2915160   8.6142100  75.1509770  26.9406450   7.3641450
  83.1615000  26.5141360   6.3086130  82.5623890  27.2377160   6.1249750
  83.7094610  26.4518140   5.5262580  78.3716450  27.4063570  18.3755750
  78.2760050  26.4658300  18.2256150  79.2148430  27.6278640  17.9803820
  81.7679870  25.1504900   8.3389410  82.1609440  25.4677100   7.5258100
  82.1296720  24.2716780   8.4533930  73.5026990  23.8177240  16.5289530
  73.1090380  24.6652450  16.7362310  72.8145390  23.1803610  16.7198170
  80.0772040  23.9012210  19.5986270  79.3870360  23.7084410  20.2332360
  80.8204340  24.1846850  20.1310570  70.8044040  21.7405700  10.5619610
  70.5157090  22.3108560  11.2744590  71.5489800  21.2610150  10.9250840
  82.3535010  27.7410650  12.4340190  81.6216130  28.2497460  12.7830290
  81.9559350  26.9240630  12.1328970  78.7912400  24.4164850  10.8392680
  78.7948460  23.9754800   9.9897220  79.6863520  24.7382180  10.9464500
  74.6414780  24.2991340   9.7986890  74.3014830  24.7766570  10.5553940
  73.8792100  23.8456460   9.4387990  78.8532550  25.4176930   3.8299440
  78.9745370  25.3763410   4.7785260  78.4681060  26.2801080   3.6746170
  82.8160920  23.1944330  11.8463130  82.8333660  23.6452980  12.6904980
  82.5676500  22.2949970  12.0596570  77.8654050  27.7278070   3.2282740
  77.2970950  27.2796320   2.6018650  78.5743050  28.0870850   2.6947890
  86.2431670  20.6076510  17.6849510  86.5677440  19.8766170  18.2107490
  86.2788180  20.2890150  16.7830500  72.9423230  31.6290090  17.1049470
  72.5578020  30.9883760  17.7032430  73.2535420  32.3326210  17.6744200
  79.0920370  28.4766630  12.5858090  79.4590500  28.0025200  13.3319430
  78.9025430  29.3508200  12.9266430  71.9560860  23.2210320   8.7151560
  71.6707780  22.8565990   9.5530180  71.8939720  22.4890780   8.1014700
  76.8819740  27.5175270  14.9042300  76.5776810  28.3967250  15.1292660
  77.8366200  27.5775060  14.9399740  75.4101530  31.7236260   5.5009150
  74.6363790  31.1833880   5.3407870  76.1396160  31.2042870   5.1626910
  86.1689510  30.7201620  11.2935540  86.8888630  31.2156910  10.9031650
  85.9671330  30.0419510  10.6489410  81.6299450  22.1139580   5.4364930
  80.8164060  21.6152750   5.3610240  81.4361400  22.9537830   5.0201280
  81.5508310  30.7910680  17.1804540  81.4845620  29.8706350  16.9262130
  80.9213450  30.8886120  17.8949180  84.3447840  26.4859230   3.7327090
  85.2327460  26.7976460   3.5578430  84.3152930  25.6131480   3.3407670
  75.4538930  31.3916640   9.1387960  75.9717600  30.5884900   9.0844850
  75.0022950  31.3295780   9.9804790  80.3408430  32.6582920   4.4115260
  80.6824130  33.4025150   3.9158580  79.5121140  32.9714040   4.7740090
  72.9383470  28.3578010  16.0513660  72.5798410  29.0231860  16.6387000
  72.6438030  27.5261560  16.4226280  76.1396590  28.8162250  18.9353210
  75.8396730  28.9619430  18.0381030  76.9107830  28.2567540  18.8426600
  81.4825040  33.6131250  16.9308340  81.4969580  32.6812210  16.7127250
  80.7750140  33.6991010  17.5698110  86.6162110  27.7971070   3.2006950
  86.5325830  28.2285290   2.3503390  87.3356300  28.2569420   3.6333770
  87.6936250  30.2538590  16.2776920  86.9684440  30.8467370  16.0806310
  88.2211710  30.2462130  15.4790290  87.6449360  34.6513330   5.9289080
  87.0025520  33.9968950   6.2032800  87.2580020  35.0568420   5.1529750
  83.2235840  31.9798760   9.7760770  83.5759660  31.3826890   9.1162140
  82.3398170  31.6542990   9.9469020  79.3099120  32.7396450   7.1831180
  79.9970250  33.2865660   7.5638770  78.5231540  33.2837180   7.2180790
  71.4491520  28.3569270   2.6748260  72.3186370  28.6394070   2.9584180
  70.9581840  29.1705140   2.5597070  78.6126330  29.7442480   6.7956540
  79.0689110  30.5547730   7.0216730  78.2614540  29.4265620   7.6275030
  80.9158940  35.2548820  14.0248840  81.5601160  35.4608200  14.7022260
  81.2788380  34.4937220  13.5719690  74.5138110  20.0880130   7.2679060
  74.3852740  20.0798030   8.2163980  73.6900130  20.4263220   6.9170070
  82.1891020  33.2581170  12.7426290  82.8313250  32.5574330  12.8558460
  82.7140370  34.0379610  12.5623180  86.0346740  33.5429790   2.4665430
  85.8084320  32.8260230   3.0590070  85.6442940  33.2942230   1.6287180
  83.9628640  34.0576070  15.9462350  84.2984880  34.6442760  16.6240270
  83.0428980  33.9268780  16.1760140  71.8162770  37.5696650   3.2409890
  72.1760410  38.1685990   2.5867160  71.6755110  38.1156540   4.0144920
  71.5132040  21.8471250  16.7285760  70.7990560  22.0468170  17.3338370
  71.9327080  21.0710820  17.1000560  85.6162990  31.4601730   4.1279590
  85.3284690  31.9214420   4.9157470  86.4115160  30.9999500   4.3963810
  71.8004630  35.8351510  17.7152290  71.9095750  34.8946250  17.5747680
  71.1485190  36.1006260  17.0666020  79.7917220  34.1067400  19.1150410
  79.4714090  33.3876640  19.6596100  79.1175580  34.7822470  19.1886470
  77.8331390  34.9527850   4.0583560  77.8241490  35.6857540   3.4428070
  76.9129750  34.7059430   4.1510520  73.4338030  30.1742740   4.8030320
  72.8265980  30.9141640   4.8125620  73.9087380  30.2642100   3.9768520
  83.0070820  24.3393560  14.4787210  83.3751640  23.5188770  14.8066780
  82.1469020  24.3995450  14.8942860  86.3732850  23.2950500   5.2874770
  85.7446010  23.3996170   4.5733000  85.8784770  23.5147280   6.0768650
  80.8190990  35.0156090   2.7208750  80.9202970  34.8120080   1.7910730
  79.9192730  34.7614370   2.9256530  78.3416880  25.5736450   6.7032650
  77.6333030  26.0422790   7.1446260  78.6261360  24.9158460   7.3377840
  79.9672810  26.9933150  14.7025180  80.4658060  27.4678970  15.3677030
  80.1095760  26.0696670  14.9095210  82.3732310  22.2987110   8.1428440
  82.2500090  22.3173240   7.1937950  83.3216870  22.3466050   8.2626840
  79.4609100  37.5342410   7.4156420  79.7150600  37.4963800   6.4935790
  78.5121580  37.4075740   7.4084670  76.5451900  23.8821530   4.0783360
  77.3942430  24.3191680   4.0123550  76.1783170  24.1941790   4.9055420
  87.1739670  23.2101110  15.5453570  86.6713270  23.9506510  15.8847380
  87.9896330  23.5985110  15.2290360  85.4661680  28.4534290   8.9914930
  84.5251820  28.4684520   9.1662620  85.7805750  27.6670250   9.4375230
  75.4443320  30.1353890   2.5518890  76.2106590  30.0235250   3.1144320
  75.5218010  29.4391860   1.8995660  74.1390080  27.5678960   3.2351780
  74.2193670  26.6206470   3.3469180  75.0309830  27.8985840   3.3412440
  87.4687260  35.6243140  10.6669190  87.5934680  36.4474310  11.1393000
  88.3352820  35.4133870  10.3193340  74.9404790  37.7174350  10.3386320
  75.6767270  37.1689810  10.6094890  75.3245710  38.5830360  10.1992310
  71.8250270  33.7847920   6.2127830  70.8990050  34.0269060   6.2033240
  72.2906700  34.6122180   6.0912580  73.9463070  36.9020420  19.5271900
  74.7475800  37.2232470  19.9407300  73.4314890  36.5416000  20.2491810
  82.7827700  33.0100290  19.4747310  82.1765860  33.0331890  18.7343060
  82.4781810  32.2783330  20.0114560  84.2128070  36.7380580  18.0856720
  85.1649820  36.6538600  18.0356960  84.0656290  37.4022290  18.7590510
  87.1037270  36.1174790   3.5848630  86.8178780  35.7039930   2.7702810
  86.9056820  37.0462500   3.4649150  71.6660880  29.3893880  18.4707950
  72.1699900  28.8101160  19.0424180  70.9268300  29.6734110  19.0084320
  78.7198820  30.7964870  18.0043470  77.9544490  31.3649870  17.9198140
  78.9014780  30.5041080  17.1111700  81.8087230  31.1728100   2.6296230
  81.2597330  31.6197400   3.2738970  82.4306490  30.6677350   3.1533900
  85.8622170  32.5270200  18.5618490  86.6031640  32.8645960  18.0585950
  85.0994850  32.6962260  18.0088260  73.6983960  27.5323470  19.3658020
  73.7389300  27.2337340  20.2743250  74.5529460  27.9331080  19.2065540
  77.4762350  30.1319020   4.5261530  77.8978770  29.9658890   5.3692920
  77.6013190  29.3219250   4.0316670  75.6389770  26.1115570  17.3332510
  75.1086230  25.6206520  16.7055850  76.3077840  26.5399770  16.7990440
  84.5367830  30.5785030  17.0973700  84.9508850  30.7330110  17.9464120
  83.6018830  30.7040250  17.2599480  85.0090000  27.9181190  19.1012850
  85.5910770  27.1633510  19.0133330  85.1851770  28.4488630  18.3244330
  76.1262070  23.0777940  17.4129800  76.0318940  22.4598690  16.6880670
  75.5459460  23.8044230  17.1859710  78.8923510  21.6351180  14.4457190
  78.4440810  21.6575440  13.6002740  78.2588710  21.2370200  15.0427490
  79.2983060  30.5305510  15.0669630  79.7171170  31.3738240  14.8945870
  78.3791690  30.6677550  14.8376410  81.6346960  28.2621690  16.4507470
  81.7543170  27.6662830  17.1902310  82.4940960  28.2991380  16.0308770
  83.9734860  28.8158880  15.0269980  83.4470080  29.3401500  14.4235120
  84.3166200  29.4486270  15.6579710  77.1490480  36.8358520  16.1827360
  76.6111570  37.5604580  15.8636060  77.4024440  36.3588860  15.3924700
  78.4015730  24.8043040  17.7083290  78.9915420  24.4958890  18.3961110
  77.5835970  24.3322790  17.8643190  83.2209160  24.4208850  17.9416310
  82.5324680  23.7590390  17.8766300  83.9415180  23.9747120  18.3864770
  83.8509560  21.0160480   4.0006570  84.1311850  20.1728380   4.3565990
  83.0775290  21.2483590   4.5145320  80.0052690  38.0709730  16.4414010
  79.9311390  38.9744870  16.7486380  79.1031530  37.7521630  16.4136080
  78.3888980  22.2487490   2.4453770  78.0410980  21.5711480   1.8656220
  78.5901750  21.7877000   3.2597160  80.5538020  37.2368240   4.0640370
  81.4488810  37.5753210   4.0859130  80.5855650  36.5147650   3.4364650
  74.1934180  32.6095290   2.2927370  74.6309050  33.1524960   2.9484950
  74.6781910  31.7842240   2.3023710  71.4079980  35.3984320   9.7447630
  71.7382990  34.5305380   9.5126270  71.8370980  35.6042840  10.5752590
  76.0041900  33.7293330   7.4049600  75.7037440  33.6058300   8.3053510
  75.8979390  32.8701920   6.9965330  71.8970190  36.2654910  12.4829260
  71.4601180  36.4455710  13.3153410  72.4647870  37.0229530  12.3410980
  87.5332370  35.7671910  16.7706570  86.9334360  35.8264470  16.0270490
  87.6626270  34.8276890  16.9003420  88.7733820  33.5089730   2.1076280
  87.9426780  33.5766380   2.5783510  88.9505650  34.3993850   1.8043140
  88.2290280  30.2537210   4.6110480  88.9909190  30.8233860   4.7170170
  88.2444650  29.6864410   5.3818790  71.7294620  28.7775140   8.8418140
  71.0743460  28.5086780   8.1977840  72.5672570  28.6679620   8.3920120
  89.2350250  31.1087310   9.4552410  89.6059080  30.3254630   9.0488380
  89.8752180  31.7976410   9.2769710  86.2184010  32.4923890  14.8682730
  85.4043850  32.9221050  15.1308520  86.6258210  33.1042300  14.2551780
  88.2809450  30.5471580   1.7683000  88.5558290  31.4550460   1.6402220
  88.0920190  30.4834110   2.7044990  84.6785060  23.5716430   3.0636630
  85.0969940  23.3847410   2.2233290  84.3721120  22.7195480   3.3739560
  88.1774790  28.4840570   6.7612430  87.8018390  27.7168500   6.3293720
  87.4477910  28.8663270   7.2487360  72.7670550  29.1627710  13.3821480
  73.1343590  29.0755110  14.2617500  72.1981370  28.3994260  13.2828340
  87.5674410  27.6312090  16.3951950  87.3360500  27.4024840  15.4949900
  87.8278960  28.5511640  16.3496840  72.3186550  26.0736800  17.2879900
  71.4242600  26.0403560  17.6273610  72.8584100  26.2723590  18.0531150
  86.0062480  22.8568520  19.1731650  86.8832660  22.8651920  19.5565650
  86.0183320  22.1199360  18.5624000  70.9432700  25.9874070   4.7843470
  70.0396780  26.2504270   4.6095130  71.4273320  26.2585240   4.0043430
  87.4525750  26.7098060  10.0619670  87.9763230  26.2160710   9.4309840
  88.0385170  26.8448420  10.8067240  87.6315470  26.7937930  13.5839220
  86.6818180  26.7601470  13.6984210  87.8128480  27.7038040  13.3488990
  73.4859910  25.0439610   2.6937850  74.1951610  24.6222830   2.2085130
  72.7699850  25.1114840   2.0621200  86.9425720  25.9671410   6.0012080
  87.4384840  25.7342280   6.7860960  86.7441790  25.1283250   5.5849720
  72.8226260  20.3485130  11.6363120  73.4702450  19.7982510  11.1958280
  73.2428100  20.6028280  12.4578930  88.3712880  24.6032360   8.5349760
  88.2612160  24.4488400   9.4732030  89.1320470  24.0753300   8.2925170
  86.7178600  20.5426490  14.9932760  87.3550820  21.1560630  15.3591950
  86.8653490  20.5787150  14.0481990  89.2603150  22.4340280   1.7755900
  90.1852460  22.3021460   1.5674190  89.2378940  22.5133100   2.7292350
  89.3341640  23.2050940   4.4012610  88.5393140  23.1396060   4.9305520
  89.5384920  24.1401580   4.3897960  86.2760060  37.2442490   8.3951000
  86.8719130  36.9227060   7.7185420  86.5338210  36.7714310   9.1864270
  72.5758260  20.5040800  14.3788440  72.2273080  20.9604620  15.1446620
  72.2445960  19.6097930  14.4610870  74.1822630  33.6760400  18.5441630
  74.1392260  33.3053310  19.4256090  74.3133640  34.6137970  18.6843450
  77.8828660  35.2319990  14.1451350  77.6420020  35.4994550  13.2581870
  78.8231300  35.4025720  14.2002210  80.0883080  21.6952680  17.9007860
  80.0271970  22.2874510  18.6503270  81.0283460  21.5878640  17.7558120
  82.7257640  21.3522740  17.5400150  83.3398050  21.6702030  16.8781230
  83.2707200  20.8671330  18.1596010  89.1432820  37.2514370  14.9461990
  88.6491100  37.6483240  14.2289120  88.5346110  36.6263580  15.3399270
  73.2478900  20.0317000  17.6539210  73.7961890  19.8505050  16.8905320
  73.3134210  19.2411110  18.1895520  74.0210660  36.6222650  15.6639410
  73.4270980  36.4907350  16.4029450  74.0134500  35.7860790  15.1981510
  83.4665680  19.9154880  13.8669440  82.5925520  20.2489990  13.6642370
  83.3576430  19.4428060  14.6921310  84.3737660  22.1225750  15.2511160
  84.0451020  21.3077510  14.8712890  85.3219960  22.0795560  15.1276850
  86.8272270  37.8937790  12.2248730  86.3675240  38.6453600  11.8506750
  86.1984730  37.1744260  12.1663530  73.6522890  33.9881030  14.6147450
  72.9256950  33.3686320  14.5473400  73.7132040  34.3821640  13.7445530
  77.2567990  36.2026030  11.3996860  77.7733010  35.5913390  10.8745120
  77.9065370  36.7054810  11.8907870  79.9963490  37.0934520  12.2265840
  80.2841300  36.8388820  11.3498850  80.5086710  36.5411880  12.8171410
  81.2140500  20.8324720  12.8062350  80.4312290  21.3070220  13.0859110
  80.9203430  19.9279550  12.6975530  85.7661570  21.5347820  10.8511440
  86.2069660  21.4792920  10.0033040  85.4969160  22.4505830  10.9221620
  87.6300140  21.1663060   8.8620260  87.5688540  20.2224280   8.7151280
  88.4092170  21.2743150   9.4073720  71.9352890  37.3055420   7.8244210
  71.7674930  36.6726100   8.5226100  71.0687400  37.5114820   7.4738400
  72.5580910  21.1372200   5.3276070  73.3160270  21.2501080   4.7540100
  72.0958080  21.9741400   5.2819500  79.0994720  23.2511470   8.3178380
  78.2869230  22.8768360   7.9774260  79.6036360  22.4956550   8.6199570
  83.6019700  19.9153920   9.5561450  84.2049070  20.4874130  10.0309970
  82.8612690  20.4793360   9.3335350  86.7454300  20.3175480   4.8301730
  86.9404930  21.2158930   5.0969160  85.9584170  20.0862560   5.3234680
  73.5415590  35.9988650   5.2694350  73.0163210  36.3796680   4.5656310
  73.4660170  36.6239420   5.9904060  74.9306060  21.6636250   3.8678040
  75.4598820  20.8766050   3.7385990  75.5634380  22.3427440   4.1013570
  77.1243900  21.4011390   6.9223430  76.4946640  20.6998700   7.0893560
  76.5849040  22.1615520   6.7056590  80.0635850  38.0150620  19.5934040
  80.9903160  37.7794890  19.6370000  80.0486280  38.8422620  19.1120070
  88.2980910  37.5576190   6.5908290  88.4733100  36.8713930   5.9469210
  87.6002480  38.0823240   6.1984960  77.2499460  20.6795370  19.3575920
  76.9683730  21.1828970  18.5936740  77.6319160  19.8817120  18.9918050
  76.1408560  37.9471030   4.1443600  76.8727380  37.6630310   3.5967490
  76.4002230  37.7084310   5.0342980  75.3023350  34.0635760   4.1489930
  74.6732230  34.5320860   4.6975760  75.4171180  33.2184980   4.5836120
  83.8514920  20.0948950  19.9356390  83.7380370  20.4143560  20.8307910
  84.6684660  20.4961460  19.6393670  86.6313410  37.2420480  19.4175080
  87.4238730  36.7469710  19.2101040  86.9246560  37.9210620  20.0250690
  82.7573070   9.3397930  65.3965090  82.6767120   8.4252540  65.1256800
  82.3437490   9.8365000  64.6904800  80.8891110  11.1176950  67.2774360
  80.1133210  10.6377390  67.5672930  81.5404040  10.4382600  67.1030520
  74.9056940  11.4296760  68.1550120  74.0741820  11.1745470  68.5546630
  75.5137920  11.5007530  68.8908040  84.9098540  15.5237140  66.0573490
  84.4480070  14.7524380  66.3860660  85.7224090  15.5503210  66.5625940
  74.8858200  15.4636850  68.3508140  75.1886240  14.5734590  68.1718360
  75.6301790  16.0207070  68.1230390  73.3148890   6.3898650  61.9392510
  72.4265590   6.7314620  61.8372390  73.5990080   6.1898970  61.0473340
  71.2781900   8.9904300  67.8232210  71.8498010   8.2226500  67.8235850
  71.2783440   9.2893060  66.9138820  81.1361850  17.8095150  65.6777480
  80.5173290  18.2652650  65.1071920  81.9913630  17.9646610  65.2767180
  80.3300100  13.7934140  67.2844520  80.2608380  12.8524080  67.1233650
  81.0919960  13.8835550  67.8567090  72.5206770   4.3988660  69.6101140
  72.3409610   3.5014410  69.8903900  72.1186850   4.9460530  70.2848090
  81.3605270   6.6004520  67.5113450  81.7370090   5.7276400  67.3987120
  81.2624780   6.9363220  66.6203890  75.4910280   4.9730150  62.9730890
  75.5977030   5.8733880  63.2799650  74.5802640   4.9248120  62.6825540
  85.1429390   4.0954960  64.4441790  85.9639010   3.6051530  64.4867270
  85.1763470   4.6852620  65.1973630  73.1393440   6.8949160  68.2183480
  73.8203550   7.1587530  68.8370880  72.8241490   6.0550030  68.5521490
  77.3318010   7.9416520  67.3056070  77.8396230   8.4397490  67.9461090
  77.8631250   7.1651720  67.1295430  89.4328940   6.1121710  71.0085420
  88.7281110   6.5003420  70.4900530  89.6986860   6.8072000  71.6106350
  75.6154110   2.5815080  71.5719490  75.6172550   3.0987470  70.7665390
  74.7858420   2.1045260  71.5489420  82.0025200  12.6934390  63.0709390
  81.3842470  13.1583840  62.5072110  82.5148450  13.3861870  63.4878900
  76.8656960  12.2210260  69.7492990  76.5326340  12.8479180  70.3914060
  77.0423640  12.7472140  68.9694660  85.3790870   6.0355340  67.2169330
  84.6746440   6.3240230  67.7972440  85.7403030   6.8455450  66.8568890
  75.2969440   4.2925040  69.5789940  75.6386250   5.1367090  69.2843810
  74.3585250   4.4408780  69.6955280  76.0776060  14.1891060  71.5642170
  76.6950060  14.8642140  71.2826620  75.2169180  14.5979040  71.4729670
  71.3708400  13.3790920  60.4449020  70.9936380  13.8678020  59.7133920
  71.6281470  14.0516200  61.0755550  86.9953650  15.6530470  69.4796810
  86.3117170  16.3229580  69.4713480  87.5347940  15.8511120  68.7141670
  88.4477790   5.4810130  67.6078540  87.5002700   5.5149110  67.7393970
  88.7727780   6.2949080  67.9927900  84.5312390  17.4974600  68.1941990
  84.5439550  17.0936890  67.3264250  83.9787610  18.2721890  68.0903420
  85.8257810  14.2190820  63.2832160  85.7154140  13.2765150  63.4081580
  85.8226060  14.5806460  64.1694920  83.9297830  12.4004440  69.5224600
  84.3466620  12.1864550  68.6878060  84.6537650  12.6577230  70.0933220
  81.3678090   9.8456140  62.6394650  80.4407370   9.7793520  62.8683120
  81.5202910  10.7836270  62.5249890  81.3547170   6.1173140  59.6361810
  80.4150840   6.2787100  59.7214270  81.6730430   6.8358820  59.0897800
  87.8759930  10.7991660  69.6140840  87.0478560  10.8684750  69.1390970
  88.4710410  11.3845970  69.1456670  85.3975380  11.4076440  63.1429900
  84.7787800  11.0695990  62.4956200  85.3799830  10.7636200  63.8509090
  84.8401940   7.5860980  70.5595710  84.4273120   8.4114690  70.8135700
  84.1077890   7.0006020  70.3672070  76.9734730  10.3720880  65.4214380
  76.5691730   9.6598130  64.9260280  77.0597850  10.0274120  66.3102420
  77.4416430  14.0588440  67.5853590  77.1444720  13.4533910  66.9061370
  78.3916250  14.0965750  67.4742950  75.6863350   7.1464090  69.2013420
  76.2377940   7.2559430  68.4266670  76.2006860   7.5201690  69.9168650
  85.5302040  17.6320310  71.2476690  85.0532600  18.4392500  71.0549300
  84.8463830  16.9798640  71.4002900  76.5334860  13.7970130  74.2361390
  75.6363390  14.0210100  74.4834790  76.5587730  13.9205070  73.2872790
  83.5740080  10.6463250  60.1502650  84.0133360   9.8085680  60.0040470
  84.2868500  11.2792650  60.2366790  75.3606080  10.6683450  72.8118760
  75.2213850  11.5406250  73.1806160  74.4787440  10.3256260  72.6666700
  81.6835460  15.5859320  64.1183890  82.1231370  16.3283650  63.7039280
  81.6222350  15.8285890  65.0422850  77.1586430  16.6105150  75.0203910
  77.1301860  17.0148100  74.1532340  76.9951400  15.6815510  74.8575510
  87.1557220   1.9006060  58.4643690  86.8429880   1.9932890  59.3642760
  87.9169690   2.4787090  58.4141120  73.6739360   9.2665860  62.9221030
  73.5536960   9.9927950  62.3102300  73.3640250   8.4968770  62.4448940
  71.3124730  12.4381000  68.7289670  71.3905150  12.5729770  67.7845390
  71.9266410  11.7296890  68.9217790  72.5572360  14.1381190  65.1395850
  72.1500440  14.2795780  64.2849450  73.4485370  13.8541350  64.9367060
  88.5134500  14.5845100  73.4768090  88.6397560  14.3456980  72.5585270
  88.5555880  13.7529640  73.9490170  82.3751240  18.2873100  72.0462900
  82.8895910  18.1981110  72.8485330  81.5320320  18.6332800  72.3390810
  84.3505640  18.5728440  61.4746900  84.1906780  18.2831380  62.3728730
  84.1852350  17.7968570  60.9392130  76.8294020  18.3526970  63.2518520
  76.6536500  17.4362510  63.0386320  75.9749760  18.7114260  63.4916320
  84.0531770  16.0816000  60.0344900  83.3596930  16.0793290  59.3747180
  84.7954630  15.6575320  59.6039070  83.6181700  17.7078710  64.1093390
  84.0738650  16.9268090  64.4232010  83.9574220  18.4185530  64.6534570
  88.3658510   6.6377560  74.4417830  87.7502780   7.1457230  73.9133290
  88.0454930   5.7375890  74.3843770  71.3684250  13.4795170  71.2684130
  71.5315290  13.0100530  70.4503500  71.8336700  12.9718730  71.9332970
  76.1403020   2.6100930  66.3044700  75.6971170   3.3910470  65.9729220
  76.6988010   2.9330820  67.0115640  80.4272830   5.4769450  71.9080020
  79.9652200   5.6852470  72.7199960  80.0250940   4.6628800  71.6050690
  85.4277340   6.6978400  73.0376680  84.5770930   6.3984150  73.3585750
  85.2679130   6.9420410  72.1260500  82.5227050   8.1980150  75.1375470
  82.8480460   7.3643900  74.7977700  83.3107380   8.7208670  75.2853800
  78.1778920   3.1548260  68.1634300  78.4751250   4.0611090  68.0826320
  78.7264480   2.6667040  67.5493870  75.9317240   7.7334500  64.0325950
  75.7058160   7.5171670  64.9372570  75.1509770   8.1662960  63.6871920
  83.1615000   7.7397870  62.6316600  82.5623890   8.4633670  62.4480220
  83.7094610   7.6774650  61.8493050  78.3716450   8.6320080  74.6986220
  78.2760050   7.6914810  74.5486620  79.2148430   8.8535150  74.3034290
  81.7679870   6.3761410  64.6619880  82.1609440   6.6933610  63.8488570
  82.1296720   5.4973290  64.7764400  73.5026990   5.0433750  72.8520000
  73.1090380   5.8908960  73.0592780  72.8145390   4.4060120  73.0428640
  70.8044040   2.9662210  66.8850080  70.5157090   3.5365070  67.5975060
  71.5489800   2.4866660  67.2481310  70.9914270   6.9082330  58.0952800
  70.9088940   7.8513090  58.2367790  70.6397330   6.7657240  57.2165150
  82.3535010   8.9667160  68.7570660  81.6216130   9.4753970  69.1060760
  81.9559350   8.1497140  68.4559440  78.7912400   5.6421360  67.1623150
  78.7948460   5.2011310  66.3127690  79.6863520   5.9638690  67.2694970
  74.6414780   5.5247850  66.1217360  74.3014830   6.0023080  66.8784410
  73.8792100   5.0712970  65.7618460  78.8532550   6.6433440  60.1529910
  78.9745370   6.6019920  61.1015730  78.4681060   7.5057590  59.9976640
  82.8160920   4.4200840  68.1693600  82.8333660   4.8709490  69.0135450
  82.5676500   3.5206480  68.3827040  77.8654050   8.9534580  59.5513210
  77.2970950   8.5052830  58.9249120  78.5743050   9.3127360  59.0178360
  72.9423230  12.8546600  73.4279940  72.5578020  12.2140270  74.0262900
  73.2535420  13.5582720  73.9974670  79.0920370   9.7023140  68.9088560
  79.4590500   9.2281710  69.6549900  78.9025430  10.5764710  69.2496900
  71.9560860   4.4466830  65.0382030  71.6707780   4.0822500  65.8760650
  71.8939720   3.7147290  64.4245170  76.8819740   8.7431780  71.2272770
  76.5776810   9.6223760  71.4523130  77.8366200   8.8031570  71.2630210
  75.4101530  12.9492770  61.8239620  74.6363790  12.4090390  61.6638340
  76.1396160  12.4299380  61.4857380  86.1689510  11.9458130  67.6166010
  86.8888630  12.4413420  67.2262120  85.9671330  11.2676020  66.9719880
  81.6299450   3.3396090  61.7595400  80.8164060   2.8409260  61.6840710
  81.4361400   4.1794340  61.3431750  81.5508310  12.0167190  73.5035010
  81.4845620  11.0962860  73.2492600  80.9213450  12.1142630  74.2179650
  84.3447840   7.7115740  60.0557560  85.2327460   8.0232970  59.8808900
  84.3152930   6.8387990  59.6638140  75.4538930  12.6173150  65.4618430
  75.9717600  11.8141410  65.4075320  75.0022950  12.5552290  66.3035260
  80.3408430  13.8839430  60.7345730  80.6824130  14.6281660  60.2389050
  79.5121140  14.1970550  61.0970560  72.9383470   9.5834520  72.3744130
  72.5798410  10.2488370  72.9617470  72.6438030   8.7518070  72.7456750
  76.1396590  10.0418760  75.2583680  75.8396730  10.1875940  74.3611500
  76.9107830   9.4824050  75.1657070  81.4825040  14.8387760  73.2538810
  81.4969580  13.9068720  73.0357720  80.7750140  14.9247520  73.8928580
  86.6162110   9.0227580  59.5237420  86.5325830   9.4541800  58.6733860
  87.3356300   9.4825930  59.9564240  87.6936250  11.4795100  72.6007390
  86.9684440  12.0723880  72.4036780  88.2211710  11.4718640  71.8020760
  87.6449360  15.8769840  62.2519550  87.0025520  15.2225460  62.5263270
  87.2580020  16.2824930  61.4760220  83.2235840  13.2055270  66.0991240
  83.5759660  12.6083400  65.4392610  82.3398170  12.8799500  66.2699490
  79.3099120  13.9652960  63.5061650  79.9970250  14.5122170  63.8869240
  78.5231540  14.5093690  63.5411260  71.4491520   9.5825780  58.9978730
  72.3186370   9.8650580  59.2814650  70.9581840  10.3961650  58.8827540
  78.6126330  10.9698990  63.1187010  79.0689110  11.7804240  63.3447200
  78.2614540  10.6522130  63.9505500  80.9158940  16.4805330  70.3479310
  81.5601160  16.6864710  71.0252730  81.2788380  15.7193730  69.8950160
  82.1891020  14.4837680  69.0656760  82.8313250  13.7830840  69.1788930
  82.7140370  15.2636120  68.8853650  86.0346740  14.7686300  58.7895900
  85.8084320  14.0516740  59.3820540  85.6442940  14.5198740  57.9517650
  83.9628640  15.2832580  72.2692820  84.2984880  15.8699270  72.9470740
  83.0428980  15.1525290  72.4990610  71.8162770  18.7953160  59.5640360
  72.1760410  19.3942500  58.9097630  71.6755110  19.3413050  60.3375390
  71.5132040   3.0727760  73.0516230  70.7990560   3.2724680  73.6568840
  71.9327080   2.2967330  73.4231030  85.6162990  12.6858240  60.4510060
  85.3284690  13.1470930  61.2387940  86.4115160  12.2256010  60.7194280
  71.8004630  17.0608020  74.0382760  71.9095750  16.1202760  73.8978150
  71.1485190  17.3262770  73.3896490  79.7917220  15.3323910  75.4380880
  79.4714090  14.6133150  75.9826570  79.1175580  16.0078980  75.5116940
  77.8331390  16.1784360  60.3814030  77.8241490  16.9114050  59.7658540
  76.9129750  15.9315940  60.4740990  73.4338030  11.3999250  61.1260790
  72.8265980  12.1398150  61.1356090  73.9087380  11.4898610  60.2998990
  83.0070820   5.5650070  70.8017680  83.3751640   4.7445280  71.1297250
  82.1469020   5.6251960  71.2173330  86.3732850   4.5207010  61.6105240
  85.7446010   4.6252680  60.8963470  85.8784770   4.7403790  62.3999120
  80.8190990  16.2412600  59.0439220  80.9202970  16.0376590  58.1141200
  79.9192730  15.9870880  59.2487000  78.3416880   6.7992960  63.0263120
  77.6333030   7.2679300  63.4676730  78.6261360   6.1414970  63.6608310
  79.9672810   8.2189660  71.0255650  80.4658060   8.6935480  71.6907500
  80.1095760   7.2953180  71.2325680  82.3732310   3.5243620  64.4658910
  82.2500090   3.5429750  63.5168420  83.3216870   3.5722560  64.5857310
  79.4609100  18.7598920  63.7386890  79.7150600  18.7220310  62.8166260
  78.5121580  18.6332250  63.7315140  76.5451900   5.1078040  60.4013830
  77.3942430   5.5448190  60.3354020  76.1783170   5.4198300  61.2285890
  87.1739670   4.4357620  71.8684040  86.6713270   5.1763020  72.2077850
  87.9896330   4.8241620  71.5520830  85.4661680   9.6790800  65.3145400
  84.5251820   9.6941030  65.4893090  85.7805750   8.8926760  65.7605700
  75.4443320  11.3610400  58.8749360  76.2106590  11.2491760  59.4374790
  75.5218010  10.6648370  58.2226130  74.1390080   8.7935470  59.5582250
  74.2193670   7.8462980  59.6699650  75.0309830   9.1242350  59.6642910
  87.4687260  16.8499650  66.9899660  87.5934680  17.6730820  67.4623470
  88.3352820  16.6390380  66.6423810  74.9404790  18.9430860  66.6616790
  75.6767270  18.3946320  66.9325360  75.3245710  19.8086870  66.5222780
  71.8250270  15.0104430  62.5358300  70.8990050  15.2525570  62.5263710
  72.2906700  15.8378690  62.4143050  78.0507100  18.1161170  58.4842360
  78.8435710  18.4050000  58.0324150  77.5311450  17.6853340  57.8054840
  84.2128070  17.9637090  74.4087190  85.1649820  17.8795110  74.3587430
  84.0656290  18.6278800  75.0820980  87.1037270  17.3431300  59.9079100
  86.8178780  16.9296440  59.0933280  86.9056820  18.2719010  59.7879620
  71.6660880  10.6150390  74.7938420  72.1699900  10.0357670  75.3654650
  70.9268300  10.8990620  75.3314790  78.5684500  13.3364580  58.3484710
  78.4635140  12.7216930  59.0746090  78.4008720  12.8130470  57.5647720
  78.7198820  12.0221380  74.3273940  77.9544490  12.5906380  74.2428610
  78.9014780  11.7297590  73.4342170  81.8087230  12.3984610  58.9526700
  81.2597330  12.8453910  59.5969440  82.4306490  11.8933860  59.4764370
  85.8622170  13.7526710  74.8848960  86.6031640  14.0902470  74.3816420
  85.0994850  13.9218770  74.3318730  77.4762350  11.3575530  60.8492000
  77.8978770  11.1915400  61.6923390  77.6013190  10.5475760  60.3547140
  75.6389770   7.3372080  73.6562980  75.1086230   6.8463030  73.0286320
  76.3077840   7.7656280  73.1220910  79.9889990  10.3813140  58.0969100
  80.5095650   9.6662160  57.7310250  80.6358390  11.0199010  58.3969610
  84.5367830  11.8041540  73.4204170  84.9508850  11.9586620  74.2694590
  83.6018830  11.9296760  73.5829950  85.0090000   9.1437700  75.4243320
  85.5910770   8.3890020  75.3363800  85.1851770   9.6745140  74.6474800
  76.1262070   4.3034450  73.7360270  76.0318940   3.6855200  73.0111140
  75.5459460   5.0300740  73.5090180  78.8923510   2.8607690  70.7687660
  78.4440810   2.8831950  69.9233210  78.2588710   2.4626710  71.3657960
  79.2983060  11.7562020  71.3900100  79.7171170  12.5994750  71.2176340
  78.3791690  11.8934060  71.1606880  81.6346960   9.4878200  72.7737940
  81.7543170   8.8919340  73.5132780  82.4940960   9.5247890  72.3539240
  83.9734860  10.0415390  71.3500450  83.4470080  10.5658010  70.7465590
  84.3166200  10.6742780  71.9810180  76.3721250   7.4308760  57.7950160
  76.1710310   6.5676120  58.1563500  76.2013300   7.3442120  56.8571760
  77.1490480  18.0615030  72.5057830  76.6111570  18.7861090  72.1866530
  77.4024440  17.5845370  71.7155170  78.4015730   6.0299550  74.0313760
  78.9915420   5.7215400  74.7191580  77.5835970   5.5579300  74.1873660
  83.2209160   5.6465360  74.2646780  82.5324680   4.9846900  74.1996770
  83.9415180   5.2003630  74.7095240  75.1704050   4.5309380  57.7828040
  75.4729950   4.5376810  56.8747190  75.9098640   4.1807240  58.2795700
  80.0052690  19.2966240  72.7644480  79.9311390  20.2001380  73.0716850
  79.1031530  18.9778140  72.7366550  78.3888980   3.4744000  58.7684240
  78.0410980   2.7967990  58.1886690  78.5901750   3.0133510  59.5827630
  80.5538020  18.4624750  60.3870840  81.4488810  18.8009720  60.4089600
  80.5855650  17.7404160  59.7595120  74.1934180  13.8351800  58.6157840
  74.6309050  14.3781470  59.2715420  74.6781910  13.0098750  58.6254180
  71.4079980  16.6240830  66.0678100  71.7382990  15.7561890  65.8356740
  71.8370980  16.8299350  66.8983060  76.0041900  14.9549840  63.7280070
  75.7037440  14.8314810  64.6283980  75.8979390  14.0958430  63.3195800
  71.8970190  17.4911420  68.8059730  71.4601180  17.6712220  69.6383880
  72.4647870  18.2486040  68.6641450  87.5332370  16.9928420  73.0937040
  86.9334360  17.0520980  72.3500960  87.6626270  16.0533400  73.2233890
  88.7733820  14.7346240  58.4306750  87.9426780  14.8022890  58.9013980
  88.9505650  15.6250360  58.1273610  88.2290280  11.4793720  60.9340950
  88.9909190  12.0490370  61.0400640  88.2444650  10.9120920  61.7049260
  71.7294620  10.0031650  65.1648610  71.0743460   9.7343290  64.5208310
  72.5672570   9.8936130  64.7150590  89.2350250  12.3343820  65.7782880
  89.6059080  11.5511140  65.3718850  89.8752180  13.0232920  65.6000180
  86.2184010  13.7180400  71.1913200  85.4043850  14.1477560  71.4538990
  86.6258210  14.3298810  70.5782250  88.2809450  11.7728090  58.0913470
  88.5558290  12.6806970  57.9632690  88.0920190  11.7090620  59.0275460
  84.6785060   4.7972940  59.3867100  85.0969940   4.6103920  58.5463760
  84.3721120   3.9451990  59.6970030  88.1774790   9.7097080  63.0842900
  87.8018390   8.9425010  62.6524190  87.4477910  10.0919780  63.5717830
  72.7670550  10.3884220  69.7051950  73.1343590  10.3011620  70.5847970
  72.1981370   9.6250770  69.6058810  87.5674410   8.8568600  72.7182420
  87.3360500   8.6281350  71.8180370  87.8278960   9.7768150  72.6727310
  72.3186550   7.2993310  73.6110370  71.4242600   7.2660070  73.9504080
  72.8584100   7.4980100  74.3761620  86.0062480   4.0825030  75.4962120
  86.8832660   4.0908430  75.8796120  86.0183320   3.3455870  74.8854470
  70.9432700   7.2130580  61.1073940  70.0396780   7.4760780  60.9325600
  71.4273320   7.4841750  60.3273900  87.4525750   7.9354570  66.3850140
  87.9763230   7.4417220  65.7540310  88.0385170   8.0704930  67.1297710
  87.6315470   8.0194440  69.9069690  86.6818180   7.9857980  70.0214680
  87.8128480   8.9294550  69.6719460  73.4859910   6.2696120  59.0168320
  74.1951610   5.8479340  58.5315600  72.7699850   6.3371350  58.3851670
  73.1334070   2.3235450  58.0570970  73.8562200   2.8644390  58.3752190
  73.4058590   2.0498870  57.1812510  86.9425720   7.1927920  62.3242550
  87.4384840   6.9598790  63.1091430  86.7441790   6.3539760  61.9080190
  88.3712880   5.8288870  64.8580230  88.2612160   5.6744910  65.7962500
  89.1320470   5.3009810  64.6155640  86.7178600   1.7683000  71.3163230
  87.3550820   2.3817140  71.6822420  86.8653490   1.8043660  70.3712460
  89.2603150   3.6596790  58.0986370  90.1852460   3.5277970  57.8904660
  89.2378940   3.7389610  59.0522820  89.3341640   4.4307450  60.7243080
  88.5393140   4.3652570  61.2535990  89.5384920   5.3658090  60.7128430
  86.2760060  18.4699000  64.7181470  86.8719130  18.1483570  64.0415890
  86.5338210  17.9970820  65.5094740  74.1822630  14.9016910  74.8672100
  74.1392260  14.5309820  75.7486560  74.3133640  15.8394480  75.0073920
  77.8828660  16.4576500  70.4681820  77.6420020  16.7251060  69.5812340
  78.8231300  16.6282230  70.5232680  80.0883080   2.9209190  74.2238330
  80.0271970   3.5131020  74.9733740  81.0283460   2.8135150  74.0788590
  82.7257640   2.5779250  73.8630620  83.3398050   2.8958540  73.2011700
  83.2707200   2.0927840  74.4826480  89.1432820  18.4770880  71.2692460
  88.6491100  18.8739750  70.5519590  88.5346110  17.8520090  71.6629740
  74.0210660  17.8479160  71.9869880  73.4270980  17.7163860  72.7259920
  74.0134500  17.0117300  71.5211980  84.3737660   3.3482260  71.5741630
  84.0451020   2.5334020  71.1943360  85.3219960   3.3052070  71.4507320
  86.8272270  19.1194300  68.5479200  86.3675240  19.8710110  68.1737220
  86.1984730  18.4000770  68.4894000  73.6522890  15.2137540  70.9377920
  72.9256950  14.5942830  70.8703870  73.7132040  15.6078150  70.0676000
  77.2567990  17.4282540  67.7227330  77.7733010  16.8169900  67.1975590
  77.9065370  17.9311320  68.2138340  79.9963490  18.3191030  68.5496310
  80.2841300  18.0645330  67.6729320  80.5086710  17.7668390  69.1401880
  85.7661570   2.7604330  67.1741910  86.2069660   2.7049430  66.3263510
  85.4969160   3.6762340  67.2452090  71.9352890  18.5311930  64.1474680
  71.7674930  17.8982610  64.8456570  71.0687400  18.7371330  63.7968870
  72.5580910   2.3628710  61.6506540  73.3160270   2.4757590  61.0770570
  72.0958080   3.1997910  61.6049970  79.0994720   4.4767980  64.6408850
  78.2869230   4.1024870  64.3004730  79.6036360   3.7213060  64.9430040
  73.5415590  17.2245160  61.5924820  73.0163210  17.6053190  60.8886780
  73.4660170  17.8495930  62.3134530  74.9306060   2.8892760  60.1908510
  75.4598820   2.1022560  60.0616460  75.5634380   3.5683950  60.4244040
  77.1243900   2.6267900  63.2453900  76.4946640   1.9255210  63.4124030
  76.5849040   3.3872030  63.0287060  80.0635850  19.2407130  75.9164510
  80.9903160  19.0051400  75.9600470  80.0486280  20.0679130  75.4350540
  88.2980910  18.7832700  62.9138760  88.4733100  18.0970440  62.2699680
  87.6002480  19.3079750  62.5215430  76.1408560  19.1727540  60.4674070
  76.8727380  18.8886820  59.9197960  76.4002230  18.9340820  61.3573450
  75.3023350  15.2892270  60.4720400  74.6732230  15.7577370  61.0206230
  75.4171180  14.4441490  60.9066590  82.7573070   9.3397930  46.6221600
  82.6767120   8.4252540  46.3513310  82.3437490   9.8365000  45.9161310
  80.8891110  11.1176950  48.5030870  80.1133210  10.6377390  48.7929440
  81.5404040  10.4382600  48.3287030  74.9056940  11.4296760  49.3806630
  74.0741820  11.1745470  49.7803140  75.5137920  11.5007530  50.1164550
  84.9098540  15.5237140  47.2830000  84.4480070  14.7524380  47.6117170
  85.7224090  15.5503210  47.7882450  74.8858200  15.4636850  49.5764650
  75.1886240  14.5734590  49.3974870  75.6301790  16.0207070  49.3486900
  73.3148890   6.3898650  43.1649020  72.4265590   6.7314620  43.0628900
  73.5990080   6.1898970  42.2729850  71.2781900   8.9904300  49.0488720
  71.8498010   8.2226500  49.0492360  71.2783440   9.2893060  48.1395330
  81.1361850  17.8095150  46.9033990  80.5173290  18.2652650  46.3328430
  81.9913630  17.9646610  46.5023690  80.3300100  13.7934140  48.5101030
  80.2608380  12.8524080  48.3490160  81.0919960  13.8835550  49.0823600
  72.5206770   4.3988660  50.8357650  72.3409610   3.5014410  51.1160410
  72.1186850   4.9460530  51.5104600  81.3605270   6.6004520  48.7369960
  81.7370090   5.7276400  48.6243630  81.2624780   6.9363220  47.8460400
  75.4910280   4.9730150  44.1987400  75.5977030   5.8733880  44.5056160
  74.5802640   4.9248120  43.9082050  85.1429390   4.0954960  45.6698300
  85.9639010   3.6051530  45.7123780  85.1763470   4.6852620  46.4230140
  73.1393440   6.8949160  49.4439990  73.8203550   7.1587530  50.0627390
  72.8241490   6.0550030  49.7778000  77.3318010   7.9416520  48.5312580
  77.8396230   8.4397490  49.1717600  77.8631250   7.1651720  48.3551940
  89.4328940   6.1121710  52.2341930  88.7281110   6.5003420  51.7157040
  89.6986860   6.8072000  52.8362860  75.6154110   2.5815080  52.7976000
  75.6172550   3.0987470  51.9921900  74.7858420   2.1045260  52.7745930
  82.0025200  12.6934390  44.2965900  81.3842470  13.1583840  43.7328620
  82.5148450  13.3861870  44.7135410  76.8656960  12.2210260  50.9749500
  76.5326340  12.8479180  51.6170570  77.0423640  12.7472140  50.1951170
  85.3790870   6.0355340  48.4425840  84.6746440   6.3240230  49.0228950
  85.7403030   6.8455450  48.0825400  75.2969440   4.2925040  50.8046450
  75.6386250   5.1367090  50.5100320  74.3585250   4.4408780  50.9211790
  76.0776060  14.1891060  52.7898680  76.6950060  14.8642140  52.5083130
  75.2169180  14.5979040  52.6986180  71.3708400  13.3790920  41.6705530
  70.9936380  13.8678020  40.9390430  71.6281470  14.0516200  42.3012060
  86.9953650  15.6530470  50.7053320  86.3117170  16.3229580  50.6969990
  87.5347940  15.8511120  49.9398180  88.4477790   5.4810130  48.8335050
  87.5002700   5.5149110  48.9650480  88.7727780   6.2949080  49.2184410
  84.5312390  17.4974600  49.4198500  84.5439550  17.0936890  48.5520760
  83.9787610  18.2721890  49.3159930  85.8257810  14.2190820  44.5088670
  85.7154140  13.2765150  44.6338090  85.8226060  14.5806460  45.3951430
  83.9297830  12.4004440  50.7481110  84.3466620  12.1864550  49.9134570
  84.6537650  12.6577230  51.3189730  81.3678090   9.8456140  43.8651160
  80.4407370   9.7793520  44.0939630  81.5202910  10.7836270  43.7506400
  81.3547170   6.1173140  40.8618320  80.4150840   6.2787100  40.9470780
  81.6730430   6.8358820  40.3154310  87.8759930  10.7991660  50.8397350
  87.0478560  10.8684750  50.3647480  88.4710410  11.3845970  50.3713180
  85.3975380  11.4076440  44.3686410  84.7787800  11.0695990  43.7212710
  85.3799830  10.7636200  45.0765600  84.8401940   7.5860980  51.7852220
  84.4273120   8.4114690  52.0392210  84.1077890   7.0006020  51.5928580
  76.9734730  10.3720880  46.6470890  76.5691730   9.6598130  46.1516790
  77.0597850  10.0274120  47.5358930  77.4416430  14.0588440  48.8110100
  77.1444720  13.4533910  48.1317880  78.3916250  14.0965750  48.6999460
  75.6863350   7.1464090  50.4269930  76.2377940   7.2559430  49.6523180
  76.2006860   7.5201690  51.1425160  85.5302040  17.6320310  52.4733200
  85.0532600  18.4392500  52.2805810  84.8463830  16.9798640  52.6259410
  76.5334860  13.7970130  55.4617900  75.6363390  14.0210100  55.7091300
  76.5587730  13.9205070  54.5129300  83.5740080  10.6463250  41.3759160
  84.0133360   9.8085680  41.2296980  84.2868500  11.2792650  41.4623300
  75.3606080  10.6683450  54.0375270  75.2213850  11.5406250  54.4062670
  74.4787440  10.3256260  53.8923210  81.6835460  15.5859320  45.3440400
  82.1231370  16.3283650  44.9295790  81.6222350  15.8285890  46.2679360
  77.1586430  16.6105150  56.2460420  77.1301860  17.0148100  55.3788850
  76.9951400  15.6815510  56.0832020  87.1557220   1.9006060  39.6900200
  86.8429880   1.9932890  40.5899270  87.9169690   2.4787090  39.6397630
  73.6739360   9.2665860  44.1477540  73.5536960   9.9927950  43.5358810
  73.3640250   8.4968770  43.6705450  89.1101250  17.3932250  57.5424590
  89.5860970  17.8715140  58.2213670  89.7308410  17.3249740  56.8170090
  71.3124730  12.4381000  49.9546180  71.3905150  12.5729770  49.0101900
  71.9266410  11.7296890  50.1474300  72.5572360  14.1381190  46.3652360
  72.1500440  14.2795780  45.5105960  73.4485370  13.8541350  46.1623570
  88.5134500  14.5845100  54.7024600  88.6397560  14.3456980  53.7841780
  88.5555880  13.7529640  55.1746680  82.3751240  18.2873100  53.2719410
  82.8895910  18.1981110  54.0741840  81.5320320  18.6332800  53.5647320
  84.3505640  18.5728440  42.7003410  84.1906780  18.2831380  43.5985240
  84.1852350  17.7968570  42.1648640  76.8294020  18.3526970  44.4775030
  76.6536500  17.4362510  44.2642830  75.9749760  18.7114260  44.7172830
  84.0531770  16.0816000  41.2601410  83.3596930  16.0793290  40.6003690
  84.7954630  15.6575320  40.8295580  83.6181700  17.7078710  45.3349900
  84.0738650  16.9268090  45.6488520  83.9574220  18.4185530  45.8791080
  88.3658510   6.6377560  55.6674340  87.7502780   7.1457230  55.1389800
  88.0454930   5.7375890  55.6100280  71.3684250  13.4795170  52.4940640
  71.5315290  13.0100530  51.6760010  71.8336700  12.9718730  53.1589480
  76.1403020   2.6100930  47.5301210  75.6971170   3.3910470  47.1985730
  76.6988010   2.9330820  48.2372150  80.4272830   5.4769450  53.1336530
  79.9652200   5.6852470  53.9456470  80.0250940   4.6628800  52.8307200
  85.4277340   6.6978400  54.2633190  84.5770930   6.3984150  54.5842260
  85.2679130   6.9420410  53.3517010  82.5227050   8.1980150  56.3631980
  82.8480460   7.3643900  56.0234210  83.3107380   8.7208670  56.5110310
  78.1778920   3.1548260  49.3890810  78.4751250   4.0611090  49.3082830
  78.7264480   2.6667040  48.7750380  75.9317240   7.7334500  45.2582460
  75.7058160   7.5171670  46.1629080  75.1509770   8.1662960  44.9128430
  83.1615000   7.7397870  43.8573110  82.5623890   8.4633670  43.6736730
  83.7094610   7.6774650  43.0749560  78.3716450   8.6320080  55.9242730
  78.2760050   7.6914810  55.7743130  79.2148430   8.8535150  55.5290800
  81.7679870   6.3761410  45.8876390  82.1609440   6.6933610  45.0745080
  82.1296720   5.4973290  46.0020910  73.5026990   5.0433750  54.0776510
  73.1090380   5.8908960  54.2849290  72.8145390   4.4060120  54.2685150
  80.0772040   5.1268720  57.1473250  79.3870360   4.9340920  57.7819340
  80.8204340   5.4103360  57.6797550  70.8044040   2.9662210  48.1106590
  70.5157090   3.5365070  48.8231570  71.5489800   2.4866660  48.4737820
  70.9914270   6.9082330  39.3209310  70.9088940   7.8513090  39.4624300
  70.6397330   6.7657240  38.4421660  82.3535010   8.9667160  49.9827170
  81.6216130   9.4753970  50.3317270  81.9559350   8.1497140  49.6815950
  78.7912400   5.6421360  48.3879660  78.7948460   5.2011310  47.5384200
  79.6863520   5.9638690  48.4951480  74.6414780   5.5247850  47.3473870
  74.3014830   6.0023080  48.1040920  73.8792100   5.0712970  46.9874970
  78.8532550   6.6433440  41.3786420  78.9745370   6.6019920  42.3272240
  78.4681060   7.5057590  41.2233150  82.8160920   4.4200840  49.3950110
  82.8333660   4.8709490  50.2391960  82.5676500   3.5206480  49.6083550
  77.8654050   8.9534580  40.7769720  77.2970950   8.5052830  40.1505630
  78.5743050   9.3127360  40.2434870  72.9423230  12.8546600  54.6536450
  72.5578020  12.2140270  55.2519410  73.2535420  13.5582720  55.2231180
  79.0920370   9.7023140  50.1345070  79.4590500   9.2281710  50.8806410
  78.9025430  10.5764710  50.4753410  71.9560860   4.4466830  46.2638540
  71.6707780   4.0822500  47.1017160  71.8939720   3.7147290  45.6501680
  76.8819740   8.7431780  52.4529280  76.5776810   9.6223760  52.6779640
  77.8366200   8.8031570  52.4886720  75.4101530  12.9492770  43.0496130
  74.6363790  12.4090390  42.8894850  76.1396160  12.4299380  42.7113890
  86.1689510  11.9458130  48.8422520  86.8888630  12.4413420  48.4518630
  85.9671330  11.2676020  48.1976390  81.6299450   3.3396090  42.9851910
  80.8164060   2.8409260  42.9097220  81.4361400   4.1794340  42.5688260
  81.5508310  12.0167190  54.7291520  81.4845620  11.0962860  54.4749110
  80.9213450  12.1142630  55.4436160  84.3447840   7.7115740  41.2814070
  85.2327460   8.0232970  41.1065410  84.3152930   6.8387990  40.8894650
  75.4538930  12.6173150  46.6874940  75.9717600  11.8141410  46.6331830
  75.0022950  12.5552290  47.5291770  80.3408430  13.8839430  41.9602240
  80.6824130  14.6281660  41.4645560  79.5121140  14.1970550  42.3227070
  72.9383470   9.5834520  53.6000640  72.5798410  10.2488370  54.1873980
  72.6438030   8.7518070  53.9713260  76.1396590  10.0418760  56.4840190
  75.8396730  10.1875940  55.5868010  76.9107830   9.4824050  56.3913580
  81.4825040  14.8387760  54.4795320  81.4969580  13.9068720  54.2614230
  80.7750140  14.9247520  55.1185090  86.6162110   9.0227580  40.7493930
  86.5325830   9.4541800  39.8990370  87.3356300   9.4825930  41.1820750
  87.6936250  11.4795100  53.8263900  86.9684440  12.0723880  53.6293290
  88.2211710  11.4718640  53.0277270  87.6449360  15.8769840  43.4776060
  87.0025520  15.2225460  43.7519780  87.2580020  16.2824930  42.7016730
  83.2235840  13.2055270  47.3247750  83.5759660  12.6083400  46.6649120
  82.3398170  12.8799500  47.4956000  79.3099120  13.9652960  44.7318160
  79.9970250  14.5122170  45.1125750  78.5231540  14.5093690  44.7667770
  71.4491520   9.5825780  40.2235240  72.3186370   9.8650580  40.5071160
  70.9581840  10.3961650  40.1084050  78.6126330  10.9698990  44.3443520
  79.0689110  11.7804240  44.5703710  78.2614540  10.6522130  45.1762010
  80.9158940  16.4805330  51.5735820  81.5601160  16.6864710  52.2509240
  81.2788380  15.7193730  51.1206670  82.1891020  14.4837680  50.2913270
  82.8313250  13.7830840  50.4045440  82.7140370  15.2636120  50.1110160
  86.0346740  14.7686300  40.0152410  85.8084320  14.0516740  40.6077050
  85.6442940  14.5198740  39.1774160  83.9628640  15.2832580  53.4949330
  84.2984880  15.8699270  54.1727250  83.0428980  15.1525290  53.7247120
  71.8162770  18.7953160  40.7896870  72.1760410  19.3942500  40.1354140
  71.6755110  19.3413050  41.5631900  71.5132040   3.0727760  54.2772740
  70.7990560   3.2724680  54.8825350  71.9327080   2.2967330  54.6487540
  85.6162990  12.6858240  41.6766570  85.3284690  13.1470930  42.4644450
  86.4115160  12.2256010  41.9450790  71.8004630  17.0608020  55.2639270
  71.9095750  16.1202760  55.1234660  71.1485190  17.3262770  54.6153000
  79.7917220  15.3323910  56.6637390  79.4714090  14.6133150  57.2083080
  79.1175580  16.0078980  56.7373450  77.8331390  16.1784360  41.6070540
  77.8241490  16.9114050  40.9915050  76.9129750  15.9315940  41.6997500
  73.4338030  11.3999250  42.3517300  72.8265980  12.1398150  42.3612600
  73.9087380  11.4898610  41.5255500  83.0070820   5.5650070  52.0274190
  83.3751640   4.7445280  52.3553760  82.1469020   5.6251960  52.4429840
  86.3732850   4.5207010  42.8361750  85.7446010   4.6252680  42.1219980
  85.8784770   4.7403790  43.6255630  80.8190990  16.2412600  40.2695730
  80.9202970  16.0376590  39.3397710  79.9192730  15.9870880  40.4743510
  78.3416880   6.7992960  44.2519630  77.6333030   7.2679300  44.6933240
  78.6261360   6.1414970  44.8864820  79.9672810   8.2189660  52.2512160
  80.4658060   8.6935480  52.9164010  80.1095760   7.2953180  52.4582190
  82.3732310   3.5243620  45.6915420  82.2500090   3.5429750  44.7424930
  83.3216870   3.5722560  45.8113820  79.4609100  18.7598920  44.9643400
  79.7150600  18.7220310  44.0422770  78.5121580  18.6332250  44.9571650
  76.5451900   5.1078040  41.6270340  77.3942430   5.5448190  41.5610530
  76.1783170   5.4198300  42.4542400  87.1739670   4.4357620  53.0940550
  86.6713270   5.1763020  53.4334360  87.9896330   4.8241620  52.7777340
  85.4661680   9.6790800  46.5401910  84.5251820   9.6941030  46.7149600
  85.7805750   8.8926760  46.9862210  75.4443320  11.3610400  40.1005870
  76.2106590  11.2491760  40.6631300  75.5218010  10.6648370  39.4482640
  74.1390080   8.7935470  40.7838760  74.2193670   7.8462980  40.8956160
  75.0309830   9.1242350  40.8899420  87.4687260  16.8499650  48.2156170
  87.5934680  17.6730820  48.6879980  88.3352820  16.6390380  47.8680320
  74.9404790  18.9430860  47.8873300  75.6767270  18.3946320  48.1581870
  75.3245710  19.8086870  47.7479290  71.8250270  15.0104430  43.7614810
  70.8990050  15.2525570  43.7520220  72.2906700  15.8378690  43.6399560
  73.9463070  18.1276930  57.0758880  74.7475800  18.4488980  57.4894280
  73.4314890  17.7672510  57.7978790  78.0507100  18.1161170  39.7098870
  78.8435710  18.4050000  39.2580660  77.5311450  17.6853340  39.0311350
  82.7827700  14.2356800  57.0234290  82.1765860  14.2588400  56.2830040
  82.4781810  13.5039840  57.5601540  84.2128070  17.9637090  55.6343700
  85.1649820  17.8795110  55.5843940  84.0656290  18.6278800  56.3077490
  87.1037270  17.3431300  41.1335610  86.8178780  16.9296440  40.3189790
  86.9056820  18.2719010  41.0136130  71.6660880  10.6150390  56.0194930
  72.1699900  10.0357670  56.5911160  70.9268300  10.8990620  56.5571300
  78.5684500  13.3364580  39.5741220  78.4635140  12.7216930  40.3002600
  78.4008720  12.8130470  38.7904230  78.7198820  12.0221380  55.5530450
  77.9544490  12.5906380  55.4685120  78.9014780  11.7297590  54.6598680
  81.8087230  12.3984610  40.1783210  81.2597330  12.8453910  40.8225950
  82.4306490  11.8933860  40.7020880  85.8622170  13.7526710  56.1105470
  86.6031640  14.0902470  55.6072930  85.0994850  13.9218770  55.5575240
  73.6983960   8.7579980  56.9145000  73.7389300   8.4593850  57.8230230
  74.5529460   9.1587590  56.7552520  77.4762350  11.3575530  42.0748510
  77.8978770  11.1915400  42.9179900  77.6013190  10.5475760  41.5803650
  75.6389770   7.3372080  54.8819490  75.1086230   6.8463030  54.2542830
  76.3077840   7.7656280  54.3477420  79.9889990  10.3813140  39.3225610
  80.5095650   9.6662160  38.9566760  80.6358390  11.0199010  39.6226120
  84.5367830  11.8041540  54.6460680  84.9508850  11.9586620  55.4951100
  83.6018830  11.9296760  54.8086460  85.0090000   9.1437700  56.6499830
  85.5910770   8.3890020  56.5620310  85.1851770   9.6745140  55.8731310
  76.1262070   4.3034450  54.9616780  76.0318940   3.6855200  54.2367650
  75.5459460   5.0300740  54.7346690  78.8923510   2.8607690  51.9944170
  78.4440810   2.8831950  51.1489720  78.2588710   2.4626710  52.5914470
  79.2983060  11.7562020  52.6156610  79.7171170  12.5994750  52.4432850
  78.3791690  11.8934060  52.3863390  81.6346960   9.4878200  53.9994450
  81.7543170   8.8919340  54.7389290  82.4940960   9.5247890  53.5795750
  83.9734860  10.0415390  52.5756960  83.4470080  10.5658010  51.9722100
  84.3166200  10.6742780  53.2066690  76.3721250   7.4308760  39.0206670
  76.1710310   6.5676120  39.3820010  76.2013300   7.3442120  38.0828270
  77.1490480  18.0615030  53.7314340  76.6111570  18.7861090  53.4123040
  77.4024440  17.5845370  52.9411680  78.4015730   6.0299550  55.2570270
  78.9915420   5.7215400  55.9448090  77.5835970   5.5579300  55.4130170
  83.2209160   5.6465360  55.4903290  82.5324680   4.9846900  55.4253280
  83.9415180   5.2003630  55.9351750  75.1704050   4.5309380  39.0084550
  75.4729950   4.5376810  38.1003700  75.9098640   4.1807240  39.5052210
  80.0052690  19.2966240  53.9900990  79.9311390  20.2001380  54.2973360
  79.1031530  18.9778140  53.9623060  78.3888980   3.4744000  39.9940750
  78.0410980   2.7967990  39.4143200  78.5901750   3.0133510  40.8084140
  80.5538020  18.4624750  41.6127350  81.4488810  18.8009720  41.6346110
  80.5855650  17.7404160  40.9851630  74.1934180  13.8351800  39.8414350
  74.6309050  14.3781470  40.4971930  74.6781910  13.0098750  39.8510690
  71.4079980  16.6240830  47.2934610  71.7382990  15.7561890  47.0613250
  71.8370980  16.8299350  48.1239570  76.0041900  14.9549840  44.9536580
  75.7037440  14.8314810  45.8540490  75.8979390  14.0958430  44.5452310
  71.8970190  17.4911420  50.0316240  71.4601180  17.6712220  50.8640390
  72.4647870  18.2486040  49.8897960  87.5332370  16.9928420  54.3193550
  86.9334360  17.0520980  53.5757470  87.6626270  16.0533400  54.4490400
  88.7733820  14.7346240  39.6563260  87.9426780  14.8022890  40.1270490
  88.9505650  15.6250360  39.3530120  88.2290280  11.4793720  42.1597460
  88.9909190  12.0490370  42.2657150  88.2444650  10.9120920  42.9305770
  71.7294620  10.0031650  46.3905120  71.0743460   9.7343290  45.7464820
  72.5672570   9.8936130  45.9407100  89.2350250  12.3343820  47.0039390
  89.6059080  11.5511140  46.5975360  89.8752180  13.0232920  46.8256690
  86.2184010  13.7180400  52.4169710  85.4043850  14.1477560  52.6795500
  86.6258210  14.3298810  51.8038760  88.2809450  11.7728090  39.3169980
  88.5558290  12.6806970  39.1889200  88.0920190  11.7090620  40.2531970
  84.6785060   4.7972940  40.6123610  85.0969940   4.6103920  39.7720270
  84.3721120   3.9451990  40.9226540  88.1774790   9.7097080  44.3099410
  87.8018390   8.9425010  43.8780700  87.4477910  10.0919780  44.7974340
  72.7670550  10.3884220  50.9308460  73.1343590  10.3011620  51.8104480
  72.1981370   9.6250770  50.8315320  87.5674410   8.8568600  53.9438930
  87.3360500   8.6281350  53.0436880  87.8278960   9.7768150  53.8983820
  72.3186550   7.2993310  54.8366880  71.4242600   7.2660070  55.1760590
  72.8584100   7.4980100  55.6018130  86.0062480   4.0825030  56.7218630
  86.8832660   4.0908430  57.1052630  86.0183320   3.3455870  56.1110980
  70.9432700   7.2130580  42.3330450  70.0396780   7.4760780  42.1582110
  71.4273320   7.4841750  41.5530410  87.4525750   7.9354570  47.6106650
  87.9763230   7.4417220  46.9796820  88.0385170   8.0704930  48.3554220
  87.6315470   8.0194440  51.1326200  86.6818180   7.9857980  51.2471190
  87.8128480   8.9294550  50.8975970  73.4859910   6.2696120  40.2424830
  74.1951610   5.8479340  39.7572110  72.7699850   6.3371350  39.6108180
  73.1334070   2.3235450  39.2827480  73.8562200   2.8644390  39.6008700
  73.4058590   2.0498870  38.4069020  86.9425720   7.1927920  43.5499060
  87.4384840   6.9598790  44.3347940  86.7441790   6.3539760  43.1336700
  88.3712880   5.8288870  46.0836740  88.2612160   5.6744910  47.0219010
  89.1320470   5.3009810  45.8412150  86.7178600   1.7683000  52.5419740
  87.3550820   2.3817140  52.9078930  86.8653490   1.8043660  51.5968970
  89.2603150   3.6596790  39.3242880  90.1852460   3.5277970  39.1161170
  89.2378940   3.7389610  40.2779330  89.3341640   4.4307450  41.9499590
  88.5393140   4.3652570  42.4792500  89.5384920   5.3658090  41.9384940
  86.2760060  18.4699000  45.9437980  86.8719130  18.1483570  45.2672400
  86.5338210  17.9970820  46.7351250  74.1822630  14.9016910  56.0928610
  74.1392260  14.5309820  56.9743070  74.3133640  15.8394480  56.2330430
  77.8828660  16.4576500  51.6938330  77.6420020  16.7251060  50.8068850
  78.8231300  16.6282230  51.7489190  80.0883080   2.9209190  55.4494840
  80.0271970   3.5131020  56.1990250  81.0283460   2.8135150  55.3045100
  82.7257640   2.5779250  55.0887130  83.3398050   2.8958540  54.4268210
  83.2707200   2.0927840  55.7082990  89.1432820  18.4770880  52.4948970
  88.6491100  18.8739750  51.7776100  88.5346110  17.8520090  52.8886250
  74.0210660  17.8479160  53.2126390  73.4270980  17.7163860  53.9516430
  74.0134500  17.0117300  52.7468490  84.3737660   3.3482260  52.7998140
  84.0451020   2.5334020  52.4199870  85.3219960   3.3052070  52.6763830
  86.8272270  19.1194300  49.7735710  86.3675240  19.8710110  49.3993730
  86.1984730  18.4000770  49.7150510  73.6522890  15.2137540  52.1634430
  72.9256950  14.5942830  52.0960380  73.7132040  15.6078150  51.2932510
  77.2567990  17.4282540  48.9483840  77.7733010  16.8169900  48.4232100
  77.9065370  17.9311320  49.4394850  79.9963490  18.3191030  49.7752820
  80.2841300  18.0645330  48.8985830  80.5086710  17.7668390  50.3658390
  85.7661570   2.7604330  48.3998420  86.2069660   2.7049430  47.5520020
  85.4969160   3.6762340  48.4708600  71.9352890  18.5311930  45.3731190
  71.7674930  17.8982610  46.0713080  71.0687400  18.7371330  45.0225380
  72.5580910   2.3628710  42.8763050  73.3160270   2.4757590  42.3027080
  72.0958080   3.1997910  42.8306480  79.0994720   4.4767980  45.8665360
  78.2869230   4.1024870  45.5261240  79.6036360   3.7213060  46.1686550
  73.5415590  17.2245160  42.8181330  73.0163210  17.6053190  42.1143290
  73.4660170  17.8495930  43.5391040  74.9306060   2.8892760  41.4165020
  75.4598820   2.1022560  41.2872970  75.5634380   3.5683950  41.6500550
  77.1243900   2.6267900  44.4710410  76.4946640   1.9255210  44.6380540
  76.5849040   3.3872030  44.2543570  80.0635850  19.2407130  57.1421020
  80.9903160  19.0051400  57.1856980  80.0486280  20.0679130  56.6607050
  88.2980910  18.7832700  44.1395270  88.4733100  18.0970440  43.4956190
  87.6002480  19.3079750  43.7471940  76.1408560  19.1727540  41.6930580
  76.8727380  18.8886820  41.1454470  76.4002230  18.9340820  42.5829960
  75.3023350  15.2892270  41.6976910  74.6732230  15.7577370  42.2462740
  75.4171180  14.4441490  42.1323100  86.6313410  18.4676990  56.9662060
  87.4238730  17.9726220  56.7588020  86.9246560  19.1467130  57.5737670
  82.7573070   9.3397930  27.8478110  82.6767120   8.4252540  27.5769820
  82.3437490   9.8365000  27.1417820  80.8891110  11.1176950  29.7287380
  80.1133210  10.6377390  30.0185950  81.5404040  10.4382600  29.5543540
  74.9056940  11.4296760  30.6063140  74.0741820  11.1745470  31.0059650
  75.5137920  11.5007530  31.3421060  84.9098540  15.5237140  28.5086510
  84.4480070  14.7524380  28.8373680  85.7224090  15.5503210  29.0138960
  74.8858200  15.4636850  30.8021160  75.1886240  14.5734590  30.6231380
  75.6301790  16.0207070  30.5743410  73.3148890   6.3898650  24.3905530
  72.4265590   6.7314620  24.2885410  73.5990080   6.1898970  23.4986360
  71.2781900   8.9904300  30.2745230  71.8498010   8.2226500  30.2748870
  71.2783440   9.2893060  29.3651840  81.1361850  17.8095150  28.1290500
  80.5173290  18.2652650  27.5584940  81.9913630  17.9646610  27.7280200
  80.3300100  13.7934140  29.7357540  80.2608380  12.8524080  29.5746670
  81.0919960  13.8835550  30.3080110  72.5206770   4.3988660  32.0614160
  72.3409610   3.5014410  32.3416920  72.1186850   4.9460530  32.7361110
  81.3605270   6.6004520  29.9626470  81.7370090   5.7276400  29.8500140
  81.2624780   6.9363220  29.0716910  75.4910280   4.9730150  25.4243910
  75.5977030   5.8733880  25.7312670  74.5802640   4.9248120  25.1338560
  85.1429390   4.0954960  26.8954810  85.9639010   3.6051530  26.9380290
  85.1763470   4.6852620  27.6486650  73.1393440   6.8949160  30.6696500
  73.8203550   7.1587530  31.2883900  72.8241490   6.0550030  31.0034510
  77.3318010   7.9416520  29.7569090  77.8396230   8.4397490  30.3974110
  77.8631250   7.1651720  29.5808450  89.4328940   6.1121710  33.4598440
  88.7281110   6.5003420  32.9413550  89.6986860   6.8072000  34.0619370
  75.6154110   2.5815080  34.0232510  75.6172550   3.0987470  33.2178410
  74.7858420   2.1045260  34.0002440  82.0025200  12.6934390  25.5222410
  81.3842470  13.1583840  24.9585130  82.5148450  13.3861870  25.9391920
  76.8656960  12.2210260  32.2006010  76.5326340  12.8479180  32.8427080
  77.0423640  12.7472140  31.4207680  85.3790870   6.0355340  29.6682350
  84.6746440   6.3240230  30.2485460  85.7403030   6.8455450  29.3081910
  75.2969440   4.2925040  32.0302960  75.6386250   5.1367090  31.7356830
  74.3585250   4.4408780  32.1468300  76.0776060  14.1891060  34.0155190
  76.6950060  14.8642140  33.7339640  75.2169180  14.5979040  33.9242690
  71.3708400  13.3790920  22.8962040  70.9936380  13.8678020  22.1646940
  71.6281470  14.0516200  23.5268570  86.9953650  15.6530470  31.9309830
  86.3117170  16.3229580  31.9226500  87.5347940  15.8511120  31.1654690
  88.4477790   5.4810130  30.0591560  87.5002700   5.5149110  30.1906990
  88.7727780   6.2949080  30.4440920  84.5312390  17.4974600  30.6455010
  84.5439550  17.0936890  29.7777270  83.9787610  18.2721890  30.5416440
  85.8257810  14.2190820  25.7345180  85.7154140  13.2765150  25.8594600
  85.8226060  14.5806460  26.6207940  83.9297830  12.4004440  31.9737620
  84.3466620  12.1864550  31.1391080  84.6537650  12.6577230  32.5446240
  81.3678090   9.8456140  25.0907670  80.4407370   9.7793520  25.3196140
  81.5202910  10.7836270  24.9762910  81.3547170   6.1173140  22.0874830
  80.4150840   6.2787100  22.1727290  81.6730430   6.8358820  21.5410820
  87.8759930  10.7991660  32.0653860  87.0478560  10.8684750  31.5903990
  88.4710410  11.3845970  31.5969690  85.3975380  11.4076440  25.5942920
  84.7787800  11.0695990  24.9469220  85.3799830  10.7636200  26.3022110
  84.8401940   7.5860980  33.0108730  84.4273120   8.4114690  33.2648720
  84.1077890   7.0006020  32.8185090  76.9734730  10.3720880  27.8727400
  76.5691730   9.6598130  27.3773300  77.0597850  10.0274120  28.7615440
  77.4416430  14.0588440  30.0366610  77.1444720  13.4533910  29.3574390
  78.3916250  14.0965750  29.9255970  75.6863350   7.1464090  31.6526440
  76.2377940   7.2559430  30.8779690  76.2006860   7.5201690  32.3681670
  85.5302040  17.6320310  33.6989710  85.0532600  18.4392500  33.5062320
  84.8463830  16.9798640  33.8515920  76.5334860  13.7970130  36.6874410
  75.6363390  14.0210100  36.9347810  76.5587730  13.9205070  35.7385810
  83.5740080  10.6463250  22.6015670  84.0133360   9.8085680  22.4553490
  84.2868500  11.2792650  22.6879810  75.3606080  10.6683450  35.2631780
  75.2213850  11.5406250  35.6319180  74.4787440  10.3256260  35.1179720
  81.6835460  15.5859320  26.5696910  82.1231370  16.3283650  26.1552300
  81.6222350  15.8285890  27.4935870  77.1586430  16.6105150  37.4716930
  77.1301860  17.0148100  36.6045360  76.9951400  15.6815510  37.3088530
  87.1557220   1.9006060  20.9156710  86.8429880   1.9932890  21.8155780
  87.9169690   2.4787090  20.8654140  73.6739360   9.2665860  25.3734050
  73.5536960   9.9927950  24.7615320  73.3640250   8.4968770  24.8961960
  89.1101250  17.3932250  38.7681100  89.5860970  17.8715140  39.4470180
  89.7308410  17.3249740  38.0426600  71.3124730  12.4381000  31.1802690
  71.3905150  12.5729770  30.2358410  71.9266410  11.7296890  31.3730810
  72.5572360  14.1381190  27.5908870  72.1500440  14.2795780  26.7362470
  73.4485370  13.8541350  27.3880080  88.5134500  14.5845100  35.9281110
  88.6397560  14.3456980  35.0098290  88.5555880  13.7529640  36.4003190
  82.3751240  18.2873100  34.4975920  82.8895910  18.1981110  35.2998350
  81.5320320  18.6332800  34.7903830  84.3505640  18.5728440  23.9259920
  84.1906780  18.2831380  24.8241750  84.1852350  17.7968570  23.3905150
  76.8294020  18.3526970  25.7031540  76.6536500  17.4362510  25.4899340
  75.9749760  18.7114260  25.9429340  84.0531770  16.0816000  22.4857920
  83.3596930  16.0793290  21.8260200  84.7954630  15.6575320  22.0552090
  83.6181700  17.7078710  26.5606410  84.0738650  16.9268090  26.8745030
  83.9574220  18.4185530  27.1047590  88.3658510   6.6377560  36.8930850
  87.7502780   7.1457230  36.3646310  88.0454930   5.7375890  36.8356790
  71.3684250  13.4795170  33.7197150  71.5315290  13.0100530  32.9016520
  71.8336700  12.9718730  34.3845990  76.1403020   2.6100930  28.7557720
  75.6971170   3.3910470  28.4242240  76.6988010   2.9330820  29.4628660
  80.4272830   5.4769450  34.3593040  79.9652200   5.6852470  35.1712980
  80.0250940   4.6628800  34.0563710  85.4277340   6.6978400  35.4889700
  84.5770930   6.3984150  35.8098770  85.2679130   6.9420410  34.5773520
  82.5227050   8.1980150  37.5888490  82.8480460   7.3643900  37.2490720
  83.3107380   8.7208670  37.7366820  78.1778920   3.1548260  30.6147320
  78.4751250   4.0611090  30.5339340  78.7264480   2.6667040  30.0006890
  75.9317240   7.7334500  26.4838970  75.7058160   7.5171670  27.3885590
  75.1509770   8.1662960  26.1384940  83.1615000   7.7397870  25.0829620
  82.5623890   8.4633670  24.8993240  83.7094610   7.6774650  24.3006070
  78.3716450   8.6320080  37.1499240  78.2760050   7.6914810  36.9999640
  79.2148430   8.8535150  36.7547310  81.7679870   6.3761410  27.1132900
  82.1609440   6.6933610  26.3001590  82.1296720   5.4973290  27.2277420
  73.5026990   5.0433750  35.3033020  73.1090380   5.8908960  35.5105800
  72.8145390   4.4060120  35.4941660  80.0772040   5.1268720  38.3729760
  79.3870360   4.9340920  39.0075850  80.8204340   5.4103360  38.9054060
  70.8044040   2.9662210  29.3363100  70.5157090   3.5365070  30.0488080
  71.5489800   2.4866660  29.6994330  70.9914270   6.9082330  20.5465820
  70.9088940   7.8513090  20.6880810  70.6397330   6.7657240  19.6678170
  82.3535010   8.9667160  31.2083680  81.6216130   9.4753970  31.5573780
  81.9559350   8.1497140  30.9072460  78.7912400   5.6421360  29.6136170
  78.7948460   5.2011310  28.7640710  79.6863520   5.9638690  29.7207990
  74.6414780   5.5247850  28.5730380  74.3014830   6.0023080  29.3297430
  73.8792100   5.0712970  28.2131480  78.8532550   6.6433440  22.6042930
  78.9745370   6.6019920  23.5528750  78.4681060   7.5057590  22.4489660
  82.8160920   4.4200840  30.6206620  82.8333660   4.8709490  31.4648470
  82.5676500   3.5206480  30.8340060  77.8654050   8.9534580  22.0026230
  77.2970950   8.5052830  21.3762140  78.5743050   9.3127360  21.4691380
  72.9423230  12.8546600  35.8792960  72.5578020  12.2140270  36.4775920
  73.2535420  13.5582720  36.4487690  79.0920370   9.7023140  31.3601580
  79.4590500   9.2281710  32.1062920  78.9025430  10.5764710  31.7009920
  71.9560860   4.4466830  27.4895050  71.6707780   4.0822500  28.3273670
  71.8939720   3.7147290  26.8758190  76.8819740   8.7431780  33.6785790
  76.5776810   9.6223760  33.9036150  77.8366200   8.8031570  33.7143230
  75.4101530  12.9492770  24.2752640  74.6363790  12.4090390  24.1151360
  76.1396160  12.4299380  23.9370400  86.1689510  11.9458130  30.0679030
  86.8888630  12.4413420  29.6775140  85.9671330  11.2676020  29.4232900
  81.6299450   3.3396090  24.2108420  80.8164060   2.8409260  24.1353730
  81.4361400   4.1794340  23.7944770  81.5508310  12.0167190  35.9548030
  81.4845620  11.0962860  35.7005620  80.9213450  12.1142630  36.6692670
  84.3447840   7.7115740  22.5070580  85.2327460   8.0232970  22.3321920
  84.3152930   6.8387990  22.1151160  75.4538930  12.6173150  27.9131450
  75.9717600  11.8141410  27.8588340  75.0022950  12.5552290  28.7548280
  80.3408430  13.8839430  23.1858750  80.6824130  14.6281660  22.6902070
  79.5121140  14.1970550  23.5483580  72.9383470   9.5834520  34.8257150
  72.5798410  10.2488370  35.4130490  72.6438030   8.7518070  35.1969770
  76.1396590  10.0418760  37.7096700  75.8396730  10.1875940  36.8124520
  76.9107830   9.4824050  37.6170090  81.4825040  14.8387760  35.7051830
  81.4969580  13.9068720  35.4870740  80.7750140  14.9247520  36.3441600
  86.6162110   9.0227580  21.9750440  86.5325830   9.4541800  21.1246880
  87.3356300   9.4825930  22.4077260  87.6936250  11.4795100  35.0520410
  86.9684440  12.0723880  34.8549800  88.2211710  11.4718640  34.2533780
  87.6449360  15.8769840  24.7032570  87.0025520  15.2225460  24.9776290
  87.2580020  16.2824930  23.9273240  83.2235840  13.2055270  28.5504260
  83.5759660  12.6083400  27.8905630  82.3398170  12.8799500  28.7212510
  79.3099120  13.9652960  25.9574670  79.9970250  14.5122170  26.3382260
  78.5231540  14.5093690  25.9924280  71.4491520   9.5825780  21.4491750
  72.3186370   9.8650580  21.7327670  70.9581840  10.3961650  21.3340560
  78.6126330  10.9698990  25.5700030  79.0689110  11.7804240  25.7960220
  78.2614540  10.6522130  26.4018520  80.9158940  16.4805330  32.7992330
  81.5601160  16.6864710  33.4765750  81.2788380  15.7193730  32.3463180
  82.1891020  14.4837680  31.5169780  82.8313250  13.7830840  31.6301950
  82.7140370  15.2636120  31.3366670  86.0346740  14.7686300  21.2408920
  85.8084320  14.0516740  21.8333560  85.6442940  14.5198740  20.4030670
  83.9628640  15.2832580  34.7205840  84.2984880  15.8699270  35.3983760
  83.0428980  15.1525290  34.9503630  71.8162770  18.7953160  22.0153380
  72.1760410  19.3942500  21.3610650  71.6755110  19.3413050  22.7888410
  71.5132040   3.0727760  35.5029250  70.7990560   3.2724680  36.1081860
  71.9327080   2.2967330  35.8744050  85.6162990  12.6858240  22.9023080
  85.3284690  13.1470930  23.6900960  86.4115160  12.2256010  23.1707300
  71.8004630  17.0608020  36.4895780  71.9095750  16.1202760  36.3491170
  71.1485190  17.3262770  35.8409510  79.7917220  15.3323910  37.8893900
  79.4714090  14.6133150  38.4339590  79.1175580  16.0078980  37.9629960
  77.8331390  16.1784360  22.8327050  77.8241490  16.9114050  22.2171560
  76.9129750  15.9315940  22.9254010  73.4338030  11.3999250  23.5773810
  72.8265980  12.1398150  23.5869110  73.9087380  11.4898610  22.7512010
  83.0070820   5.5650070  33.2530700  83.3751640   4.7445280  33.5810270
  82.1469020   5.6251960  33.6686350  86.3732850   4.5207010  24.0618260
  85.7446010   4.6252680  23.3476490  85.8784770   4.7403790  24.8512140
  80.8190990  16.2412600  21.4952240  80.9202970  16.0376590  20.5654220
  79.9192730  15.9870880  21.7000020  78.3416880   6.7992960  25.4776140
  77.6333030   7.2679300  25.9189750  78.6261360   6.1414970  26.1121330
  79.9672810   8.2189660  33.4768670  80.4658060   8.6935480  34.1420520
  80.1095760   7.2953180  33.6838700  82.3732310   3.5243620  26.9171930
  82.2500090   3.5429750  25.9681440  83.3216870   3.5722560  27.0370330
  79.4609100  18.7598920  26.1899910  79.7150600  18.7220310  25.2679280
  78.5121580  18.6332250  26.1828160  76.5451900   5.1078040  22.8526850
  77.3942430   5.5448190  22.7867040  76.1783170   5.4198300  23.6798910
  87.1739670   4.4357620  34.3197060  86.6713270   5.1763020  34.6590870
  87.9896330   4.8241620  34.0033850  85.4661680   9.6790800  27.7658420
  84.5251820   9.6941030  27.9406110  85.7805750   8.8926760  28.2118720
  75.4443320  11.3610400  21.3262380  76.2106590  11.2491760  21.8887810
  75.5218010  10.6648370  20.6739150  74.1390080   8.7935470  22.0095270
  74.2193670   7.8462980  22.1212670  75.0309830   9.1242350  22.1155930
  87.4687260  16.8499650  29.4412680  87.5934680  17.6730820  29.9136490
  88.3352820  16.6390380  29.0936830  74.9404790  18.9430860  29.1129810
  75.6767270  18.3946320  29.3838380  75.3245710  19.8086870  28.9735800
  71.8250270  15.0104430  24.9871320  70.8990050  15.2525570  24.9776730
  72.2906700  15.8378690  24.8656070  73.9463070  18.1276930  38.3015390
  74.7475800  18.4488980  38.7150790  73.4314890  17.7672510  39.0235300
  78.0507100  18.1161170  20.9355380  78.8435710  18.4050000  20.4837170
  77.5311450  17.6853340  20.2567860  82.7827700  14.2356800  38.2490800
  82.1765860  14.2588400  37.5086550  82.4781810  13.5039840  38.7858050
  84.2128070  17.9637090  36.8600210  85.1649820  17.8795110  36.8100450
  84.0656290  18.6278800  37.5334000  87.1037270  17.3431300  22.3592120
  86.8178780  16.9296440  21.5446300  86.9056820  18.2719010  22.2392640
  71.6660880  10.6150390  37.2451440  72.1699900  10.0357670  37.8167670
  70.9268300  10.8990620  37.7827810  78.5684500  13.3364580  20.7997730
  78.4635140  12.7216930  21.5259110  78.4008720  12.8130470  20.0160740
  78.7198820  12.0221380  36.7786960  77.9544490  12.5906380  36.6941630
  78.9014780  11.7297590  35.8855190  81.8087230  12.3984610  21.4039720
  81.2597330  12.8453910  22.0482460  82.4306490  11.8933860  21.9277390
  85.8622170  13.7526710  37.3361980  86.6031640  14.0902470  36.8329440
  85.0994850  13.9218770  36.7831750  73.6983960   8.7579980  38.1401510
  73.7389300   8.4593850  39.0486740  74.5529460   9.1587590  37.9809030
  77.4762350  11.3575530  23.3005020  77.8978770  11.1915400  24.1436410
  77.6013190  10.5475760  22.8060160  75.6389770   7.3372080  36.1076000
  75.1086230   6.8463030  35.4799340  76.3077840   7.7656280  35.5733930
  79.9889990  10.3813140  20.5482120  80.5095650   9.6662160  20.1823270
  80.6358390  11.0199010  20.8482630  84.5367830  11.8041540  35.8717190
  84.9508850  11.9586620  36.7207610  83.6018830  11.9296760  36.0342970
  85.0090000   9.1437700  37.8756340  85.5910770   8.3890020  37.7876820
  85.1851770   9.6745140  37.0987820  76.1262070   4.3034450  36.1873290
  76.0318940   3.6855200  35.4624160  75.5459460   5.0300740  35.9603200
  78.8923510   2.8607690  33.2200680  78.4440810   2.8831950  32.3746230
  78.2588710   2.4626710  33.8170980  79.2983060  11.7562020  33.8413120
  79.7171170  12.5994750  33.6689360  78.3791690  11.8934060  33.6119900
  81.6346960   9.4878200  35.2250960  81.7543170   8.8919340  35.9645800
  82.4940960   9.5247890  34.8052260  83.9734860  10.0415390  33.8013470
  83.4470080  10.5658010  33.1978610  84.3166200  10.6742780  34.4323200
  76.3721250   7.4308760  20.2463180  76.1710310   6.5676120  20.6076520
  76.2013300   7.3442120  19.3084780  77.1490480  18.0615030  34.9570850
  76.6111570  18.7861090  34.6379550  77.4024440  17.5845370  34.1668190
  78.4015730   6.0299550  36.4826780  78.9915420   5.7215400  37.1704600
  77.5835970   5.5579300  36.6386680  83.2209160   5.6465360  36.7159800
  82.5324680   4.9846900  36.6509790  83.9415180   5.2003630  37.1608260
  75.1704050   4.5309380  20.2341060  75.4729950   4.5376810  19.3260210
  75.9098640   4.1807240  20.7308720  80.0052690  19.2966240  35.2157500
  79.9311390  20.2001380  35.5229870  79.1031530  18.9778140  35.1879570
  78.3888980   3.4744000  21.2197260  78.0410980   2.7967990  20.6399710
  78.5901750   3.0133510  22.0340650  80.5538020  18.4624750  22.8383860
  81.4488810  18.8009720  22.8602620  80.5855650  17.7404160  22.2108140
  74.1934180  13.8351800  21.0670860  74.6309050  14.3781470  21.7228440
  74.6781910  13.0098750  21.0767200  71.4079980  16.6240830  28.5191120
  71.7382990  15.7561890  28.2869760  71.8370980  16.8299350  29.3496080
  76.0041900  14.9549840  26.1793090  75.7037440  14.8314810  27.0797000
  75.8979390  14.0958430  25.7708820  71.8970190  17.4911420  31.2572750
  71.4601180  17.6712220  32.0896900  72.4647870  18.2486040  31.1154470
  87.5332370  16.9928420  35.5450060  86.9334360  17.0520980  34.8013980
  87.6626270  16.0533400  35.6746910  88.7733820  14.7346240  20.8819770
  87.9426780  14.8022890  21.3527000  88.9505650  15.6250360  20.5786630
  88.2290280  11.4793720  23.3853970  88.9909190  12.0490370  23.4913660
  88.2444650  10.9120920  24.1562280  71.7294620  10.0031650  27.6161630
  71.0743460   9.7343290  26.9721330  72.5672570   9.8936130  27.1663610
  89.2350250  12.3343820  28.2295900  89.6059080  11.5511140  27.8231870
  89.8752180  13.0232920  28.0513200  86.2184010  13.7180400  33.6426220
  85.4043850  14.1477560  33.9052010  86.6258210  14.3298810  33.0295270
  88.2809450  11.7728090  20.5426490  88.5558290  12.6806970  20.4145710
  88.0920190  11.7090620  21.4788480  84.6785060   4.7972940  21.8380120
  85.0969940   4.6103920  20.9976780  84.3721120   3.9451990  22.1483050
  88.1774790   9.7097080  25.5355920  87.8018390   8.9425010  25.1037210
  87.4477910  10.0919780  26.0230850  72.7670550  10.3884220  32.1564970
  73.1343590  10.3011620  33.0360990  72.1981370   9.6250770  32.0571830
  87.5674410   8.8568600  35.1695440  87.3360500   8.6281350  34.2693390
  87.8278960   9.7768150  35.1240330  72.3186550   7.2993310  36.0623390
  71.4242600   7.2660070  36.4017100  72.8584100   7.4980100  36.8274640
  86.0062480   4.0825030  37.9475140  86.8832660   4.0908430  38.3309140
  86.0183320   3.3455870  37.3367490  70.9432700   7.2130580  23.5586960
  70.0396780   7.4760780  23.3838620  71.4273320   7.4841750  22.7786920
  87.4525750   7.9354570  28.8363160  87.9763230   7.4417220  28.2053330
  88.0385170   8.0704930  29.5810730  87.6315470   8.0194440  32.3582710
  86.6818180   7.9857980  32.4727700  87.8128480   8.9294550  32.1232480
  73.4859910   6.2696120  21.4681340  74.1951610   5.8479340  20.9828620
  72.7699850   6.3371350  20.8364690  73.1334070   2.3235450  20.5083990
  73.8562200   2.8644390  20.8265210  73.4058590   2.0498870  19.6325530
  86.9425720   7.1927920  24.7755570  87.4384840   6.9598790  25.5604450
  86.7441790   6.3539760  24.3593210  88.3712880   5.8288870  27.3093250
  88.2612160   5.6744910  28.2475520  89.1320470   5.3009810  27.0668660
  86.7178600   1.7683000  33.7676250  87.3550820   2.3817140  34.1335440
  86.8653490   1.8043660  32.8225480  89.2603150   3.6596790  20.5499390
  90.1852460   3.5277970  20.3417680  89.2378940   3.7389610  21.5035840
  89.3341640   4.4307450  23.1756100  88.5393140   4.3652570  23.7049010
  89.5384920   5.3658090  23.1641450  86.2760060  18.4699000  27.1694490
  86.8719130  18.1483570  26.4928910  86.5338210  17.9970820  27.9607760
  74.1822630  14.9016910  37.3185120  74.1392260  14.5309820  38.1999580
  74.3133640  15.8394480  37.4586940  77.8828660  16.4576500  32.9194840
  77.6420020  16.7251060  32.0325360  78.8231300  16.6282230  32.9745700
  80.0883080   2.9209190  36.6751350  80.0271970   3.5131020  37.4246760
  81.0283460   2.8135150  36.5301610  82.7257640   2.5779250  36.3143640
  83.3398050   2.8958540  35.6524720  83.2707200   2.0927840  36.9339500
  89.1432820  18.4770880  33.7205480  88.6491100  18.8739750  33.0032610
  88.5346110  17.8520090  34.1142760  74.0210660  17.8479160  34.4382900
  73.4270980  17.7163860  35.1772940  74.0134500  17.0117300  33.9725000
  84.3737660   3.3482260  34.0254650  84.0451020   2.5334020  33.6456380
  85.3219960   3.3052070  33.9020340  86.8272270  19.1194300  30.9992220
  86.3675240  19.8710110  30.6250240  86.1984730  18.4000770  30.9407020
  73.6522890  15.2137540  33.3890940  72.9256950  14.5942830  33.3216890
  73.7132040  15.6078150  32.5189020  77.2567990  17.4282540  30.1740350
  77.7733010  16.8169900  29.6488610  77.9065370  17.9311320  30.6651360
  79.9963490  18.3191030  31.0009330  80.2841300  18.0645330  30.1242340
  80.5086710  17.7668390  31.5914900  85.7661570   2.7604330  29.6254930
  86.2069660   2.7049430  28.7776530  85.4969160   3.6762340  29.6965110
  71.9352890  18.5311930  26.5987700  71.7674930  17.8982610  27.2969590
  71.0687400  18.7371330  26.2481890  72.5580910   2.3628710  24.1019560
  73.3160270   2.4757590  23.5283590  72.0958080   3.1997910  24.0562990
  79.0994720   4.4767980  27.0921870  78.2869230   4.1024870  26.7517750
  79.6036360   3.7213060  27.3943060  73.5415590  17.2245160  24.0437840
  73.0163210  17.6053190  23.3399800  73.4660170  17.8495930  24.7647550
  74.9306060   2.8892760  22.6421530  75.4598820   2.1022560  22.5129480
  75.5634380   3.5683950  22.8757060  77.1243900   2.6267900  25.6966920
  76.4946640   1.9255210  25.8637050  76.5849040   3.3872030  25.4800080
  80.0635850  19.2407130  38.3677530  80.9903160  19.0051400  38.4113490
  80.0486280  20.0679130  37.8863560  88.2980910  18.7832700  25.3651780
  88.4733100  18.0970440  24.7212700  87.6002480  19.3079750  24.9728450
  76.1408560  19.1727540  22.9187090  76.8727380  18.8886820  22.3710980
  76.4002230  18.9340820  23.8086470  75.3023350  15.2892270  22.9233420
  74.6732230  15.7577370  23.4719250  75.4171180  14.4441490  23.3579610
  86.6313410  18.4676990  38.1918570  87.4238730  17.9726220  37.9844530
  86.9246560  19.1467130  38.7994180  82.7573070   9.3397930   9.0734620
  82.6767120   8.4252540   8.8026330  82.3437490   9.8365000   8.3674330
  80.8891110  11.1176950  10.9543890  80.1133210  10.6377390  11.2442460
  81.5404040  10.4382600  10.7800050  74.9056940  11.4296760  11.8319650
  74.0741820  11.1745470  12.2316160  75.5137920  11.5007530  12.5677570
  84.9098540  15.5237140   9.7343020  84.4480070  14.7524380  10.0630190
  85.7224090  15.5503210  10.2395470  74.8858200  15.4636850  12.0277670
  75.1886240  14.5734590  11.8487890  75.6301790  16.0207070  11.7999920
  73.3148890   6.3898650   5.6162040  72.4265590   6.7314620   5.5141920
  73.5990080   6.1898970   4.7242870  71.2781900   8.9904300  11.5001740
  71.8498010   8.2226500  11.5005380  71.2783440   9.2893060  10.5908350
  81.1361850  17.8095150   9.3547010  80.5173290  18.2652650   8.7841450
  81.9913630  17.9646610   8.9536710  80.3300100  13.7934140  10.9614050
  80.2608380  12.8524080  10.8003180  81.0919960  13.8835550  11.5336620
  72.5206770   4.3988660  13.2870670  72.3409610   3.5014410  13.5673430
  72.1186850   4.9460530  13.9617620  81.3605270   6.6004520  11.1882980
  81.7370090   5.7276400  11.0756650  81.2624780   6.9363220  10.2973420
  75.4910280   4.9730150   6.6500420  75.5977030   5.8733880   6.9569180
  74.5802640   4.9248120   6.3595070  85.1429390   4.0954960   8.1211320
  85.9639010   3.6051530   8.1636800  85.1763470   4.6852620   8.8743160
  73.1393440   6.8949160  11.8953010  73.8203550   7.1587530  12.5140410
  72.8241490   6.0550030  12.2291020  77.3318010   7.9416520  10.9825600
  77.8396230   8.4397490  11.6230620  77.8631250   7.1651720  10.8064960
  89.4328940   6.1121710  14.6854950  88.7281110   6.5003420  14.1670060
  89.6986860   6.8072000  15.2875880  75.6154110   2.5815080  15.2489020
  75.6172550   3.0987470  14.4434920  74.7858420   2.1045260  15.2258950
  82.0025200  12.6934390   6.7478920  81.3842470  13.1583840   6.1841640
  82.5148450  13.3861870   7.1648430  76.8656960  12.2210260  13.4262520
  76.5326340  12.8479180  14.0683590  77.0423640  12.7472140  12.6464190
  85.3790870   6.0355340  10.8938860  84.6746440   6.3240230  11.4741970
  85.7403030   6.8455450  10.5338420  75.2969440   4.2925040  13.2559470
  75.6386250   5.1367090  12.9613340  74.3585250   4.4408780  13.3724810
  76.0776060  14.1891060  15.2411700  76.6950060  14.8642140  14.9596150
  75.2169180  14.5979040  15.1499200  71.3708400  13.3790920   4.1218550
  70.9936380  13.8678020   3.3903450  71.6281470  14.0516200   4.7525080
  86.9953650  15.6530470  13.1566340  86.3117170  16.3229580  13.1483010
  87.5347940  15.8511120  12.3911200  88.4477790   5.4810130  11.2848070
  87.5002700   5.5149110  11.4163500  88.7727780   6.2949080  11.6697430
  84.5312390  17.4974600  11.8711520  84.5439550  17.0936890  11.0033780
  83.9787610  18.2721890  11.7672950  85.8257810  14.2190820   6.9601690
  85.7154140  13.2765150   7.0851110  85.8226060  14.5806460   7.8464450
  83.9297830  12.4004440  13.1994130  84.3466620  12.1864550  12.3647590
  84.6537650  12.6577230  13.7702750  81.3678090   9.8456140   6.3164180
  80.4407370   9.7793520   6.5452650  81.5202910  10.7836270   6.2019420
  81.3547170   6.1173140   3.3131340  80.4150840   6.2787100   3.3983800
  81.6730430   6.8358820   2.7667330  87.8759930  10.7991660  13.2910370
  87.0478560  10.8684750  12.8160500  88.4710410  11.3845970  12.8226200
  85.3975380  11.4076440   6.8199430  84.7787800  11.0695990   6.1725730
  85.3799830  10.7636200   7.5278620  84.8401940   7.5860980  14.2365240
  84.4273120   8.4114690  14.4905230  84.1077890   7.0006020  14.0441600
  76.9734730  10.3720880   9.0983910  76.5691730   9.6598130   8.6029810
  77.0597850  10.0274120   9.9871950  77.4416430  14.0588440  11.2623120
  77.1444720  13.4533910  10.5830900  78.3916250  14.0965750  11.1512480
  75.6863350   7.1464090  12.8782950  76.2377940   7.2559430  12.1036200
  76.2006860   7.5201690  13.5938180  85.5302040  17.6320310  14.9246220
  85.0532600  18.4392500  14.7318830  84.8463830  16.9798640  15.0772430
  76.5334860  13.7970130  17.9130920  75.6363390  14.0210100  18.1604320
  76.5587730  13.9205070  16.9642320  83.5740080  10.6463250   3.8272180
  84.0133360   9.8085680   3.6810000  84.2868500  11.2792650   3.9136320
  75.3606080  10.6683450  16.4888290  75.2213850  11.5406250  16.8575690
  74.4787440  10.3256260  16.3436230  81.6835460  15.5859320   7.7953420
  82.1231370  16.3283650   7.3808810  81.6222350  15.8285890   8.7192380
  77.1586430  16.6105150  18.6973440  77.1301860  17.0148100  17.8301870
  76.9951400  15.6815510  18.5345040  87.1557220   1.9006060   2.1413220
  86.8429880   1.9932890   3.0412290  87.9169690   2.4787090   2.0910650
  73.6739360   9.2665860   6.5990560  73.5536960   9.9927950   5.9871830
  73.3640250   8.4968770   6.1218470  89.1101250  17.3932250  19.9937610
  89.5860970  17.8715140  20.6726690  89.7308410  17.3249740  19.2683110
  71.3124730  12.4381000  12.4059200  71.3905150  12.5729770  11.4614920
  71.9266410  11.7296890  12.5987320  72.5572360  14.1381190   8.8165380
  72.1500440  14.2795780   7.9618980  73.4485370  13.8541350   8.6136590
  88.5134500  14.5845100  17.1537620  88.6397560  14.3456980  16.2354800
  88.5555880  13.7529640  17.6259700  82.3751240  18.2873100  15.7232430
  82.8895910  18.1981110  16.5254860  81.5320320  18.6332800  16.0160340
  84.3505640  18.5728440   5.1516430  84.1906780  18.2831380   6.0498260
  84.1852350  17.7968570   4.6161660  76.8294020  18.3526970   6.9288050
  76.6536500  17.4362510   6.7155850  75.9749760  18.7114260   7.1685850
  84.0531770  16.0816000   3.7114430  83.3596930  16.0793290   3.0516710
  84.7954630  15.6575320   3.2808600  83.6181700  17.7078710   7.7862920
  84.0738650  16.9268090   8.1001540  83.9574220  18.4185530   8.3304100
  88.3658510   6.6377560  18.1187360  87.7502780   7.1457230  17.5902820
  88.0454930   5.7375890  18.0613300  71.3684250  13.4795170  14.9453660
  71.5315290  13.0100530  14.1273030  71.8336700  12.9718730  15.6102500
  76.1403020   2.6100930   9.9814230  75.6971170   3.3910470   9.6498750
  76.6988010   2.9330820  10.6885170  80.4272830   5.4769450  15.5849550
  79.9652200   5.6852470  16.3969490  80.0250940   4.6628800  15.2820220
  85.4277340   6.6978400  16.7146210  84.5770930   6.3984150  17.0355280
  85.2679130   6.9420410  15.8030030  82.5227050   8.1980150  18.8145000
  82.8480460   7.3643900  18.4747230  83.3107380   8.7208670  18.9623330
  78.1778920   3.1548260  11.8403830  78.4751250   4.0611090  11.7595850
  78.7264480   2.6667040  11.2263400  75.9317240   7.7334500   7.7095480
  75.7058160   7.5171670   8.6142100  75.1509770   8.1662960   7.3641450
  83.1615000   7.7397870   6.3086130  82.5623890   8.4633670   6.1249750
  83.7094610   7.6774650   5.5262580  78.3716450   8.6320080  18.3755750
  78.2760050   7.6914810  18.2256150  79.2148430   8.8535150  17.9803820
  81.7679870   6.3761410   8.3389410  82.1609440   6.6933610   7.5258100
  82.1296720   5.4973290   8.4533930  73.5026990   5.0433750  16.5289530
  73.1090380   5.8908960  16.7362310  72.8145390   4.4060120  16.7198170
  80.0772040   5.1268720  19.5986270  79.3870360   4.9340920  20.2332360
  80.8204340   5.4103360  20.1310570  70.8044040   2.9662210  10.5619610
  70.5157090   3.5365070  11.2744590  71.5489800   2.4866660  10.9250840
  82.3535010   8.9667160  12.4340190  81.6216130   9.4753970  12.7830290
  81.9559350   8.1497140  12.1328970  78.7912400   5.6421360  10.8392680
  78.7948460   5.2011310   9.9897220  79.6863520   5.9638690  10.9464500
  74.6414780   5.5247850   9.7986890  74.3014830   6.0023080  10.5553940
  73.8792100   5.0712970   9.4387990  78.8532550   6.6433440   3.8299440
  78.9745370   6.6019920   4.7785260  78.4681060   7.5057590   3.6746170
  82.8160920   4.4200840  11.8463130  82.8333660   4.8709490  12.6904980
  82.5676500   3.5206480  12.0596570  77.8654050   8.9534580   3.2282740
  77.2970950   8.5052830   2.6018650  78.5743050   9.3127360   2.6947890
  72.9423230  12.8546600  17.1049470  72.5578020  12.2140270  17.7032430
  73.2535420  13.5582720  17.6744200  79.0920370   9.7023140  12.5858090
  79.4590500   9.2281710  13.3319430  78.9025430  10.5764710  12.9266430
  71.9560860   4.4466830   8.7151560  71.6707780   4.0822500   9.5530180
  71.8939720   3.7147290   8.1014700  76.8819740   8.7431780  14.9042300
  76.5776810   9.6223760  15.1292660  77.8366200   8.8031570  14.9399740
  75.4101530  12.9492770   5.5009150  74.6363790  12.4090390   5.3407870
  76.1396160  12.4299380   5.1626910  86.1689510  11.9458130  11.2935540
  86.8888630  12.4413420  10.9031650  85.9671330  11.2676020  10.6489410
  81.6299450   3.3396090   5.4364930  80.8164060   2.8409260   5.3610240
  81.4361400   4.1794340   5.0201280  81.5508310  12.0167190  17.1804540
  81.4845620  11.0962860  16.9262130  80.9213450  12.1142630  17.8949180
  84.3447840   7.7115740   3.7327090  85.2327460   8.0232970   3.5578430
  84.3152930   6.8387990   3.3407670  75.4538930  12.6173150   9.1387960
  75.9717600  11.8141410   9.0844850  75.0022950  12.5552290   9.9804790
  80.3408430  13.8839430   4.4115260  80.6824130  14.6281660   3.9158580
  79.5121140  14.1970550   4.7740090  72.9383470   9.5834520  16.0513660
  72.5798410  10.2488370  16.6387000  72.6438030   8.7518070  16.4226280
  76.1396590  10.0418760  18.9353210  75.8396730  10.1875940  18.0381030
  76.9107830   9.4824050  18.8426600  81.4825040  14.8387760  16.9308340
  81.4969580  13.9068720  16.7127250  80.7750140  14.9247520  17.5698110
  86.6162110   9.0227580   3.2006950  86.5325830   9.4541800   2.3503390
  87.3356300   9.4825930   3.6333770  87.6936250  11.4795100  16.2776920
  86.9684440  12.0723880  16.0806310  88.2211710  11.4718640  15.4790290
  87.6449360  15.8769840   5.9289080  87.0025520  15.2225460   6.2032800
  87.2580020  16.2824930   5.1529750  83.2235840  13.2055270   9.7760770
  83.5759660  12.6083400   9.1162140  82.3398170  12.8799500   9.9469020
  79.3099120  13.9652960   7.1831180  79.9970250  14.5122170   7.5638770
  78.5231540  14.5093690   7.2180790  71.4491520   9.5825780   2.6748260
  72.3186370   9.8650580   2.9584180  70.9581840  10.3961650   2.5597070
  78.6126330  10.9698990   6.7956540  79.0689110  11.7804240   7.0216730
  78.2614540  10.6522130   7.6275030  80.9158940  16.4805330  14.0248840
  81.5601160  16.6864710  14.7022260  81.2788380  15.7193730  13.5719690
  82.1891020  14.4837680  12.7426290  82.8313250  13.7830840  12.8558460
  82.7140370  15.2636120  12.5623180  86.0346740  14.7686300   2.4665430
  85.8084320  14.0516740   3.0590070  85.6442940  14.5198740   1.6287180
  83.9628640  15.2832580  15.9462350  84.2984880  15.8699270  16.6240270
  83.0428980  15.1525290  16.1760140  71.8162770  18.7953160   3.2409890
  72.1760410  19.3942500   2.5867160  71.6755110  19.3413050   4.0144920
  71.5132040   3.0727760  16.7285760  70.7990560   3.2724680  17.3338370
  71.9327080   2.2967330  17.1000560  85.6162990  12.6858240   4.1279590
  85.3284690  13.1470930   4.9157470  86.4115160  12.2256010   4.3963810
  71.8004630  17.0608020  17.7152290  71.9095750  16.1202760  17.5747680
  71.1485190  17.3262770  17.0666020  79.7917220  15.3323910  19.1150410
  79.4714090  14.6133150  19.6596100  79.1175580  16.0078980  19.1886470
  77.8331390  16.1784360   4.0583560  77.8241490  16.9114050   3.4428070
  76.9129750  15.9315940   4.1510520  73.4338030  11.3999250   4.8030320
  72.8265980  12.1398150   4.8125620  73.9087380  11.4898610   3.9768520
  83.0070820   5.5650070  14.4787210  83.3751640   4.7445280  14.8066780
  82.1469020   5.6251960  14.8942860  86.3732850   4.5207010   5.2874770
  85.7446010   4.6252680   4.5733000  85.8784770   4.7403790   6.0768650
  80.8190990  16.2412600   2.7208750  80.9202970  16.0376590   1.7910730
  79.9192730  15.9870880   2.9256530  78.3416880   6.7992960   6.7032650
  77.6333030   7.2679300   7.1446260  78.6261360   6.1414970   7.3377840
  79.9672810   8.2189660  14.7025180  80.4658060   8.6935480  15.3677030
  80.1095760   7.2953180  14.9095210  82.3732310   3.5243620   8.1428440
  82.2500090   3.5429750   7.1937950  83.3216870   3.5722560   8.2626840
  79.4609100  18.7598920   7.4156420  79.7150600  18.7220310   6.4935790
  78.5121580  18.6332250   7.4084670  76.5451900   5.1078040   4.0783360
  77.3942430   5.5448190   4.0123550  76.1783170   5.4198300   4.9055420
  87.1739670   4.4357620  15.5453570  86.6713270   5.1763020  15.8847380
  87.9896330   4.8241620  15.2290360  85.4661680   9.6790800   8.9914930
  84.5251820   9.6941030   9.1662620  85.7805750   8.8926760   9.4375230
  75.4443320  11.3610400   2.5518890  76.2106590  11.2491760   3.1144320
  75.5218010  10.6648370   1.8995660  74.1390080   8.7935470   3.2351780
  74.2193670   7.8462980   3.3469180  75.0309830   9.1242350   3.3412440
  87.4687260  16.8499650  10.6669190  87.5934680  17.6730820  11.1393000
  88.3352820  16.6390380  10.3193340  74.9404790  18.9430860  10.3386320
  75.6767270  18.3946320  10.6094890  75.3245710  19.8086870  10.1992310
  71.8250270  15.0104430   6.2127830  70.8990050  15.2525570   6.2033240
  72.2906700  15.8378690   6.0912580  73.9463070  18.1276930  19.5271900
  74.7475800  18.4488980  19.9407300  73.4314890  17.7672510  20.2491810
  82.7827700  14.2356800  19.4747310  82.1765860  14.2588400  18.7343060
  82.4781810  13.5039840  20.0114560  84.2128070  17.9637090  18.0856720
  85.1649820  17.8795110  18.0356960  84.0656290  18.6278800  18.7590510
  87.1037270  17.3431300   3.5848630  86.8178780  16.9296440   2.7702810
  86.9056820  18.2719010   3.4649150  71.6660880  10.6150390  18.4707950
  72.1699900  10.0357670  19.0424180  70.9268300  10.8990620  19.0084320
  78.7198820  12.0221380  18.0043470  77.9544490  12.5906380  17.9198140
  78.9014780  11.7297590  17.1111700  81.8087230  12.3984610   2.6296230
  81.2597330  12.8453910   3.2738970  82.4306490  11.8933860   3.1533900
  85.8622170  13.7526710  18.5618490  86.6031640  14.0902470  18.0585950
  85.0994850  13.9218770  18.0088260  73.6983960   8.7579980  19.3658020
  73.7389300   8.4593850  20.2743250  74.5529460   9.1587590  19.2065540
  77.4762350  11.3575530   4.5261530  77.8978770  11.1915400   5.3692920
  77.6013190  10.5475760   4.0316670  75.6389770   7.3372080  17.3332510
  75.1086230   6.8463030  16.7055850  76.3077840   7.7656280  16.7990440
  84.5367830  11.8041540  17.0973700  84.9508850  11.9586620  17.9464120
  83.6018830  11.9296760  17.2599480  85.0090000   9.1437700  19.1012850
  85.5910770   8.3890020  19.0133330  85.1851770   9.6745140  18.3244330
  76.1262070   4.3034450  17.4129800  76.0318940   3.6855200  16.6880670
  75.5459460   5.0300740  17.1859710  78.8923510   2.8607690  14.4457190
  78.4440810   2.8831950  13.6002740  78.2588710   2.4626710  15.0427490
  79.2983060  11.7562020  15.0669630  79.7171170  12.5994750  14.8945870
  78.3791690  11.8934060  14.8376410  81.6346960   9.4878200  16.4507470
  81.7543170   8.8919340  17.1902310  82.4940960   9.5247890  16.0308770
  83.9734860  10.0415390  15.0269980  83.4470080  10.5658010  14.4235120
  84.3166200  10.6742780  15.6579710  77.1490480  18.0615030  16.1827360
  76.6111570  18.7861090  15.8636060  77.4024440  17.5845370  15.3924700
  78.4015730   6.0299550  17.7083290  78.9915420   5.7215400  18.3961110
  77.5835970   5.5579300  17.8643190  83.2209160   5.6465360  17.9416310
  82.5324680   4.9846900  17.8766300  83.9415180   5.2003630  18.3864770
  80.0052690  19.2966240  16.4414010  79.9311390  20.2001380  16.7486380
  79.1031530  18.9778140  16.4136080  78.3888980   3.4744000   2.4453770
  78.0410980   2.7967990   1.8656220  78.5901750   3.0133510   3.2597160
  80.5538020  18.4624750   4.0640370  81.4488810  18.8009720   4.0859130
  80.5855650  17.7404160   3.4364650  74.1934180  13.8351800   2.2927370
  74.6309050  14.3781470   2.9484950  74.6781910  13.0098750   2.3023710
  71.4079980  16.6240830   9.7447630  71.7382990  15.7561890   9.5126270
  71.8370980  16.8299350  10.5752590  76.0041900  14.9549840   7.4049600
  75.7037440  14.8314810   8.3053510  75.8979390  14.0958430   6.9965330
  71.8970190  17.4911420  12.4829260  71.4601180  17.6712220  13.3153410
  72.4647870  18.2486040  12.3410980  87.5332370  16.9928420  16.7706570
  86.9334360  17.0520980  16.0270490  87.6626270  16.0533400  16.9003420
  88.7733820  14.7346240   2.1076280  87.9426780  14.8022890   2.5783510
  88.9505650  15.6250360   1.8043140  88.2290280  11.4793720   4.6110480
  88.9909190  12.0490370   4.7170170  88.2444650  10.9120920   5.3818790
  71.7294620  10.0031650   8.8418140  71.0743460   9.7343290   8.1977840
  72.5672570   9.8936130   8.3920120  89.2350250  12.3343820   9.4552410
  89.6059080  11.5511140   9.0488380  89.8752180  13.0232920   9.2769710
  86.2184010  13.7180400  14.8682730  85.4043850  14.1477560  15.1308520
  86.6258210  14.3298810  14.2551780  88.2809450  11.7728090   1.7683000
  88.5558290  12.6806970   1.6402220  88.0920190  11.7090620   2.7044990
  84.6785060   4.7972940   3.0636630  85.0969940   4.6103920   2.2233290
  84.3721120   3.9451990   3.3739560  88.1774790   9.7097080   6.7612430
  87.8018390   8.9425010   6.3293720  87.4477910  10.0919780   7.2487360
  72.7670550  10.3884220  13.3821480  73.1343590  10.3011620  14.2617500
  72.1981370   9.6250770  13.2828340  87.5674410   8.8568600  16.3951950
  87.3360500   8.6281350  15.4949900  87.8278960   9.7768150  16.3496840
  72.3186550   7.2993310  17.2879900  71.4242600   7.2660070  17.6273610
  72.8584100   7.4980100  18.0531150  86.0062480   4.0825030  19.1731650
  86.8832660   4.0908430  19.5565650  86.0183320   3.3455870  18.5624000
  70.9432700   7.2130580   4.7843470  70.0396780   7.4760780   4.6095130
  71.4273320   7.4841750   4.0043430  87.4525750   7.9354570  10.0619670
  87.9763230   7.4417220   9.4309840  88.0385170   8.0704930  10.8067240
  87.6315470   8.0194440  13.5839220  86.6818180   7.9857980  13.6984210
  87.8128480   8.9294550  13.3488990  73.4859910   6.2696120   2.6937850
  74.1951610   5.8479340   2.2085130  72.7699850   6.3371350   2.0621200
  86.9425720   7.1927920   6.0012080  87.4384840   6.9598790   6.7860960
  86.7441790   6.3539760   5.5849720  88.3712880   5.8288870   8.5349760
  88.2612160   5.6744910   9.4732030  89.1320470   5.3009810   8.2925170
  86.7178600   1.7683000  14.9932760  87.3550820   2.3817140  15.3591950
  86.8653490   1.8043660  14.0481990  89.2603150   3.6596790   1.7755900
  90.1852460   3.5277970   1.5674190  89.2378940   3.7389610   2.7292350
  89.3341640   4.4307450   4.4012610  88.5393140   4.3652570   4.9305520
  89.5384920   5.3658090   4.3897960  86.2760060  18.4699000   8.3951000
  86.8719130  18.1483570   7.7185420  86.5338210  17.9970820   9.1864270
  74.1822630  14.9016910  18.5441630  74.1392260  14.5309820  19.4256090
  74.3133640  15.8394480  18.6843450  77.8828660  16.4576500  14.1451350
  77.6420020  16.7251060  13.2581870  78.8231300  16.6282230  14.2002210
  80.0883080   2.9209190  17.9007860  80.0271970   3.5131020  18.6503270
  81.0283460   2.8135150  17.7558120  82.7257640   2.5779250  17.5400150
  83.3398050   2.8958540  16.8781230  83.2707200   2.0927840  18.1596010
  89.1432820  18.4770880  14.9461990  88.6491100  18.8739750  14.2289120
  88.5346110  17.8520090  15.3399270  74.0210660  17.8479160  15.6639410
  73.4270980  17.7163860  16.4029450  74.0134500  17.0117300  15.1981510
  84.3737660   3.3482260  15.2511160  84.0451020   2.5334020  14.8712890
  85.3219960   3.3052070  15.1276850  86.8272270  19.1194300  12.2248730
  86.3675240  19.8710110  11.8506750  86.1984730  18.4000770  12.1663530
  73.6522890  15.2137540  14.6147450  72.9256950  14.5942830  14.5473400
  73.7132040  15.6078150  13.7445530  77.2567990  17.4282540  11.3996860
  77.7733010  16.8169900  10.8745120  77.9065370  17.9311320  11.8907870
  79.9963490  18.3191030  12.2265840  80.2841300  18.0645330  11.3498850
  80.5086710  17.7668390  12.8171410  85.7661570   2.7604330  10.8511440
  86.2069660   2.7049430  10.0033040  85.4969160   3.6762340  10.9221620
  71.9352890  18.5311930   7.8244210  71.7674930  17.8982610   8.5226100
  71.0687400  18.7371330   7.4738400  72.5580910   2.3628710   5.3276070
  73.3160270   2.4757590   4.7540100  72.0958080   3.1997910   5.2819500
  79.0994720   4.4767980   8.3178380  78.2869230   4.1024870   7.9774260
  79.6036360   3.7213060   8.6199570  73.5415590  17.2245160   5.2694350
  73.0163210  17.6053190   4.5656310  73.4660170  17.8495930   5.9904060
  74.9306060   2.8892760   3.8678040  75.4598820   2.1022560   3.7385990
  75.5634380   3.5683950   4.1013570  77.1243900   2.6267900   6.9223430
  76.4946640   1.9255210   7.0893560  76.5849040   3.3872030   6.7056590
  80.0635850  19.2407130  19.5934040  80.9903160  19.0051400  19.6370000
  80.0486280  20.0679130  19.1120070  88.2980910  18.7832700   6.5908290
  88.4733100  18.0970440   5.9469210  87.6002480  19.3079750   6.1984960
  76.1408560  19.1727540   4.1443600  76.8727380  18.8886820   3.5967490
  76.4002230  18.9340820   5.0342980  75.3023350  15.2892270   4.1489930
  74.6732230  15.7577370   4.6975760  75.4171180  14.4441490   4.5836120
  86.6313410  18.4676990  19.4175080  87.4238730  17.9726220  19.2101040
  86.9246560  19.1467130  20.0250690  63.9829580  84.4371890  65.3965090
  63.9023630  83.5226500  65.1256800  63.5694000  84.9338960  64.6904800
  62.1147620  86.2150910  67.2774360  61.3389720  85.7351350  67.5672930
  62.7660550  85.5356560  67.1030520  56.1313450  86.5270720  68.1550120
  55.2998330  86.2719430  68.5546630  56.7394430  86.5981490  68.8908040
  66.1355050  90.6211100  66.0573490  65.6736580  89.8498340  66.3860660
  66.9480600  90.6477170  66.5625940  56.1114710  90.5610810  68.3508140
  56.4142750  89.6708550  68.1718360  56.8558300  91.1181030  68.1230390
  54.5405400  81.4872610  61.9392510  53.6522100  81.8288580  61.8372390
  54.8246590  81.2872930  61.0473340  52.5038410  84.0878260  67.8232210
  53.0754520  83.3200460  67.8235850  52.5039950  84.3867020  66.9138820
  62.3618360  92.9069110  65.6777480  61.7429800  93.3626610  65.1071920
  63.2170140  93.0620570  65.2767180  61.5556610  88.8908100  67.2844520
  61.4864890  87.9498040  67.1233650  62.3176470  88.9809510  67.8567090
  53.7463280  79.4962620  69.6101140  53.5666120  78.5988370  69.8903900
  53.3443360  80.0434490  70.2848090  62.5861780  81.6978480  67.5113450
  62.9626600  80.8250360  67.3987120  62.4881290  82.0337180  66.6203890
  56.7166790  80.0704110  62.9730890  56.8233540  80.9707840  63.2799650
  55.8059150  80.0222080  62.6825540  66.3685900  79.1928920  64.4441790
  67.1895520  78.7025490  64.4867270  66.4019980  79.7826580  65.1973630
  54.3649950  81.9923120  68.2183480  55.0460060  82.2561490  68.8370880
  54.0498000  81.1523990  68.5521490  58.5574520  83.0390480  67.3056070
  59.0652740  83.5371450  67.9461090  59.0887760  82.2625680  67.1295430
  70.6585450  81.2095670  71.0085420  69.9537620  81.5977380  70.4900530
  70.9243370  81.9045960  71.6106350  56.8410620  77.6789040  71.5719490
  56.8429060  78.1961430  70.7665390  56.0114930  77.2019220  71.5489420
  63.2281710  87.7908350  63.0709390  62.6098980  88.2557800  62.5072110
  63.7404960  88.4835830  63.4878900  58.0913470  87.3184220  69.7492990
  57.7582850  87.9453140  70.3914060  58.2680150  87.8446100  68.9694660
  66.6047380  81.1329300  67.2169330  65.9002950  81.4214190  67.7972440
  66.9659540  81.9429410  66.8568890  56.5225950  79.3899000  69.5789940
  56.8642760  80.2341050  69.2843810  55.5841760  79.5382740  69.6955280
  57.3032570  89.2865020  71.5642170  57.9206570  89.9616100  71.2826620
  56.4425690  89.6953000  71.4729670  52.5964910  88.4764880  60.4449020
  52.2192890  88.9651980  59.7133920  52.8537980  89.1490160  61.0755550
  68.2210160  90.7504430  69.4796810  67.5373680  91.4203540  69.4713480
  68.7604450  90.9485080  68.7141670  69.6734300  80.5784090  67.6078540
  68.7259210  80.6123070  67.7393970  69.9984290  81.3923040  67.9927900
  60.2053840  76.8781270  65.9034530  60.5128820  76.3228160  65.1870030
  59.2754540  77.0125730  65.7207520  65.7568900  92.5948560  68.1941990
  65.7696060  92.1910850  67.3264250  65.2044120  93.3695850  68.0903420
  67.0514320  89.3164780  63.2832160  66.9410650  88.3739110  63.4081580
  67.0482570  89.6780420  64.1694920  65.1554340  87.4978400  69.5224600
  65.5723130  87.2838510  68.6878060  65.8794160  87.7551190  70.0933220
  62.5934600  84.9430100  62.6394650  61.6663880  84.8767480  62.8683120
  62.7459420  85.8810230  62.5249890  62.5803680  81.2147100  59.6361810
  61.6407350  81.3761060  59.7214270  62.8986940  81.9332780  59.0897800
  69.1016440  85.8965620  69.6140840  68.2735070  85.9658710  69.1390970
  69.6966920  86.4819930  69.1456670  66.6231890  86.5050400  63.1429900
  66.0044310  86.1669950  62.4956200  66.6056340  85.8610160  63.8509090
  66.0658450  82.6834940  70.5595710  65.6529630  83.5088650  70.8135700
  65.3334400  82.0979980  70.3672070  58.1991240  85.4694840  65.4214380
  57.7948240  84.7572090  64.9260280  58.2854360  85.1248080  66.3102420
  58.6672940  89.1562400  67.5853590  58.3701230  88.5507870  66.9061370
  59.6172760  89.1939710  67.4742950  56.9119860  82.2438050  69.2013420
  57.4634450  82.3533390  68.4266670  57.4263370  82.6175650  69.9168650
  66.7558550  92.7294270  71.2476690  66.2789110  93.5366460  71.0549300
  66.0720340  92.0772600  71.4002900  57.7591370  88.8944090  74.2361390
  56.8619900  89.1184060  74.4834790  57.7844240  89.0179030  73.2872790
  64.7996590  85.7437210  60.1502650  65.2389870  84.9059640  60.0040470
  65.5125010  86.3766610  60.2366790  56.5862590  85.7657410  72.8118760
  56.4470360  86.6380210  73.1806160  55.7043950  85.4230220  72.6666700
  62.9091970  90.6833280  64.1183890  63.3487880  91.4257610  63.7039280
  62.8478860  90.9259850  65.0422850  58.3842940  91.7079110  75.0203910
  58.3558370  92.1122060  74.1532340  58.2207910  90.7789470  74.8575510
  68.3813730  76.9980020  58.4643690  68.0686390  77.0906850  59.3642760
  69.1426200  77.5761050  58.4141120  54.8995870  84.3639820  62.9221030
  54.7793470  85.0901910  62.3102300  54.5896760  83.5942730  62.4448940
  52.5381240  87.5354960  68.7289670  52.6161660  87.6703730  67.7845390
  53.1522920  86.8270850  68.9217790  53.7828870  89.2355150  65.1395850
  53.3756950  89.3769740  64.2849450  54.6741880  88.9515310  64.9367060
  69.7391010  89.6819060  73.4768090  69.8654070  89.4430940  72.5585270
  69.7812390  88.8503600  73.9490170  63.6007750  93.3847060  72.0462900
  64.1152420  93.2955070  72.8485330  62.7576830  93.7306760  72.3390810
  65.5762150  93.6702400  61.4746900  65.4163290  93.3805340  62.3728730
  65.4108860  92.8942530  60.9392130  65.2788280  91.1789960  60.0344900
  64.5853440  91.1767250  59.3747180  66.0211140  90.7549280  59.6039070
  64.8438210  92.8052670  64.1093390  65.2995160  92.0242050  64.4232010
  65.1830730  93.5159490  64.6534570  69.5915020  81.7351520  74.4417830
  68.9759290  82.2431190  73.9133290  69.2711440  80.8349850  74.3843770
  52.5940760  88.5769130  71.2684130  52.7571800  88.1074490  70.4503500
  53.0593210  88.0692690  71.9332970  57.3659530  77.7074890  66.3044700
  56.9227680  78.4884430  65.9729220  57.9244520  78.0304780  67.0115640
  61.6529340  80.5743410  71.9080020  61.1908710  80.7826430  72.7199960
  61.2507450  79.7602760  71.6050690  66.6533850  81.7952360  73.0376680
  65.8027440  81.4958110  73.3585750  66.4935640  82.0394370  72.1260500
  63.7483560  83.2954110  75.1375470  64.0736970  82.4617860  74.7977700
  64.5363890  83.8182630  75.2853800  60.4818350  77.3285590  61.1850530
  59.8572530  77.3245460  61.9103840  60.3948470  76.4616550  60.7886500
  59.4035430  78.2522220  68.1634300  59.7007760  79.1585050  68.0826320
  59.9520990  77.7641000  67.5493870  57.1573750  82.8308460  64.0325950
  56.9314670  82.6145630  64.9372570  56.3766280  83.2636920  63.6871920
  64.3871510  82.8371830  62.6316600  63.7880400  83.5607630  62.4480220
  64.9351120  82.7748610  61.8493050  59.5972960  83.7294040  74.6986220
  59.5016560  82.7888770  74.5486620  60.4404940  83.9509110  74.3034290
  62.9936380  81.4735370  64.6619880  63.3865950  81.7907570  63.8488570
  63.3553230  80.5947250  64.7764400  54.7283500  80.1407710  72.8520000
  54.3346890  80.9882920  73.0592780  54.0401900  79.5034080  73.0428640
  52.0300550  78.0636170  66.8850080  51.7413600  78.6339030  67.5975060
  52.7746310  77.5840620  67.2481310  52.2170780  82.0056290  58.0952800
  52.1345450  82.9487050  58.2367790  51.8653840  81.8631200  57.2165150
  63.5791520  84.0641120  68.7570660  62.8472640  84.5727930  69.1060760
  63.1815860  83.2471100  68.4559440  60.0168910  80.7395320  67.1623150
  60.0204970  80.2985270  66.3127690  60.9120030  81.0612650  67.2694970
  55.8671290  80.6221810  66.1217360  55.5271340  81.0997040  66.8784410
  55.1048610  80.1686930  65.7618460  60.0789060  81.7407400  60.1529910
  60.2001880  81.6993880  61.1015730  59.6937570  82.6031550  59.9976640
  64.0417430  79.5174800  68.1693600  64.0590170  79.9683450  69.0135450
  63.7933010  78.6180440  68.3827040  59.0910560  84.0508540  59.5513210
  58.5227460  83.6026790  58.9249120  59.7999560  84.4101320  59.0178360
  67.4688180  76.9306980  74.0079980  67.7933950  76.1996640  74.5337960
  67.5044690  76.6120620  73.1060970  54.1679740  87.9520560  73.4279940
  53.7834530  87.3114230  74.0262900  54.4791930  88.6556680  73.9974670
  60.3176880  84.7997100  68.9088560  60.6847010  84.3255670  69.6549900
  60.1281940  85.6738670  69.2496900  53.1817370  79.5440790  65.0382030
  52.8964290  79.1796460  65.8760650  53.1196230  78.8121250  64.4245170
  58.1076250  83.8405740  71.2272770  57.8033320  84.7197720  71.4523130
  59.0622710  83.9005530  71.2630210  56.6358040  88.0466730  61.8239620
  55.8620300  87.5064350  61.6638340  57.3652670  87.5273340  61.4857380
  67.3946020  87.0432090  67.6166010  68.1145140  87.5387380  67.2262120
  67.1927840  86.3649980  66.9719880  62.8555960  78.4370050  61.7595400
  62.0420570  77.9383220  61.6840710  62.6617910  79.2768300  61.3431750
  62.7764820  87.1141150  73.5035010  62.7102130  86.1936820  73.2492600
  62.1469960  87.2116590  74.2179650  65.5704350  82.8089700  60.0557560
  66.4583970  83.1206930  59.8808900  65.5409440  81.9361950  59.6638140
  56.6795440  87.7147110  65.4618430  57.1974110  86.9115370  65.4075320
  56.2279460  87.6526250  66.3035260  61.5664940  88.9813390  60.7345730
  61.9080640  89.7255620  60.2389050  60.7377650  89.2944510  61.0970560
  54.1639980  84.6808480  72.3744130  53.8054920  85.3462330  72.9617470
  53.8694540  83.8492030  72.7456750  57.3653100  85.1392720  75.2583680
  57.0653240  85.2849900  74.3611500  58.1364340  84.5798010  75.1657070
  62.7081550  89.9361720  73.2538810  62.7226090  89.0042680  73.0357720
  62.0006650  90.0221480  73.8928580  67.8418620  84.1201540  59.5237420
  67.7582340  84.5515760  58.6733860  68.5612810  84.5799890  59.9564240
  68.9192760  86.5769060  72.6007390  68.1940950  87.1697840  72.4036780
  69.4468220  86.5692600  71.8020760  68.8705870  90.9743800  62.2519550
  68.2282030  90.3199420  62.5263270  68.4836530  91.3798890  61.4760220
  64.4492350  88.3029230  66.0991240  64.8016170  87.7057360  65.4392610
  63.5654680  87.9773460  66.2699490  60.5355630  89.0626920  63.5061650
  61.2226760  89.6096130  63.8869240  59.7488050  89.6067650  63.5411260
  52.6748030  84.6799740  58.9978730  53.5442880  84.9624540  59.2814650
  52.1838350  85.4935610  58.8827540  59.8382840  86.0672950  63.1187010
  60.2945620  86.8778200  63.3447200  59.4871050  85.7496090  63.9505500
  62.1415450  91.5779290  70.3479310  62.7857670  91.7838670  71.0252730
  62.5044890  90.8167690  69.8950160  55.7394620  76.4110600  63.5909530
  55.6109250  76.4028500  64.5394450  54.9156640  76.7493690  63.2400540
  63.4147530  89.5811640  69.0656760  64.0569760  88.8804800  69.1788930
  63.9396880  90.3610080  68.8853650  67.2603250  89.8660260  58.7895900
  67.0340830  89.1490700  59.3820540  66.8699450  89.6172700  57.9517650
  65.1885150  90.3806540  72.2692820  65.5241390  90.9673230  72.9470740
  64.2685490  90.2499250  72.4990610  52.7388550  78.1701720  73.0516230
  52.0247070  78.3698640  73.6568840  53.1583590  77.3941290  73.4231030
  66.8419500  87.7832200  60.4510060  66.5541200  88.2444890  61.2387940
  67.6371670  87.3229970  60.7194280  53.0261140  92.1581980  74.0382760
  53.1352260  91.2176720  73.8978150  52.3741700  92.4236730  73.3896490
  61.0173730  90.4297870  75.4380880  60.6970600  89.7107110  75.9826570
  60.3432090  91.1052940  75.5116940  59.0587900  91.2758320  60.3814030
  59.0498000  92.0088010  59.7658540  58.1386260  91.0289900  60.4740990
  54.6594540  86.4973210  61.1260790  54.0522490  87.2372110  61.1356090
  55.1343890  86.5872570  60.2998990  64.2327330  80.6624030  70.8017680
  64.6008150  79.8419240  71.1297250  63.3725530  80.7225920  71.2173330
  67.5989360  79.6180970  61.6105240  66.9702520  79.7226640  60.8963470
  67.1041280  79.8377750  62.3999120  62.0447500  91.3386560  59.0439220
  62.1459480  91.1350550  58.1141200  61.1449240  91.0844840  59.2487000
  59.5673390  81.8966920  63.0263120  58.8589540  82.3653260  63.4676730
  59.8517870  81.2388930  63.6608310  61.1929320  83.3163620  71.0255650
  61.6914570  83.7909440  71.6907500  61.3352270  82.3927140  71.2325680
  63.5988820  78.6217580  64.4658910  63.4756600  78.6403710  63.5168420
  64.5473380  78.6696520  64.5857310  57.7708410  80.2052000  60.4013830
  58.6198940  80.6422150  60.3354020  57.4039680  80.5172260  61.2285890
  68.3996180  79.5331580  71.8684040  67.8969780  80.2736980  72.2077850
  69.2152840  79.9215580  71.5520830  66.6918190  84.7764760  65.3145400
  65.7508330  84.7914990  65.4893090  67.0062260  83.9900720  65.7605700
  56.6699830  86.4584360  58.8749360  57.4363100  86.3465720  59.4374790
  56.7474520  85.7622330  58.2226130  55.3646590  83.8909430  59.5582250
  55.4450180  82.9436940  59.6699650  56.2566340  84.2216310  59.6642910
  68.6943770  91.9473610  66.9899660  68.8191190  92.7704780  67.4623470
  69.5609330  91.7364340  66.6423810  53.0506780  90.1078390  62.5358300
  52.1246560  90.3499530  62.5263710  53.5163210  90.9352650  62.4143050
  59.2763610  93.2135130  58.4842360  60.0692220  93.5023960  58.0324150
  58.7567960  92.7827300  57.8054840  65.4384580  93.0611050  74.4087190
  66.3906330  92.9769070  74.3587430  65.2912800  93.7252760  75.0820980
  68.3293780  92.4405260  59.9079100  68.0435290  92.0270400  59.0933280
  68.1313330  93.3692970  59.7879620  52.8917390  85.7124350  74.7938420
  53.3956410  85.1331630  75.3654650  52.1524810  85.9964580  75.3314790
  59.7941010  88.4338540  58.3484710  59.6891650  87.8190890  59.0746090
  59.6265230  87.9104430  57.5647720  59.9455330  87.1195340  74.3273940
  59.1801000  87.6880340  74.2428610  60.1271290  86.8271550  73.4342170
  63.0343740  87.4958570  58.9526700  62.4853840  87.9427870  59.5969440
  63.6563000  86.9907820  59.4764370  67.0878680  88.8500670  74.8848960
  67.8288150  89.1876430  74.3816420  66.3251360  89.0192730  74.3318730
  58.7018860  86.4549490  60.8492000  59.1235280  86.2889360  61.6923390
  58.8269700  85.6449720  60.3547140  56.8646280  82.4346040  73.6562980
  56.3342740  81.9436990  73.0286320  57.5334350  82.8630240  73.1220910
  61.2146500  85.4787100  58.0969100  61.7352160  84.7636120  57.7310250
  61.8614900  86.1172970  58.3969610  65.7624340  86.9015500  73.4204170
  66.1765360  87.0560580  74.2694590  64.8275340  87.0270720  73.5829950
  66.2346510  84.2411660  75.4243320  66.8167280  83.4863980  75.3363800
  66.4108280  84.7719100  74.6474800  57.3518580  79.4008410  73.7360270
  57.2575450  78.7829160  73.0111140  56.7715970  80.1274700  73.5090180
  60.1180020  77.9581650  70.7687660  59.6697320  77.9805910  69.9233210
  59.4845220  77.5600670  71.3657960  60.5239570  86.8535980  71.3900100
  60.9427680  87.6968710  71.2176340  59.6048200  86.9908020  71.1606880
  62.8603470  84.5852160  72.7737940  62.9799680  83.9893300  73.5132780
  63.7197470  84.6221850  72.3539240  65.1991370  85.1389350  71.3500450
  64.6726590  85.6631970  70.7465590  65.5422710  85.7716740  71.9810180
  57.5977760  82.5282720  57.7950160  57.3966820  81.6650080  58.1563500
  57.4269810  82.4416080  56.8571760  59.6272240  81.1273510  74.0313760
  60.2171930  80.8189360  74.7191580  58.8092480  80.6553260  74.1873660
  64.4465670  80.7439320  74.2646780  63.7581190  80.0820860  74.1996770
  65.1671690  80.2977590  74.7095240  65.0766070  77.3390950  60.3237040
  65.3568360  76.4958850  60.6796460  64.3031800  77.5714060  60.8375790
  56.3960560  79.6283340  57.7828040  56.6986460  79.6350770  56.8747190
  57.1355150  79.2781200  58.2795700  59.6145490  78.5717960  58.7684240
  59.2667490  77.8941950  58.1886690  59.8158260  78.1107470  59.5827630
  55.4190690  88.9325760  58.6157840  55.8565560  89.4755430  59.2715420
  55.9038420  88.1072710  58.6254180  52.6336490  91.7214790  66.0678100
  52.9639500  90.8535850  65.8356740  53.0627490  91.9273310  66.8983060
  57.2298410  90.0523800  63.7280070  56.9293950  89.9288770  64.6283980
  57.1235900  89.1932390  63.3195800  53.1226700  92.5885380  68.8059730
  52.6857690  92.7686180  69.6383880  53.6904380  93.3460000  68.6641450
  68.7588880  92.0902380  73.0937040  68.1590870  92.1494940  72.3500960
  68.8882780  91.1507360  73.2233890  69.9990330  89.8320200  58.4306750
  69.1683290  89.8996850  58.9013980  70.1762160  90.7224320  58.1273610
  69.4546790  86.5767680  60.9340950  70.2165700  87.1464330  61.0400640
  69.4701160  86.0094880  61.7049260  52.9551130  85.1005610  65.1648610
  52.2999970  84.8317250  64.5208310  53.7929080  84.9910090  64.7150590
  70.4606760  87.4317780  65.7782880  70.8315590  86.6485100  65.3718850
  71.1008690  88.1206880  65.6000180  67.4440520  88.8154360  71.1913200
  66.6300360  89.2451520  71.4538990  67.8514720  89.4272770  70.5782250
  69.5065960  86.8702050  58.0913470  69.7814800  87.7780930  57.9632690
  69.3176700  86.8064580  59.0275460  65.9041570  79.8946900  59.3867100
  66.3226450  79.7077880  58.5463760  65.5977630  79.0425950  59.6970030
  69.4031300  84.8071040  63.0842900  69.0274900  84.0398970  62.6524190
  68.6734420  85.1893740  63.5717830  53.9927060  85.4858180  69.7051950
  54.3600100  85.3985580  70.5847970  53.4237880  84.7224730  69.6058810
  68.7930920  83.9542560  72.7182420  68.5617010  83.7255310  71.8180370
  69.0535470  84.8742110  72.6727310  53.5443060  82.3967270  73.6110370
  52.6499110  82.3634030  73.9504080  54.0840610  82.5954060  74.3761620
  67.2318990  79.1798990  75.4962120  68.1089170  79.1882390  75.8796120
  67.2439830  78.4429830  74.8854470  52.1689210  82.3104540  61.1073940
  51.2653290  82.5734740  60.9325600  52.6529830  82.5815710  60.3273900
  68.6782260  83.0328530  66.3850140  69.2019740  82.5391180  65.7540310
  69.2641680  83.1678890  67.1297710  68.8571980  83.1168400  69.9069690
  67.9074690  83.0831940  70.0214680  69.0384990  84.0268510  69.6719460
  54.7116420  81.3670080  59.0168320  55.4208120  80.9453300  58.5315600
  53.9956360  81.4345310  58.3851670  54.3590580  77.4209410  58.0570970
  55.0818710  77.9618350  58.3752190  54.6315100  77.1472830  57.1812510
  68.1682230  82.2901880  62.3242550  68.6641350  82.0572750  63.1091430
  67.9698300  81.4513720  61.9080190  54.0482770  76.6715600  67.9593590
  54.6958960  76.1212980  67.5188750  54.4684610  76.9258750  68.7809400
  69.5969390  80.9262830  64.8580230  69.4868670  80.7718870  65.7962500
  70.3576980  80.3983770  64.6155640  67.9435110  76.8656960  71.3163230
  68.5807330  77.4791100  71.6822420  68.0910000  76.9017620  70.3712460
  70.4859660  78.7570750  58.0986370  71.4108970  78.6251930  57.8904660
  70.4635450  78.8363570  59.0522820  70.5598150  79.5281410  60.7243080
  69.7649650  79.4626530  61.2535990  70.7641430  80.4632050  60.7128430
  67.5016570  93.5672960  64.7181470  68.0975640  93.2457530  64.0415890
  67.7594720  93.0944780  65.5094740  53.8014770  76.8271270  70.7018910
  53.4529590  77.2835090  71.4677090  53.4702470  75.9328400  70.7841340
  55.4079140  89.9990870  74.8672100  55.3648770  89.6283780  75.7486560
  55.5390150  90.9368440  75.0073920  59.1085170  91.5550460  70.4681820
  58.8676530  91.8225020  69.5812340  60.0487810  91.7256190  70.5232680
  61.3139590  78.0183150  74.2238330  61.2528480  78.6104980  74.9733740
  62.2539970  77.9109110  74.0788590  63.9514150  77.6753210  73.8630620
  64.5654560  77.9932500  73.2011700  64.4963710  77.1901800  74.4826480
  54.4735410  76.3547470  73.9769680  55.0218400  76.1735520  73.2135790
  54.5390720  75.5641580  74.5125990  55.2467170  92.9453120  71.9869880
  54.6527490  92.8137820  72.7259920  55.2391010  92.1091260  71.5211980
  64.6922190  76.2385350  70.1899910  63.8182030  76.5720460  69.9872840
  64.5832940  75.7658530  71.0151780  65.5994170  78.4456220  71.5741630
  65.2707530  77.6307980  71.1943360  66.5476470  78.4026030  71.4507320
  54.8779400  90.3111500  70.9377920  54.1513460  89.6916790  70.8703870
  54.9388550  90.7052110  70.0676000  58.4824500  92.5256500  67.7227330
  58.9989520  91.9143860  67.1975590  59.1321880  93.0285280  68.2138340
  61.2220000  93.4164990  68.5496310  61.5097810  93.1619290  67.6729320
  61.7343220  92.8642350  69.1401880  62.4397010  77.1555190  69.1292820
  61.6568800  77.6300690  69.4089580  62.1459940  76.2510020  69.0206000
  66.9918080  77.8578290  67.1741910  67.4326170  77.8023390  66.3263510
  66.7225670  78.7736300  67.2452090  68.8556650  77.4893530  65.1850730
  68.7945050  76.5454750  65.0381750  69.6348680  77.5973620  65.7304190
  53.7837420  77.4602670  61.6506540  54.5416780  77.5731550  61.0770570
  53.3214590  78.2971870  61.6049970  60.3251230  79.5741940  64.6408850
  59.5125740  79.1998830  64.3004730  60.8292870  78.8187020  64.9430040
  64.8276210  76.2384390  65.8791920  65.4305580  76.8104600  66.3540440
  64.0869200  76.8023830  65.6565820  67.9710810  76.6405950  61.1532200
  68.1661440  77.5389400  61.4199630  67.1840680  76.4093030  61.6465150
  54.7672100  92.3219120  61.5924820  54.2419720  92.7027150  60.8886780
  54.6916680  92.9469890  62.3134530  56.1562570  77.9866720  60.1908510
  56.6855330  77.1996520  60.0616460  56.7890890  78.6657910  60.4244040
  58.3500410  77.7241860  63.2453900  57.7203150  77.0229170  63.4124030
  57.8105550  78.4845990  63.0287060  58.4755970  77.0025840  75.6806390
  58.1940240  77.5059440  74.9167210  58.8575670  76.2047590  75.3148520
  56.5279860  90.3866230  60.4720400  55.8988740  90.8551330  61.0206230
  56.6427690  89.5415450  60.9066590  63.9829580  84.4371890  46.6221600
  63.9023630  83.5226500  46.3513310  63.5694000  84.9338960  45.9161310
  62.1147620  86.2150910  48.5030870  61.3389720  85.7351350  48.7929440
  62.7660550  85.5356560  48.3287030  56.1313450  86.5270720  49.3806630
  55.2998330  86.2719430  49.7803140  56.7394430  86.5981490  50.1164550
  66.1355050  90.6211100  47.2830000  65.6736580  89.8498340  47.6117170
  66.9480600  90.6477170  47.7882450  56.1114710  90.5610810  49.5764650
  56.4142750  89.6708550  49.3974870  56.8558300  91.1181030  49.3486900
  54.5405400  81.4872610  43.1649020  53.6522100  81.8288580  43.0628900
  54.8246590  81.2872930  42.2729850  52.5038410  84.0878260  49.0488720
  53.0754520  83.3200460  49.0492360  52.5039950  84.3867020  48.1395330
  62.3618360  92.9069110  46.9033990  61.7429800  93.3626610  46.3328430
  63.2170140  93.0620570  46.5023690  61.5556610  88.8908100  48.5101030
  61.4864890  87.9498040  48.3490160  62.3176470  88.9809510  49.0823600
  53.7463280  79.4962620  50.8357650  53.5666120  78.5988370  51.1160410
  53.3443360  80.0434490  51.5104600  62.5861780  81.6978480  48.7369960
  62.9626600  80.8250360  48.6243630  62.4881290  82.0337180  47.8460400
  56.7166790  80.0704110  44.1987400  56.8233540  80.9707840  44.5056160
  55.8059150  80.0222080  43.9082050  54.3649950  81.9923120  49.4439990
  55.0460060  82.2561490  50.0627390  54.0498000  81.1523990  49.7778000
  58.5574520  83.0390480  48.5312580  59.0652740  83.5371450  49.1717600
  59.0887760  82.2625680  48.3551940  70.6585450  81.2095670  52.2341930
  69.9537620  81.5977380  51.7157040  70.9243370  81.9045960  52.8362860
  56.8410620  77.6789040  52.7976000  56.8429060  78.1961430  51.9921900
  56.0114930  77.2019220  52.7745930  63.2281710  87.7908350  44.2965900
  62.6098980  88.2557800  43.7328620  63.7404960  88.4835830  44.7135410
  58.0913470  87.3184220  50.9749500  57.7582850  87.9453140  51.6170570
  58.2680150  87.8446100  50.1951170  66.6047380  81.1329300  48.4425840
  65.9002950  81.4214190  49.0228950  66.9659540  81.9429410  48.0825400
  56.5225950  79.3899000  50.8046450  56.8642760  80.2341050  50.5100320
  55.5841760  79.5382740  50.9211790  57.3032570  89.2865020  52.7898680
  57.9206570  89.9616100  52.5083130  56.4425690  89.6953000  52.6986180
  52.5964910  88.4764880  41.6705530  52.2192890  88.9651980  40.9390430
  52.8537980  89.1490160  42.3012060  68.2210160  90.7504430  50.7053320
  67.5373680  91.4203540  50.6969990  68.7604450  90.9485080  49.9398180
  69.6734300  80.5784090  48.8335050  68.7259210  80.6123070  48.9650480
  69.9984290  81.3923040  49.2184410  60.2053840  76.8781270  47.1291040
  60.5128820  76.3228160  46.4126540  59.2754540  77.0125730  46.9464030
  65.7568900  92.5948560  49.4198500  65.7696060  92.1910850  48.5520760
  65.2044120  93.3695850  49.3159930  67.0514320  89.3164780  44.5088670
  66.9410650  88.3739110  44.6338090  67.0482570  89.6780420  45.3951430
  65.1554340  87.4978400  50.7481110  65.5723130  87.2838510  49.9134570
  65.8794160  87.7551190  51.3189730  62.5934600  84.9430100  43.8651160
  61.6663880  84.8767480  44.0939630  62.7459420  85.8810230  43.7506400
  62.5803680  81.2147100  40.8618320  61.6407350  81.3761060  40.9470780
  62.8986940  81.9332780  40.3154310  69.1016440  85.8965620  50.8397350
  68.2735070  85.9658710  50.3647480  69.6966920  86.4819930  50.3713180
  66.6231890  86.5050400  44.3686410  66.0044310  86.1669950  43.7212710
  66.6056340  85.8610160  45.0765600  66.0658450  82.6834940  51.7852220
  65.6529630  83.5088650  52.0392210  65.3334400  82.0979980  51.5928580
  58.1991240  85.4694840  46.6470890  57.7948240  84.7572090  46.1516790
  58.2854360  85.1248080  47.5358930  58.6672940  89.1562400  48.8110100
  58.3701230  88.5507870  48.1317880  59.6172760  89.1939710  48.6999460
  56.9119860  82.2438050  50.4269930  57.4634450  82.3533390  49.6523180
  57.4263370  82.6175650  51.1425160  66.7558550  92.7294270  52.4733200
  66.2789110  93.5366460  52.2805810  66.0720340  92.0772600  52.6259410
  57.7591370  88.8944090  55.4617900  56.8619900  89.1184060  55.7091300
  57.7844240  89.0179030  54.5129300  64.7996590  85.7437210  41.3759160
  65.2389870  84.9059640  41.2296980  65.5125010  86.3766610  41.4623300
  56.5862590  85.7657410  54.0375270  56.4470360  86.6380210  54.4062670
  55.7043950  85.4230220  53.8923210  62.9091970  90.6833280  45.3440400
  63.3487880  91.4257610  44.9295790  62.8478860  90.9259850  46.2679360
  58.3842940  91.7079110  56.2460420  58.3558370  92.1122060  55.3788850
  58.2207910  90.7789470  56.0832020  68.3813730  76.9980020  39.6900200
  68.0686390  77.0906850  40.5899270  69.1426200  77.5761050  39.6397630
  54.8995870  84.3639820  44.1477540  54.7793470  85.0901910  43.5358810
  54.5896760  83.5942730  43.6705450  70.3357760  92.4906210  57.5424590
  70.8117480  92.9689100  58.2213670  70.9564920  92.4223700  56.8170090
  52.5381240  87.5354960  49.9546180  52.6161660  87.6703730  49.0101900
  53.1522920  86.8270850  50.1474300  53.7828870  89.2355150  46.3652360
  53.3756950  89.3769740  45.5105960  54.6741880  88.9515310  46.1623570
  69.7391010  89.6819060  54.7024600  69.8654070  89.4430940  53.7841780
  69.7812390  88.8503600  55.1746680  63.6007750  93.3847060  53.2719410
  64.1152420  93.2955070  54.0741840  62.7576830  93.7306760  53.5647320
  65.5762150  93.6702400  42.7003410  65.4163290  93.3805340  43.5985240
  65.4108860  92.8942530  42.1648640  65.2788280  91.1789960  41.2601410
  64.5853440  91.1767250  40.6003690  66.0211140  90.7549280  40.8295580
  64.8438210  92.8052670  45.3349900  65.2995160  92.0242050  45.6488520
  65.1830730  93.5159490  45.8791080  69.5915020  81.7351520  55.6674340
  68.9759290  82.2431190  55.1389800  69.2711440  80.8349850  55.6100280
  52.5940760  88.5769130  52.4940640  52.7571800  88.1074490  51.6760010
  53.0593210  88.0692690  53.1589480  57.3659530  77.7074890  47.5301210
  56.9227680  78.4884430  47.1985730  57.9244520  78.0304780  48.2372150
  61.6529340  80.5743410  53.1336530  61.1908710  80.7826430  53.9456470
  61.2507450  79.7602760  52.8307200  66.6533850  81.7952360  54.2633190
  65.8027440  81.4958110  54.5842260  66.4935640  82.0394370  53.3517010
  63.7483560  83.2954110  56.3631980  64.0736970  82.4617860  56.0234210
  64.5363890  83.8182630  56.5110310  60.4818350  77.3285590  42.4107040
  59.8572530  77.3245460  43.1360350  60.3948470  76.4616550  42.0143010
  59.4035430  78.2522220  49.3890810  59.7007760  79.1585050  49.3082830
  59.9520990  77.7641000  48.7750380  57.1573750  82.8308460  45.2582460
  56.9314670  82.6145630  46.1629080  56.3766280  83.2636920  44.9128430
  64.3871510  82.8371830  43.8573110  63.7880400  83.5607630  43.6736730
  64.9351120  82.7748610  43.0749560  59.5972960  83.7294040  55.9242730
  59.5016560  82.7888770  55.7743130  60.4404940  83.9509110  55.5290800
  62.9936380  81.4735370  45.8876390  63.3865950  81.7907570  45.0745080
  63.3553230  80.5947250  46.0020910  54.7283500  80.1407710  54.0776510
  54.3346890  80.9882920  54.2849290  54.0401900  79.5034080  54.2685150
  61.3028550  80.2242680  57.1473250  60.6126870  80.0314880  57.7819340
  62.0460850  80.5077320  57.6797550  52.0300550  78.0636170  48.1106590
  51.7413600  78.6339030  48.8231570  52.7746310  77.5840620  48.4737820
  52.2170780  82.0056290  39.3209310  52.1345450  82.9487050  39.4624300
  51.8653840  81.8631200  38.4421660  63.5791520  84.0641120  49.9827170
  62.8472640  84.5727930  50.3317270  63.1815860  83.2471100  49.6815950
  60.0168910  80.7395320  48.3879660  60.0204970  80.2985270  47.5384200
  60.9120030  81.0612650  48.4951480  55.8671290  80.6221810  47.3473870
  55.5271340  81.0997040  48.1040920  55.1048610  80.1686930  46.9874970
  60.0789060  81.7407400  41.3786420  60.2001880  81.6993880  42.3272240
  59.6937570  82.6031550  41.2233150  64.0417430  79.5174800  49.3950110
  64.0590170  79.9683450  50.2391960  63.7933010  78.6180440  49.6083550
  59.0910560  84.0508540  40.7769720  58.5227460  83.6026790  40.1505630
  59.7999560  84.4101320  40.2434870  67.4688180  76.9306980  55.2336490
  67.7933950  76.1996640  55.7594470  67.5044690  76.6120620  54.3317480
  54.1679740  87.9520560  54.6536450  53.7834530  87.3114230  55.2519410
  54.4791930  88.6556680  55.2231180  60.3176880  84.7997100  50.1345070
  60.6847010  84.3255670  50.8806410  60.1281940  85.6738670  50.4753410
  53.1817370  79.5440790  46.2638540  52.8964290  79.1796460  47.1017160
  53.1196230  78.8121250  45.6501680  58.1076250  83.8405740  52.4529280
  57.8033320  84.7197720  52.6779640  59.0622710  83.9005530  52.4886720
  56.6358040  88.0466730  43.0496130  55.8620300  87.5064350  42.8894850
  57.3652670  87.5273340  42.7113890  67.3946020  87.0432090  48.8422520
  68.1145140  87.5387380  48.4518630  67.1927840  86.3649980  48.1976390
  62.8555960  78.4370050  42.9851910  62.0420570  77.9383220  42.9097220
  62.6617910  79.2768300  42.5688260  62.7764820  87.1141150  54.7291520
  62.7102130  86.1936820  54.4749110  62.1469960  87.2116590  55.4436160
  65.5704350  82.8089700  41.2814070  66.4583970  83.1206930  41.1065410
  65.5409440  81.9361950  40.8894650  56.6795440  87.7147110  46.6874940
  57.1974110  86.9115370  46.6331830  56.2279460  87.6526250  47.5291770
  61.5664940  88.9813390  41.9602240  61.9080640  89.7255620  41.4645560
  60.7377650  89.2944510  42.3227070  54.1639980  84.6808480  53.6000640
  53.8054920  85.3462330  54.1873980  53.8694540  83.8492030  53.9713260
  57.3653100  85.1392720  56.4840190  57.0653240  85.2849900  55.5868010
  58.1364340  84.5798010  56.3913580  62.7081550  89.9361720  54.4795320
  62.7226090  89.0042680  54.2614230  62.0006650  90.0221480  55.1185090
  67.8418620  84.1201540  40.7493930  67.7582340  84.5515760  39.8990370
  68.5612810  84.5799890  41.1820750  68.9192760  86.5769060  53.8263900
  68.1940950  87.1697840  53.6293290  69.4468220  86.5692600  53.0277270
  68.8705870  90.9743800  43.4776060  68.2282030  90.3199420  43.7519780
  68.4836530  91.3798890  42.7016730  64.4492350  88.3029230  47.3247750
  64.8016170  87.7057360  46.6649120  63.5654680  87.9773460  47.4956000
  60.5355630  89.0626920  44.7318160  61.2226760  89.6096130  45.1125750
  59.7488050  89.6067650  44.7667770  52.6748030  84.6799740  40.2235240
  53.5442880  84.9624540  40.5071160  52.1838350  85.4935610  40.1084050
  59.8382840  86.0672950  44.3443520  60.2945620  86.8778200  44.5703710
  59.4871050  85.7496090  45.1762010  62.1415450  91.5779290  51.5735820
  62.7857670  91.7838670  52.2509240  62.5044890  90.8167690  51.1206670
  55.7394620  76.4110600  44.8166040  55.6109250  76.4028500  45.7650960
  54.9156640  76.7493690  44.4657050  63.4147530  89.5811640  50.2913270
  64.0569760  88.8804800  50.4045440  63.9396880  90.3610080  50.1110160
  67.2603250  89.8660260  40.0152410  67.0340830  89.1490700  40.6077050
  66.8699450  89.6172700  39.1774160  65.1885150  90.3806540  53.4949330
  65.5241390  90.9673230  54.1727250  64.2685490  90.2499250  53.7247120
  52.7388550  78.1701720  54.2772740  52.0247070  78.3698640  54.8825350
  53.1583590  77.3941290  54.6487540  66.8419500  87.7832200  41.6766570
  66.5541200  88.2444890  42.4644450  67.6371670  87.3229970  41.9450790
  53.0261140  92.1581980  55.2639270  53.1352260  91.2176720  55.1234660
  52.3741700  92.4236730  54.6153000  61.0173730  90.4297870  56.6637390
  60.6970600  89.7107110  57.2083080  60.3432090  91.1052940  56.7373450
  59.0587900  91.2758320  41.6070540  59.0498000  92.0088010  40.9915050
  58.1386260  91.0289900  41.6997500  54.6594540  86.4973210  42.3517300
  54.0522490  87.2372110  42.3612600  55.1343890  86.5872570  41.5255500
  64.2327330  80.6624030  52.0274190  64.6008150  79.8419240  52.3553760
  63.3725530  80.7225920  52.4429840  67.5989360  79.6180970  42.8361750
  66.9702520  79.7226640  42.1219980  67.1041280  79.8377750  43.6255630
  62.0447500  91.3386560  40.2695730  62.1459480  91.1350550  39.3397710
  61.1449240  91.0844840  40.4743510  59.5673390  81.8966920  44.2519630
  58.8589540  82.3653260  44.6933240  59.8517870  81.2388930  44.8864820
  61.1929320  83.3163620  52.2512160  61.6914570  83.7909440  52.9164010
  61.3352270  82.3927140  52.4582190  57.7708410  80.2052000  41.6270340
  58.6198940  80.6422150  41.5610530  57.4039680  80.5172260  42.4542400
  68.3996180  79.5331580  53.0940550  67.8969780  80.2736980  53.4334360
  69.2152840  79.9215580  52.7777340  66.6918190  84.7764760  46.5401910
  65.7508330  84.7914990  46.7149600  67.0062260  83.9900720  46.9862210
  56.6699830  86.4584360  40.1005870  57.4363100  86.3465720  40.6631300
  56.7474520  85.7622330  39.4482640  55.3646590  83.8909430  40.7838760
  55.4450180  82.9436940  40.8956160  56.2566340  84.2216310  40.8899420
  68.6943770  91.9473610  48.2156170  68.8191190  92.7704780  48.6879980
  69.5609330  91.7364340  47.8680320  53.0506780  90.1078390  43.7614810
  52.1246560  90.3499530  43.7520220  53.5163210  90.9352650  43.6399560
  55.1719580  93.2250890  57.0758880  55.9732310  93.5462940  57.4894280
  54.6571400  92.8646470  57.7978790  59.2763610  93.2135130  39.7098870
  60.0692220  93.5023960  39.2580660  58.7567960  92.7827300  39.0311350
  64.0084210  89.3330760  57.0234290  63.4022370  89.3562360  56.2830040
  63.7038320  88.6013800  57.5601540  65.4384580  93.0611050  55.6343700
  66.3906330  92.9769070  55.5843940  65.2912800  93.7252760  56.3077490
  68.3293780  92.4405260  41.1335610  68.0435290  92.0270400  40.3189790
  68.1313330  93.3692970  41.0136130  52.8917390  85.7124350  56.0194930
  53.3956410  85.1331630  56.5911160  52.1524810  85.9964580  56.5571300
  59.7941010  88.4338540  39.5741220  59.6891650  87.8190890  40.3002600
  59.6265230  87.9104430  38.7904230  59.9455330  87.1195340  55.5530450
  59.1801000  87.6880340  55.4685120  60.1271290  86.8271550  54.6598680
  63.0343740  87.4958570  40.1783210  62.4853840  87.9427870  40.8225950
  63.6563000  86.9907820  40.7020880  67.0878680  88.8500670  56.1105470
  67.8288150  89.1876430  55.6072930  66.3251360  89.0192730  55.5575240
  54.9240470  83.8553940  56.9145000  54.9645810  83.5567810  57.8230230
  55.7785970  84.2561550  56.7552520  58.7018860  86.4549490  42.0748510
  59.1235280  86.2889360  42.9179900  58.8269700  85.6449720  41.5803650
  56.8646280  82.4346040  54.8819490  56.3342740  81.9436990  54.2542830
  57.5334350  82.8630240  54.3477420  61.2146500  85.4787100  39.3225610
  61.7352160  84.7636120  38.9566760  61.8614900  86.1172970  39.6226120
  65.7624340  86.9015500  54.6460680  66.1765360  87.0560580  55.4951100
  64.8275340  87.0270720  54.8086460  66.2346510  84.2411660  56.6499830
  66.8167280  83.4863980  56.5620310  66.4108280  84.7719100  55.8731310
  57.3518580  79.4008410  54.9616780  57.2575450  78.7829160  54.2367650
  56.7715970  80.1274700  54.7346690  60.1180020  77.9581650  51.9944170
  59.6697320  77.9805910  51.1489720  59.4845220  77.5600670  52.5914470
  60.5239570  86.8535980  52.6156610  60.9427680  87.6968710  52.4432850
  59.6048200  86.9908020  52.3863390  62.8603470  84.5852160  53.9994450
  62.9799680  83.9893300  54.7389290  63.7197470  84.6221850  53.5795750
  65.1991370  85.1389350  52.5756960  64.6726590  85.6631970  51.9722100
  65.5422710  85.7716740  53.2066690  57.5977760  82.5282720  39.0206670
  57.3966820  81.6650080  39.3820010  57.4269810  82.4416080  38.0828270
  59.6272240  81.1273510  55.2570270  60.2171930  80.8189360  55.9448090
  58.8092480  80.6553260  55.4130170  64.4465670  80.7439320  55.4903290
  63.7581190  80.0820860  55.4253280  65.1671690  80.2977590  55.9351750
  65.0766070  77.3390950  41.5493550  65.3568360  76.4958850  41.9052970
  64.3031800  77.5714060  42.0632300  56.3960560  79.6283340  39.0084550
  56.6986460  79.6350770  38.1003700  57.1355150  79.2781200  39.5052210
  59.6145490  78.5717960  39.9940750  59.2667490  77.8941950  39.4143200
  59.8158260  78.1107470  40.8084140  55.4190690  88.9325760  39.8414350
  55.8565560  89.4755430  40.4971930  55.9038420  88.1072710  39.8510690
  52.6336490  91.7214790  47.2934610  52.9639500  90.8535850  47.0613250
  53.0627490  91.9273310  48.1239570  57.2298410  90.0523800  44.9536580
  56.9293950  89.9288770  45.8540490  57.1235900  89.1932390  44.5452310
  53.1226700  92.5885380  50.0316240  52.6857690  92.7686180  50.8640390
  53.6904380  93.3460000  49.8897960  68.7588880  92.0902380  54.3193550
  68.1590870  92.1494940  53.5757470  68.8882780  91.1507360  54.4490400
  69.9990330  89.8320200  39.6563260  69.1683290  89.8996850  40.1270490
  70.1762160  90.7224320  39.3530120  69.4546790  86.5767680  42.1597460
  70.2165700  87.1464330  42.2657150  69.4701160  86.0094880  42.9305770
  52.9551130  85.1005610  46.3905120  52.2999970  84.8317250  45.7464820
  53.7929080  84.9910090  45.9407100  70.4606760  87.4317780  47.0039390
  70.8315590  86.6485100  46.5975360  71.1008690  88.1206880  46.8256690
  67.4440520  88.8154360  52.4169710  66.6300360  89.2451520  52.6795500
  67.8514720  89.4272770  51.8038760  69.5065960  86.8702050  39.3169980
  69.7814800  87.7780930  39.1889200  69.3176700  86.8064580  40.2531970
  65.9041570  79.8946900  40.6123610  66.3226450  79.7077880  39.7720270
  65.5977630  79.0425950  40.9226540  69.4031300  84.8071040  44.3099410
  69.0274900  84.0398970  43.8780700  68.6734420  85.1893740  44.7974340
  53.9927060  85.4858180  50.9308460  54.3600100  85.3985580  51.8104480
  53.4237880  84.7224730  50.8315320  68.7930920  83.9542560  53.9438930
  68.5617010  83.7255310  53.0436880  69.0535470  84.8742110  53.8983820
  53.5443060  82.3967270  54.8366880  52.6499110  82.3634030  55.1760590
  54.0840610  82.5954060  55.6018130  67.2318990  79.1798990  56.7218630
  68.1089170  79.1882390  57.1052630  67.2439830  78.4429830  56.1110980
  52.1689210  82.3104540  42.3330450  51.2653290  82.5734740  42.1582110
  52.6529830  82.5815710  41.5530410  68.6782260  83.0328530  47.6106650
  69.2019740  82.5391180  46.9796820  69.2641680  83.1678890  48.3554220
  68.8571980  83.1168400  51.1326200  67.9074690  83.0831940  51.2471190
  69.0384990  84.0268510  50.8975970  54.7116420  81.3670080  40.2424830
  55.4208120  80.9453300  39.7572110  53.9956360  81.4345310  39.6108180
  54.3590580  77.4209410  39.2827480  55.0818710  77.9618350  39.6008700
  54.6315100  77.1472830  38.4069020  68.1682230  82.2901880  43.5499060
  68.6641350  82.0572750  44.3347940  67.9698300  81.4513720  43.1336700
  54.0482770  76.6715600  49.1850100  54.6958960  76.1212980  48.7445260
  54.4684610  76.9258750  50.0065910  69.5969390  80.9262830  46.0836740
  69.4868670  80.7718870  47.0219010  70.3576980  80.3983770  45.8412150
  67.9435110  76.8656960  52.5419740  68.5807330  77.4791100  52.9078930
  68.0910000  76.9017620  51.5968970  70.4859660  78.7570750  39.3242880
  71.4108970  78.6251930  39.1161170  70.4635450  78.8363570  40.2779330
  70.5598150  79.5281410  41.9499590  69.7649650  79.4626530  42.4792500
  70.7641430  80.4632050  41.9384940  67.5016570  93.5672960  45.9437980
  68.0975640  93.2457530  45.2672400  67.7594720  93.0944780  46.7351250
  53.8014770  76.8271270  51.9275420  53.4529590  77.2835090  52.6933600
  53.4702470  75.9328400  52.0097850  55.4079140  89.9990870  56.0928610
  55.3648770  89.6283780  56.9743070  55.5390150  90.9368440  56.2330430
  59.1085170  91.5550460  51.6938330  58.8676530  91.8225020  50.8068850
  60.0487810  91.7256190  51.7489190  61.3139590  78.0183150  55.4494840
  61.2528480  78.6104980  56.1990250  62.2539970  77.9109110  55.3045100
  63.9514150  77.6753210  55.0887130  64.5654560  77.9932500  54.4268210
  64.4963710  77.1901800  55.7082990  54.4735410  76.3547470  55.2026190
  55.0218400  76.1735520  54.4392300  54.5390720  75.5641580  55.7382500
  55.2467170  92.9453120  53.2126390  54.6527490  92.8137820  53.9516430
  55.2391010  92.1091260  52.7468490  65.5994170  78.4456220  52.7998140
  65.2707530  77.6307980  52.4199870  66.5476470  78.4026030  52.6763830
  54.8779400  90.3111500  52.1634430  54.1513460  89.6916790  52.0960380
  54.9388550  90.7052110  51.2932510  58.4824500  92.5256500  48.9483840
  58.9989520  91.9143860  48.4232100  59.1321880  93.0285280  49.4394850
  61.2220000  93.4164990  49.7752820  61.5097810  93.1619290  48.8985830
  61.7343220  92.8642350  50.3658390  60.3251230  79.5741940  45.8665360
  59.5125740  79.1998830  45.5261240  60.8292870  78.8187020  46.1686550
  54.7672100  92.3219120  42.8181330  54.2419720  92.7027150  42.1143290
  54.6916680  92.9469890  43.5391040  56.1562570  77.9866720  41.4165020
  56.6855330  77.1996520  41.2872970  56.7890890  78.6657910  41.6500550
  58.3500410  77.7241860  44.4710410  57.7203150  77.0229170  44.6380540
  57.8105550  78.4845990  44.2543570  58.4755970  77.0025840  56.9062900
  58.1940240  77.5059440  56.1423720  58.8575670  76.2047590  56.5405030
  56.5279860  90.3866230  41.6976910  55.8988740  90.8551330  42.2462740
  56.6427690  89.5415450  42.1323100  65.0771430  76.4179420  57.4843370
  64.9636880  76.7374030  58.3794890  65.8941170  76.8191930  57.1880650
  63.9829580  84.4371890  27.8478110  63.9023630  83.5226500  27.5769820
  63.5694000  84.9338960  27.1417820  62.1147620  86.2150910  29.7287380
  61.3389720  85.7351350  30.0185950  62.7660550  85.5356560  29.5543540
  56.1313450  86.5270720  30.6063140  55.2998330  86.2719430  31.0059650
  56.7394430  86.5981490  31.3421060  66.1355050  90.6211100  28.5086510
  65.6736580  89.8498340  28.8373680  66.9480600  90.6477170  29.0138960
  56.1114710  90.5610810  30.8021160  56.4142750  89.6708550  30.6231380
  56.8558300  91.1181030  30.5743410  54.5405400  81.4872610  24.3905530
  53.6522100  81.8288580  24.2885410  54.8246590  81.2872930  23.4986360
  52.5038410  84.0878260  30.2745230  53.0754520  83.3200460  30.2748870
  52.5039950  84.3867020  29.3651840  62.3618360  92.9069110  28.1290500
  61.7429800  93.3626610  27.5584940  63.2170140  93.0620570  27.7280200
  61.5556610  88.8908100  29.7357540  61.4864890  87.9498040  29.5746670
  62.3176470  88.9809510  30.3080110  53.7463280  79.4962620  32.0614160
  53.5666120  78.5988370  32.3416920  53.3443360  80.0434490  32.7361110
  62.5861780  81.6978480  29.9626470  62.9626600  80.8250360  29.8500140
  62.4881290  82.0337180  29.0716910  56.7166790  80.0704110  25.4243910
  56.8233540  80.9707840  25.7312670  55.8059150  80.0222080  25.1338560
  66.3685900  79.1928920  26.8954810  67.1895520  78.7025490  26.9380290
  66.4019980  79.7826580  27.6486650  54.3649950  81.9923120  30.6696500
  55.0460060  82.2561490  31.2883900  54.0498000  81.1523990  31.0034510
  58.5574520  83.0390480  29.7569090  59.0652740  83.5371450  30.3974110
  59.0887760  82.2625680  29.5808450  70.6585450  81.2095670  33.4598440
  69.9537620  81.5977380  32.9413550  70.9243370  81.9045960  34.0619370
  56.8410620  77.6789040  34.0232510  56.8429060  78.1961430  33.2178410
  56.0114930  77.2019220  34.0002440  63.2281710  87.7908350  25.5222410
  62.6098980  88.2557800  24.9585130  63.7404960  88.4835830  25.9391920
  58.0913470  87.3184220  32.2006010  57.7582850  87.9453140  32.8427080
  58.2680150  87.8446100  31.4207680  66.6047380  81.1329300  29.6682350
  65.9002950  81.4214190  30.2485460  66.9659540  81.9429410  29.3081910
  56.5225950  79.3899000  32.0302960  56.8642760  80.2341050  31.7356830
  55.5841760  79.5382740  32.1468300  57.3032570  89.2865020  34.0155190
  57.9206570  89.9616100  33.7339640  56.4425690  89.6953000  33.9242690
  52.5964910  88.4764880  22.8962040  52.2192890  88.9651980  22.1646940
  52.8537980  89.1490160  23.5268570  68.2210160  90.7504430  31.9309830
  67.5373680  91.4203540  31.9226500  68.7604450  90.9485080  31.1654690
  69.6734300  80.5784090  30.0591560  68.7259210  80.6123070  30.1906990
  69.9984290  81.3923040  30.4440920  60.2053840  76.8781270  28.3547550
  60.5128820  76.3228160  27.6383050  59.2754540  77.0125730  28.1720540
  65.7568900  92.5948560  30.6455010  65.7696060  92.1910850  29.7777270
  65.2044120  93.3695850  30.5416440  67.0514320  89.3164780  25.7345180
  66.9410650  88.3739110  25.8594600  67.0482570  89.6780420  26.6207940
  65.1554340  87.4978400  31.9737620  65.5723130  87.2838510  31.1391080
  65.8794160  87.7551190  32.5446240  62.5934600  84.9430100  25.0907670
  61.6663880  84.8767480  25.3196140  62.7459420  85.8810230  24.9762910
  62.5803680  81.2147100  22.0874830  61.6407350  81.3761060  22.1727290
  62.8986940  81.9332780  21.5410820  69.1016440  85.8965620  32.0653860
  68.2735070  85.9658710  31.5903990  69.6966920  86.4819930  31.5969690
  66.6231890  86.5050400  25.5942920  66.0044310  86.1669950  24.9469220
  66.6056340  85.8610160  26.3022110  66.0658450  82.6834940  33.0108730
  65.6529630  83.5088650  33.2648720  65.3334400  82.0979980  32.8185090
  58.1991240  85.4694840  27.8727400  57.7948240  84.7572090  27.3773300
  58.2854360  85.1248080  28.7615440  58.6672940  89.1562400  30.0366610
  58.3701230  88.5507870  29.3574390  59.6172760  89.1939710  29.9255970
  56.9119860  82.2438050  31.6526440  57.4634450  82.3533390  30.8779690
  57.4263370  82.6175650  32.3681670  66.7558550  92.7294270  33.6989710
  66.2789110  93.5366460  33.5062320  66.0720340  92.0772600  33.8515920
  57.7591370  88.8944090  36.6874410  56.8619900  89.1184060  36.9347810
  57.7844240  89.0179030  35.7385810  64.7996590  85.7437210  22.6015670
  65.2389870  84.9059640  22.4553490  65.5125010  86.3766610  22.6879810
  56.5862590  85.7657410  35.2631780  56.4470360  86.6380210  35.6319180
  55.7043950  85.4230220  35.1179720  62.9091970  90.6833280  26.5696910
  63.3487880  91.4257610  26.1552300  62.8478860  90.9259850  27.4935870
  58.3842940  91.7079110  37.4716930  58.3558370  92.1122060  36.6045360
  58.2207910  90.7789470  37.3088530  68.3813730  76.9980020  20.9156710
  68.0686390  77.0906850  21.8155780  69.1426200  77.5761050  20.8654140
  54.8995870  84.3639820  25.3734050  54.7793470  85.0901910  24.7615320
  54.5896760  83.5942730  24.8961960  70.3357760  92.4906210  38.7681100
  70.8117480  92.9689100  39.4470180  70.9564920  92.4223700  38.0426600
  52.5381240  87.5354960  31.1802690  52.6161660  87.6703730  30.2358410
  53.1522920  86.8270850  31.3730810  53.7828870  89.2355150  27.5908870
  53.3756950  89.3769740  26.7362470  54.6741880  88.9515310  27.3880080
  69.7391010  89.6819060  35.9281110  69.8654070  89.4430940  35.0098290
  69.7812390  88.8503600  36.4003190  63.6007750  93.3847060  34.4975920
  64.1152420  93.2955070  35.2998350  62.7576830  93.7306760  34.7903830
  65.5762150  93.6702400  23.9259920  65.4163290  93.3805340  24.8241750
  65.4108860  92.8942530  23.3905150  65.2788280  91.1789960  22.4857920
  64.5853440  91.1767250  21.8260200  66.0211140  90.7549280  22.0552090
  64.8438210  92.8052670  26.5606410  65.2995160  92.0242050  26.8745030
  65.1830730  93.5159490  27.1047590  69.5915020  81.7351520  36.8930850
  68.9759290  82.2431190  36.3646310  69.2711440  80.8349850  36.8356790
  52.5940760  88.5769130  33.7197150  52.7571800  88.1074490  32.9016520
  53.0593210  88.0692690  34.3845990  57.3659530  77.7074890  28.7557720
  56.9227680  78.4884430  28.4242240  57.9244520  78.0304780  29.4628660
  61.6529340  80.5743410  34.3593040  61.1908710  80.7826430  35.1712980
  61.2507450  79.7602760  34.0563710  66.6533850  81.7952360  35.4889700
  65.8027440  81.4958110  35.8098770  66.4935640  82.0394370  34.5773520
  63.7483560  83.2954110  37.5888490  64.0736970  82.4617860  37.2490720
  64.5363890  83.8182630  37.7366820  60.4818350  77.3285590  23.6363550
  59.8572530  77.3245460  24.3616860  60.3948470  76.4616550  23.2399520
  59.4035430  78.2522220  30.6147320  59.7007760  79.1585050  30.5339340
  59.9520990  77.7641000  30.0006890  57.1573750  82.8308460  26.4838970
  56.9314670  82.6145630  27.3885590  56.3766280  83.2636920  26.1384940
  64.3871510  82.8371830  25.0829620  63.7880400  83.5607630  24.8993240
  64.9351120  82.7748610  24.3006070  59.5972960  83.7294040  37.1499240
  59.5016560  82.7888770  36.9999640  60.4404940  83.9509110  36.7547310
  62.9936380  81.4735370  27.1132900  63.3865950  81.7907570  26.3001590
  63.3553230  80.5947250  27.2277420  54.7283500  80.1407710  35.3033020
  54.3346890  80.9882920  35.5105800  54.0401900  79.5034080  35.4941660
  61.3028550  80.2242680  38.3729760  60.6126870  80.0314880  39.0075850
  62.0460850  80.5077320  38.9054060  52.0300550  78.0636170  29.3363100
  51.7413600  78.6339030  30.0488080  52.7746310  77.5840620  29.6994330
  52.2170780  82.0056290  20.5465820  52.1345450  82.9487050  20.6880810
  51.8653840  81.8631200  19.6678170  63.5791520  84.0641120  31.2083680
  62.8472640  84.5727930  31.5573780  63.1815860  83.2471100  30.9072460
  60.0168910  80.7395320  29.6136170  60.0204970  80.2985270  28.7640710
  60.9120030  81.0612650  29.7207990  55.8671290  80.6221810  28.5730380
  55.5271340  81.0997040  29.3297430  55.1048610  80.1686930  28.2131480
  60.0789060  81.7407400  22.6042930  60.2001880  81.6993880  23.5528750
  59.6937570  82.6031550  22.4489660  64.0417430  79.5174800  30.6206620
  64.0590170  79.9683450  31.4648470  63.7933010  78.6180440  30.8340060
  59.0910560  84.0508540  22.0026230  58.5227460  83.6026790  21.3762140
  59.7999560  84.4101320  21.4691380  67.4688180  76.9306980  36.4593000
  67.7933950  76.1996640  36.9850980  67.5044690  76.6120620  35.5573990
  54.1679740  87.9520560  35.8792960  53.7834530  87.3114230  36.4775920
  54.4791930  88.6556680  36.4487690  60.3176880  84.7997100  31.3601580
  60.6847010  84.3255670  32.1062920  60.1281940  85.6738670  31.7009920
  53.1817370  79.5440790  27.4895050  52.8964290  79.1796460  28.3273670
  53.1196230  78.8121250  26.8758190  58.1076250  83.8405740  33.6785790
  57.8033320  84.7197720  33.9036150  59.0622710  83.9005530  33.7143230
  56.6358040  88.0466730  24.2752640  55.8620300  87.5064350  24.1151360
  57.3652670  87.5273340  23.9370400  67.3946020  87.0432090  30.0679030
  68.1145140  87.5387380  29.6775140  67.1927840  86.3649980  29.4232900
  62.8555960  78.4370050  24.2108420  62.0420570  77.9383220  24.1353730
  62.6617910  79.2768300  23.7944770  62.7764820  87.1141150  35.9548030
  62.7102130  86.1936820  35.7005620  62.1469960  87.2116590  36.6692670
  65.5704350  82.8089700  22.5070580  66.4583970  83.1206930  22.3321920
  65.5409440  81.9361950  22.1151160  56.6795440  87.7147110  27.9131450
  57.1974110  86.9115370  27.8588340  56.2279460  87.6526250  28.7548280
  61.5664940  88.9813390  23.1858750  61.9080640  89.7255620  22.6902070
  60.7377650  89.2944510  23.5483580  54.1639980  84.6808480  34.8257150
  53.8054920  85.3462330  35.4130490  53.8694540  83.8492030  35.1969770
  57.3653100  85.1392720  37.7096700  57.0653240  85.2849900  36.8124520
  58.1364340  84.5798010  37.6170090  62.7081550  89.9361720  35.7051830
  62.7226090  89.0042680  35.4870740  62.0006650  90.0221480  36.3441600
  67.8418620  84.1201540  21.9750440  67.7582340  84.5515760  21.1246880
  68.5612810  84.5799890  22.4077260  68.9192760  86.5769060  35.0520410
  68.1940950  87.1697840  34.8549800  69.4468220  86.5692600  34.2533780
  68.8705870  90.9743800  24.7032570  68.2282030  90.3199420  24.9776290
  68.4836530  91.3798890  23.9273240  64.4492350  88.3029230  28.5504260
  64.8016170  87.7057360  27.8905630  63.5654680  87.9773460  28.7212510
  60.5355630  89.0626920  25.9574670  61.2226760  89.6096130  26.3382260
  59.7488050  89.6067650  25.9924280  52.6748030  84.6799740  21.4491750
  53.5442880  84.9624540  21.7327670  52.1838350  85.4935610  21.3340560
  59.8382840  86.0672950  25.5700030  60.2945620  86.8778200  25.7960220
  59.4871050  85.7496090  26.4018520  62.1415450  91.5779290  32.7992330
  62.7857670  91.7838670  33.4765750  62.5044890  90.8167690  32.3463180
  55.7394620  76.4110600  26.0422550  55.6109250  76.4028500  26.9907470
  54.9156640  76.7493690  25.6913560  63.4147530  89.5811640  31.5169780
  64.0569760  88.8804800  31.6301950  63.9396880  90.3610080  31.3366670
  67.2603250  89.8660260  21.2408920  67.0340830  89.1490700  21.8333560
  66.8699450  89.6172700  20.4030670  65.1885150  90.3806540  34.7205840
  65.5241390  90.9673230  35.3983760  64.2685490  90.2499250  34.9503630
  52.7388550  78.1701720  35.5029250  52.0247070  78.3698640  36.1081860
  53.1583590  77.3941290  35.8744050  66.8419500  87.7832200  22.9023080
  66.5541200  88.2444890  23.6900960  67.6371670  87.3229970  23.1707300
  53.0261140  92.1581980  36.4895780  53.1352260  91.2176720  36.3491170
  52.3741700  92.4236730  35.8409510  61.0173730  90.4297870  37.8893900
  60.6970600  89.7107110  38.4339590  60.3432090  91.1052940  37.9629960
  59.0587900  91.2758320  22.8327050  59.0498000  92.0088010  22.2171560
  58.1386260  91.0289900  22.9254010  54.6594540  86.4973210  23.5773810
  54.0522490  87.2372110  23.5869110  55.1343890  86.5872570  22.7512010
  64.2327330  80.6624030  33.2530700  64.6008150  79.8419240  33.5810270
  63.3725530  80.7225920  33.6686350  67.5989360  79.6180970  24.0618260
  66.9702520  79.7226640  23.3476490  67.1041280  79.8377750  24.8512140
  62.0447500  91.3386560  21.4952240  62.1459480  91.1350550  20.5654220
  61.1449240  91.0844840  21.7000020  59.5673390  81.8966920  25.4776140
  58.8589540  82.3653260  25.9189750  59.8517870  81.2388930  26.1121330
  61.1929320  83.3163620  33.4768670  61.6914570  83.7909440  34.1420520
  61.3352270  82.3927140  33.6838700  63.5988820  78.6217580  26.9171930
  63.4756600  78.6403710  25.9681440  64.5473380  78.6696520  27.0370330
  57.7708410  80.2052000  22.8526850  58.6198940  80.6422150  22.7867040
  57.4039680  80.5172260  23.6798910  68.3996180  79.5331580  34.3197060
  67.8969780  80.2736980  34.6590870  69.2152840  79.9215580  34.0033850
  66.6918190  84.7764760  27.7658420  65.7508330  84.7914990  27.9406110
  67.0062260  83.9900720  28.2118720  56.6699830  86.4584360  21.3262380
  57.4363100  86.3465720  21.8887810  56.7474520  85.7622330  20.6739150
  55.3646590  83.8909430  22.0095270  55.4450180  82.9436940  22.1212670
  56.2566340  84.2216310  22.1155930  68.6943770  91.9473610  29.4412680
  68.8191190  92.7704780  29.9136490  69.5609330  91.7364340  29.0936830
  53.0506780  90.1078390  24.9871320  52.1246560  90.3499530  24.9776730
  53.5163210  90.9352650  24.8656070  55.1719580  93.2250890  38.3015390
  55.9732310  93.5462940  38.7150790  54.6571400  92.8646470  39.0235300
  59.2763610  93.2135130  20.9355380  60.0692220  93.5023960  20.4837170
  58.7567960  92.7827300  20.2567860  64.0084210  89.3330760  38.2490800
  63.4022370  89.3562360  37.5086550  63.7038320  88.6013800  38.7858050
  65.4384580  93.0611050  36.8600210  66.3906330  92.9769070  36.8100450
  65.2912800  93.7252760  37.5334000  68.3293780  92.4405260  22.3592120
  68.0435290  92.0270400  21.5446300  68.1313330  93.3692970  22.2392640
  52.8917390  85.7124350  37.2451440  53.3956410  85.1331630  37.8167670
  52.1524810  85.9964580  37.7827810  59.7941010  88.4338540  20.7997730
  59.6891650  87.8190890  21.5259110  59.6265230  87.9104430  20.0160740
  59.9455330  87.1195340  36.7786960  59.1801000  87.6880340  36.6941630
  60.1271290  86.8271550  35.8855190  63.0343740  87.4958570  21.4039720
  62.4853840  87.9427870  22.0482460  63.6563000  86.9907820  21.9277390
  67.0878680  88.8500670  37.3361980  67.8288150  89.1876430  36.8329440
  66.3251360  89.0192730  36.7831750  54.9240470  83.8553940  38.1401510
  54.9645810  83.5567810  39.0486740  55.7785970  84.2561550  37.9809030
  58.7018860  86.4549490  23.3005020  59.1235280  86.2889360  24.1436410
  58.8269700  85.6449720  22.8060160  56.8646280  82.4346040  36.1076000
  56.3342740  81.9436990  35.4799340  57.5334350  82.8630240  35.5733930
  61.2146500  85.4787100  20.5482120  61.7352160  84.7636120  20.1823270
  61.8614900  86.1172970  20.8482630  65.7624340  86.9015500  35.8717190
  66.1765360  87.0560580  36.7207610  64.8275340  87.0270720  36.0342970
  66.2346510  84.2411660  37.8756340  66.8167280  83.4863980  37.7876820
  66.4108280  84.7719100  37.0987820  57.3518580  79.4008410  36.1873290
  57.2575450  78.7829160  35.4624160  56.7715970  80.1274700  35.9603200
  60.1180020  77.9581650  33.2200680  59.6697320  77.9805910  32.3746230
  59.4845220  77.5600670  33.8170980  60.5239570  86.8535980  33.8413120
  60.9427680  87.6968710  33.6689360  59.6048200  86.9908020  33.6119900
  62.8603470  84.5852160  35.2250960  62.9799680  83.9893300  35.9645800
  63.7197470  84.6221850  34.8052260  65.1991370  85.1389350  33.8013470
  64.6726590  85.6631970  33.1978610  65.5422710  85.7716740  34.4323200
  57.5977760  82.5282720  20.2463180  57.3966820  81.6650080  20.6076520
  57.4269810  82.4416080  19.3084780  59.6272240  81.1273510  36.4826780
  60.2171930  80.8189360  37.1704600  58.8092480  80.6553260  36.6386680
  64.4465670  80.7439320  36.7159800  63.7581190  80.0820860  36.6509790
  65.1671690  80.2977590  37.1608260  65.0766070  77.3390950  22.7750060
  65.3568360  76.4958850  23.1309480  64.3031800  77.5714060  23.2888810
  56.3960560  79.6283340  20.2341060  56.6986460  79.6350770  19.3260210
  57.1355150  79.2781200  20.7308720  59.6145490  78.5717960  21.2197260
  59.2667490  77.8941950  20.6399710  59.8158260  78.1107470  22.0340650
  55.4190690  88.9325760  21.0670860  55.8565560  89.4755430  21.7228440
  55.9038420  88.1072710  21.0767200  52.6336490  91.7214790  28.5191120
  52.9639500  90.8535850  28.2869760  53.0627490  91.9273310  29.3496080
  57.2298410  90.0523800  26.1793090  56.9293950  89.9288770  27.0797000
  57.1235900  89.1932390  25.7708820  53.1226700  92.5885380  31.2572750
  52.6857690  92.7686180  32.0896900  53.6904380  93.3460000  31.1154470
  68.7588880  92.0902380  35.5450060  68.1590870  92.1494940  34.8013980
  68.8882780  91.1507360  35.6746910  69.9990330  89.8320200  20.8819770
  69.1683290  89.8996850  21.3527000  70.1762160  90.7224320  20.5786630
  69.4546790  86.5767680  23.3853970  70.2165700  87.1464330  23.4913660
  69.4701160  86.0094880  24.1562280  52.9551130  85.1005610  27.6161630
  52.2999970  84.8317250  26.9721330  53.7929080  84.9910090  27.1663610
  70.4606760  87.4317780  28.2295900  70.8315590  86.6485100  27.8231870
  71.1008690  88.1206880  28.0513200  67.4440520  88.8154360  33.6426220
  66.6300360  89.2451520  33.9052010  67.8514720  89.4272770  33.0295270
  69.5065960  86.8702050  20.5426490  69.7814800  87.7780930  20.4145710
  69.3176700  86.8064580  21.4788480  65.9041570  79.8946900  21.8380120
  66.3226450  79.7077880  20.9976780  65.5977630  79.0425950  22.1483050
  69.4031300  84.8071040  25.5355920  69.0274900  84.0398970  25.1037210
  68.6734420  85.1893740  26.0230850  53.9927060  85.4858180  32.1564970
  54.3600100  85.3985580  33.0360990  53.4237880  84.7224730  32.0571830
  68.7930920  83.9542560  35.1695440  68.5617010  83.7255310  34.2693390
  69.0535470  84.8742110  35.1240330  53.5443060  82.3967270  36.0623390
  52.6499110  82.3634030  36.4017100  54.0840610  82.5954060  36.8274640
  67.2318990  79.1798990  37.9475140  68.1089170  79.1882390  38.3309140
  67.2439830  78.4429830  37.3367490  52.1689210  82.3104540  23.5586960
  51.2653290  82.5734740  23.3838620  52.6529830  82.5815710  22.7786920
  68.6782260  83.0328530  28.8363160  69.2019740  82.5391180  28.2053330
  69.2641680  83.1678890  29.5810730  68.8571980  83.1168400  32.3582710
  67.9074690  83.0831940  32.4727700  69.0384990  84.0268510  32.1232480
  54.7116420  81.3670080  21.4681340  55.4208120  80.9453300  20.9828620
  53.9956360  81.4345310  20.8364690  54.3590580  77.4209410  20.5083990
  55.0818710  77.9618350  20.8265210  54.6315100  77.1472830  19.6325530
  68.1682230  82.2901880  24.7755570  68.6641350  82.0572750  25.5604450
  67.9698300  81.4513720  24.3593210  54.0482770  76.6715600  30.4106610
  54.6958960  76.1212980  29.9701770  54.4684610  76.9258750  31.2322420
  69.5969390  80.9262830  27.3093250  69.4868670  80.7718870  28.2475520
  70.3576980  80.3983770  27.0668660  67.9435110  76.8656960  33.7676250
  68.5807330  77.4791100  34.1335440  68.0910000  76.9017620  32.8225480
  70.4859660  78.7570750  20.5499390  71.4108970  78.6251930  20.3417680
  70.4635450  78.8363570  21.5035840  70.5598150  79.5281410  23.1756100
  69.7649650  79.4626530  23.7049010  70.7641430  80.4632050  23.1641450
  67.5016570  93.5672960  27.1694490  68.0975640  93.2457530  26.4928910
  67.7594720  93.0944780  27.9607760  53.8014770  76.8271270  33.1531930
  53.4529590  77.2835090  33.9190110  53.4702470  75.9328400  33.2354360
  55.4079140  89.9990870  37.3185120  55.3648770  89.6283780  38.1999580
  55.5390150  90.9368440  37.4586940  59.1085170  91.5550460  32.9194840
  58.8676530  91.8225020  32.0325360  60.0487810  91.7256190  32.9745700
  61.3139590  78.0183150  36.6751350  61.2528480  78.6104980  37.4246760
  62.2539970  77.9109110  36.5301610  63.9514150  77.6753210  36.3143640
  64.5654560  77.9932500  35.6524720  64.4963710  77.1901800  36.9339500
  54.4735410  76.3547470  36.4282700  55.0218400  76.1735520  35.6648810
  54.5390720  75.5641580  36.9639010  55.2467170  92.9453120  34.4382900
  54.6527490  92.8137820  35.1772940  55.2391010  92.1091260  33.9725000
  64.6922190  76.2385350  32.6412930  63.8182030  76.5720460  32.4385860
  64.5832940  75.7658530  33.4664800  65.5994170  78.4456220  34.0254650
  65.2707530  77.6307980  33.6456380  66.5476470  78.4026030  33.9020340
  54.8779400  90.3111500  33.3890940  54.1513460  89.6916790  33.3216890
  54.9388550  90.7052110  32.5189020  58.4824500  92.5256500  30.1740350
  58.9989520  91.9143860  29.6488610  59.1321880  93.0285280  30.6651360
  61.2220000  93.4164990  31.0009330  61.5097810  93.1619290  30.1242340
  61.7343220  92.8642350  31.5914900  62.4397010  77.1555190  31.5805840
  61.6568800  77.6300690  31.8602600  62.1459940  76.2510020  31.4719020
  66.9918080  77.8578290  29.6254930  67.4326170  77.8023390  28.7776530
  66.7225670  78.7736300  29.6965110  68.8556650  77.4893530  27.6363750
  68.7945050  76.5454750  27.4894770  69.6348680  77.5973620  28.1817210
  53.7837420  77.4602670  24.1019560  54.5416780  77.5731550  23.5283590
  53.3214590  78.2971870  24.0562990  60.3251230  79.5741940  27.0921870
  59.5125740  79.1998830  26.7517750  60.8292870  78.8187020  27.3943060
  64.8276210  76.2384390  28.3304940  65.4305580  76.8104600  28.8053460
  64.0869200  76.8023830  28.1078840  67.9710810  76.6405950  23.6045220
  68.1661440  77.5389400  23.8712650  67.1840680  76.4093030  24.0978170
  54.7672100  92.3219120  24.0437840  54.2419720  92.7027150  23.3399800
  54.6916680  92.9469890  24.7647550  56.1562570  77.9866720  22.6421530
  56.6855330  77.1996520  22.5129480  56.7890890  78.6657910  22.8757060
  58.3500410  77.7241860  25.6966920  57.7203150  77.0229170  25.8637050
  57.8105550  78.4845990  25.4800080  58.4755970  77.0025840  38.1319410
  58.1940240  77.5059440  37.3680230  58.8575670  76.2047590  37.7661540
  56.5279860  90.3866230  22.9233420  55.8988740  90.8551330  23.4719250
  56.6427690  89.5415450  23.3579610  65.0771430  76.4179420  38.7099880
  64.9636880  76.7374030  39.6051400  65.8941170  76.8191930  38.4137160
  63.9829580  84.4371890   9.0734620  63.9023630  83.5226500   8.8026330
  63.5694000  84.9338960   8.3674330  62.1147620  86.2150910  10.9543890
  61.3389720  85.7351350  11.2442460  62.7660550  85.5356560  10.7800050
  56.1313450  86.5270720  11.8319650  55.2998330  86.2719430  12.2316160
  56.7394430  86.5981490  12.5677570  66.1355050  90.6211100   9.7343020
  65.6736580  89.8498340  10.0630190  66.9480600  90.6477170  10.2395470
  56.1114710  90.5610810  12.0277670  56.4142750  89.6708550  11.8487890
  56.8558300  91.1181030  11.7999920  54.5405400  81.4872610   5.6162040
  53.6522100  81.8288580   5.5141920  54.8246590  81.2872930   4.7242870
  52.5038410  84.0878260  11.5001740  53.0754520  83.3200460  11.5005380
  52.5039950  84.3867020  10.5908350  62.3618360  92.9069110   9.3547010
  61.7429800  93.3626610   8.7841450  63.2170140  93.0620570   8.9536710
  61.5556610  88.8908100  10.9614050  61.4864890  87.9498040  10.8003180
  62.3176470  88.9809510  11.5336620  53.7463280  79.4962620  13.2870670
  53.5666120  78.5988370  13.5673430  53.3443360  80.0434490  13.9617620
  62.5861780  81.6978480  11.1882980  62.9626600  80.8250360  11.0756650
  62.4881290  82.0337180  10.2973420  56.7166790  80.0704110   6.6500420
  56.8233540  80.9707840   6.9569180  55.8059150  80.0222080   6.3595070
  66.3685900  79.1928920   8.1211320  67.1895520  78.7025490   8.1636800
  66.4019980  79.7826580   8.8743160  54.3649950  81.9923120  11.8953010
  55.0460060  82.2561490  12.5140410  54.0498000  81.1523990  12.2291020
  58.5574520  83.0390480  10.9825600  59.0652740  83.5371450  11.6230620
  59.0887760  82.2625680  10.8064960  70.6585450  81.2095670  14.6854950
  69.9537620  81.5977380  14.1670060  70.9243370  81.9045960  15.2875880
  56.8410620  77.6789040  15.2489020  56.8429060  78.1961430  14.4434920
  56.0114930  77.2019220  15.2258950  63.2281710  87.7908350   6.7478920
  62.6098980  88.2557800   6.1841640  63.7404960  88.4835830   7.1648430
  58.0913470  87.3184220  13.4262520  57.7582850  87.9453140  14.0683590
  58.2680150  87.8446100  12.6464190  66.6047380  81.1329300  10.8938860
  65.9002950  81.4214190  11.4741970  66.9659540  81.9429410  10.5338420
  56.5225950  79.3899000  13.2559470  56.8642760  80.2341050  12.9613340
  55.5841760  79.5382740  13.3724810  57.3032570  89.2865020  15.2411700
  57.9206570  89.9616100  14.9596150  56.4425690  89.6953000  15.1499200
  52.5964910  88.4764880   4.1218550  52.2192890  88.9651980   3.3903450
  52.8537980  89.1490160   4.7525080  68.2210160  90.7504430  13.1566340
  67.5373680  91.4203540  13.1483010  68.7604450  90.9485080  12.3911200
  69.6734300  80.5784090  11.2848070  68.7259210  80.6123070  11.4163500
  69.9984290  81.3923040  11.6697430  60.2053840  76.8781270   9.5804060
  60.5128820  76.3228160   8.8639560  59.2754540  77.0125730   9.3977050
  65.7568900  92.5948560  11.8711520  65.7696060  92.1910850  11.0033780
  65.2044120  93.3695850  11.7672950  67.0514320  89.3164780   6.9601690
  66.9410650  88.3739110   7.0851110  67.0482570  89.6780420   7.8464450
  65.1554340  87.4978400  13.1994130  65.5723130  87.2838510  12.3647590
  65.8794160  87.7551190  13.7702750  62.5934600  84.9430100   6.3164180
  61.6663880  84.8767480   6.5452650  62.7459420  85.8810230   6.2019420
  62.5803680  81.2147100   3.3131340  61.6407350  81.3761060   3.3983800
  62.8986940  81.9332780   2.7667330  69.1016440  85.8965620  13.2910370
  68.2735070  85.9658710  12.8160500  69.6966920  86.4819930  12.8226200
  66.6231890  86.5050400   6.8199430  66.0044310  86.1669950   6.1725730
  66.6056340  85.8610160   7.5278620  66.0658450  82.6834940  14.2365240
  65.6529630  83.5088650  14.4905230  65.3334400  82.0979980  14.0441600
  58.1991240  85.4694840   9.0983910  57.7948240  84.7572090   8.6029810
  58.2854360  85.1248080   9.9871950  58.6672940  89.1562400  11.2623120
  58.3701230  88.5507870  10.5830900  59.6172760  89.1939710  11.1512480
  56.9119860  82.2438050  12.8782950  57.4634450  82.3533390  12.1036200
  57.4263370  82.6175650  13.5938180  66.7558550  92.7294270  14.9246220
  66.2789110  93.5366460  14.7318830  66.0720340  92.0772600  15.0772430
  57.7591370  88.8944090  17.9130920  56.8619900  89.1184060  18.1604320
  57.7844240  89.0179030  16.9642320  64.7996590  85.7437210   3.8272180
  65.2389870  84.9059640   3.6810000  65.5125010  86.3766610   3.9136320
  56.5862590  85.7657410  16.4888290  56.4470360  86.6380210  16.8575690
  55.7043950  85.4230220  16.3436230  62.9091970  90.6833280   7.7953420
  63.3487880  91.4257610   7.3808810  62.8478860  90.9259850   8.7192380
  58.3842940  91.7079110  18.6973440  58.3558370  92.1122060  17.8301870
  58.2207910  90.7789470  18.5345040  68.3813730  76.9980020   2.1413220
  68.0686390  77.0906850   3.0412290  69.1426200  77.5761050   2.0910650
  54.8995870  84.3639820   6.5990560  54.7793470  85.0901910   5.9871830
  54.5896760  83.5942730   6.1218470  70.3357760  92.4906210  19.9937610
  70.8117480  92.9689100  20.6726690  70.9564920  92.4223700  19.2683110
  52.5381240  87.5354960  12.4059200  52.6161660  87.6703730  11.4614920
  53.1522920  86.8270850  12.5987320  53.7828870  89.2355150   8.8165380
  53.3756950  89.3769740   7.9618980  54.6741880  88.9515310   8.6136590
  69.7391010  89.6819060  17.1537620  69.8654070  89.4430940  16.2354800
  69.7812390  88.8503600  17.6259700  63.6007750  93.3847060  15.7232430
  64.1152420  93.2955070  16.5254860  62.7576830  93.7306760  16.0160340
  65.5762150  93.6702400   5.1516430  65.4163290  93.3805340   6.0498260
  65.4108860  92.8942530   4.6161660  65.2788280  91.1789960   3.7114430
  64.5853440  91.1767250   3.0516710  66.0211140  90.7549280   3.2808600
  64.8438210  92.8052670   7.7862920  65.2995160  92.0242050   8.1001540
  65.1830730  93.5159490   8.3304100  69.5915020  81.7351520  18.1187360
  68.9759290  82.2431190  17.5902820  69.2711440  80.8349850  18.0613300
  52.5940760  88.5769130  14.9453660  52.7571800  88.1074490  14.1273030
  53.0593210  88.0692690  15.6102500  57.3659530  77.7074890   9.9814230
  56.9227680  78.4884430   9.6498750  57.9244520  78.0304780  10.6885170
  61.6529340  80.5743410  15.5849550  61.1908710  80.7826430  16.3969490
  61.2507450  79.7602760  15.2820220  66.6533850  81.7952360  16.7146210
  65.8027440  81.4958110  17.0355280  66.4935640  82.0394370  15.8030030
  63.7483560  83.2954110  18.8145000  64.0736970  82.4617860  18.4747230
  64.5363890  83.8182630  18.9623330  60.4818350  77.3285590   4.8620060
  59.8572530  77.3245460   5.5873370  60.3948470  76.4616550   4.4656030
  59.4035430  78.2522220  11.8403830  59.7007760  79.1585050  11.7595850
  59.9520990  77.7641000  11.2263400  57.1573750  82.8308460   7.7095480
  56.9314670  82.6145630   8.6142100  56.3766280  83.2636920   7.3641450
  64.3871510  82.8371830   6.3086130  63.7880400  83.5607630   6.1249750
  64.9351120  82.7748610   5.5262580  59.5972960  83.7294040  18.3755750
  59.5016560  82.7888770  18.2256150  60.4404940  83.9509110  17.9803820
  62.9936380  81.4735370   8.3389410  63.3865950  81.7907570   7.5258100
  63.3553230  80.5947250   8.4533930  54.7283500  80.1407710  16.5289530
  54.3346890  80.9882920  16.7362310  54.0401900  79.5034080  16.7198170
  61.3028550  80.2242680  19.5986270  60.6126870  80.0314880  20.2332360
  62.0460850  80.5077320  20.1310570  52.0300550  78.0636170  10.5619610
  51.7413600  78.6339030  11.2744590  52.7746310  77.5840620  10.9250840
  63.5791520  84.0641120  12.4340190  62.8472640  84.5727930  12.7830290
  63.1815860  83.2471100  12.1328970  60.0168910  80.7395320  10.8392680
  60.0204970  80.2985270   9.9897220  60.9120030  81.0612650  10.9464500
  55.8671290  80.6221810   9.7986890  55.5271340  81.0997040  10.5553940
  55.1048610  80.1686930   9.4387990  60.0789060  81.7407400   3.8299440
  60.2001880  81.6993880   4.7785260  59.6937570  82.6031550   3.6746170
  64.0417430  79.5174800  11.8463130  64.0590170  79.9683450  12.6904980
  63.7933010  78.6180440  12.0596570  59.0910560  84.0508540   3.2282740
  58.5227460  83.6026790   2.6018650  59.7999560  84.4101320   2.6947890
  67.4688180  76.9306980  17.6849510  67.7933950  76.1996640  18.2107490
  67.5044690  76.6120620  16.7830500  54.1679740  87.9520560  17.1049470
  53.7834530  87.3114230  17.7032430  54.4791930  88.6556680  17.6744200
  60.3176880  84.7997100  12.5858090  60.6847010  84.3255670  13.3319430
  60.1281940  85.6738670  12.9266430  53.1817370  79.5440790   8.7151560
  52.8964290  79.1796460   9.5530180  53.1196230  78.8121250   8.1014700
  58.1076250  83.8405740  14.9042300  57.8033320  84.7197720  15.1292660
  59.0622710  83.9005530  14.9399740  56.6358040  88.0466730   5.5009150
  55.8620300  87.5064350   5.3407870  57.3652670  87.5273340   5.1626910
  67.3946020  87.0432090  11.2935540  68.1145140  87.5387380  10.9031650
  67.1927840  86.3649980  10.6489410  62.8555960  78.4370050   5.4364930
  62.0420570  77.9383220   5.3610240  62.6617910  79.2768300   5.0201280
  62.7764820  87.1141150  17.1804540  62.7102130  86.1936820  16.9262130
  62.1469960  87.2116590  17.8949180  65.5704350  82.8089700   3.7327090
  66.4583970  83.1206930   3.5578430  65.5409440  81.9361950   3.3407670
  56.6795440  87.7147110   9.1387960  57.1974110  86.9115370   9.0844850
  56.2279460  87.6526250   9.9804790  61.5664940  88.9813390   4.4115260
  61.9080640  89.7255620   3.9158580  60.7377650  89.2944510   4.7740090
  54.1639980  84.6808480  16.0513660  53.8054920  85.3462330  16.6387000
  53.8694540  83.8492030  16.4226280  57.3653100  85.1392720  18.9353210
  57.0653240  85.2849900  18.0381030  58.1364340  84.5798010  18.8426600
  62.7081550  89.9361720  16.9308340  62.7226090  89.0042680  16.7127250
  62.0006650  90.0221480  17.5698110  67.8418620  84.1201540   3.2006950
  67.7582340  84.5515760   2.3503390  68.5612810  84.5799890   3.6333770
  68.9192760  86.5769060  16.2776920  68.1940950  87.1697840  16.0806310
  69.4468220  86.5692600  15.4790290  68.8705870  90.9743800   5.9289080
  68.2282030  90.3199420   6.2032800  68.4836530  91.3798890   5.1529750
  64.4492350  88.3029230   9.7760770  64.8016170  87.7057360   9.1162140
  63.5654680  87.9773460   9.9469020  60.5355630  89.0626920   7.1831180
  61.2226760  89.6096130   7.5638770  59.7488050  89.6067650   7.2180790
  52.6748030  84.6799740   2.6748260  53.5442880  84.9624540   2.9584180
  52.1838350  85.4935610   2.5597070  59.8382840  86.0672950   6.7956540
  60.2945620  86.8778200   7.0216730  59.4871050  85.7496090   7.6275030
  62.1415450  91.5779290  14.0248840  62.7857670  91.7838670  14.7022260
  62.5044890  90.8167690  13.5719690  55.7394620  76.4110600   7.2679060
  55.6109250  76.4028500   8.2163980  54.9156640  76.7493690   6.9170070
  63.4147530  89.5811640  12.7426290  64.0569760  88.8804800  12.8558460
  63.9396880  90.3610080  12.5623180  67.2603250  89.8660260   2.4665430
  67.0340830  89.1490700   3.0590070  66.8699450  89.6172700   1.6287180
  65.1885150  90.3806540  15.9462350  65.5241390  90.9673230  16.6240270
  64.2685490  90.2499250  16.1760140  52.7388550  78.1701720  16.7285760
  52.0247070  78.3698640  17.3338370  53.1583590  77.3941290  17.1000560
  66.8419500  87.7832200   4.1279590  66.5541200  88.2444890   4.9157470
  67.6371670  87.3229970   4.3963810  53.0261140  92.1581980  17.7152290
  53.1352260  91.2176720  17.5747680  52.3741700  92.4236730  17.0666020
  61.0173730  90.4297870  19.1150410  60.6970600  89.7107110  19.6596100
  60.3432090  91.1052940  19.1886470  59.0587900  91.2758320   4.0583560
  59.0498000  92.0088010   3.4428070  58.1386260  91.0289900   4.1510520
  54.6594540  86.4973210   4.8030320  54.0522490  87.2372110   4.8125620
  55.1343890  86.5872570   3.9768520  64.2327330  80.6624030  14.4787210
  64.6008150  79.8419240  14.8066780  63.3725530  80.7225920  14.8942860
  67.5989360  79.6180970   5.2874770  66.9702520  79.7226640   4.5733000
  67.1041280  79.8377750   6.0768650  62.0447500  91.3386560   2.7208750
  62.1459480  91.1350550   1.7910730  61.1449240  91.0844840   2.9256530
  59.5673390  81.8966920   6.7032650  58.8589540  82.3653260   7.1446260
  59.8517870  81.2388930   7.3377840  61.1929320  83.3163620  14.7025180
  61.6914570  83.7909440  15.3677030  61.3352270  82.3927140  14.9095210
  63.5988820  78.6217580   8.1428440  63.4756600  78.6403710   7.1937950
  64.5473380  78.6696520   8.2626840  57.7708410  80.2052000   4.0783360
  58.6198940  80.6422150   4.0123550  57.4039680  80.5172260   4.9055420
  68.3996180  79.5331580  15.5453570  67.8969780  80.2736980  15.8847380
  69.2152840  79.9215580  15.2290360  66.6918190  84.7764760   8.9914930
  65.7508330  84.7914990   9.1662620  67.0062260  83.9900720   9.4375230
  56.6699830  86.4584360   2.5518890  57.4363100  86.3465720   3.1144320
  56.7474520  85.7622330   1.8995660  55.3646590  83.8909430   3.2351780
  55.4450180  82.9436940   3.3469180  56.2566340  84.2216310   3.3412440
  68.6943770  91.9473610  10.6669190  68.8191190  92.7704780  11.1393000
  69.5609330  91.7364340  10.3193340  53.0506780  90.1078390   6.2127830
  52.1246560  90.3499530   6.2033240  53.5163210  90.9352650   6.0912580
  55.1719580  93.2250890  19.5271900  55.9732310  93.5462940  19.9407300
  54.6571400  92.8646470  20.2491810  64.0084210  89.3330760  19.4747310
  63.4022370  89.3562360  18.7343060  63.7038320  88.6013800  20.0114560
  65.4384580  93.0611050  18.0856720  66.3906330  92.9769070  18.0356960
  65.2912800  93.7252760  18.7590510  68.3293780  92.4405260   3.5848630
  68.0435290  92.0270400   2.7702810  68.1313330  93.3692970   3.4649150
  52.8917390  85.7124350  18.4707950  53.3956410  85.1331630  19.0424180
  52.1524810  85.9964580  19.0084320  59.9455330  87.1195340  18.0043470
  59.1801000  87.6880340  17.9198140  60.1271290  86.8271550  17.1111700
  63.0343740  87.4958570   2.6296230  62.4853840  87.9427870   3.2738970
  63.6563000  86.9907820   3.1533900  67.0878680  88.8500670  18.5618490
  67.8288150  89.1876430  18.0585950  66.3251360  89.0192730  18.0088260
  54.9240470  83.8553940  19.3658020  54.9645810  83.5567810  20.2743250
  55.7785970  84.2561550  19.2065540  58.7018860  86.4549490   4.5261530
  59.1235280  86.2889360   5.3692920  58.8269700  85.6449720   4.0316670
  56.8646280  82.4346040  17.3332510  56.3342740  81.9436990  16.7055850
  57.5334350  82.8630240  16.7990440  65.7624340  86.9015500  17.0973700
  66.1765360  87.0560580  17.9464120  64.8275340  87.0270720  17.2599480
  66.2346510  84.2411660  19.1012850  66.8167280  83.4863980  19.0133330
  66.4108280  84.7719100  18.3244330  57.3518580  79.4008410  17.4129800
  57.2575450  78.7829160  16.6880670  56.7715970  80.1274700  17.1859710
  60.1180020  77.9581650  14.4457190  59.6697320  77.9805910  13.6002740
  59.4845220  77.5600670  15.0427490  60.5239570  86.8535980  15.0669630
  60.9427680  87.6968710  14.8945870  59.6048200  86.9908020  14.8376410
  62.8603470  84.5852160  16.4507470  62.9799680  83.9893300  17.1902310
  63.7197470  84.6221850  16.0308770  65.1991370  85.1389350  15.0269980
  64.6726590  85.6631970  14.4235120  65.5422710  85.7716740  15.6579710
  59.6272240  81.1273510  17.7083290  60.2171930  80.8189360  18.3961110
  58.8092480  80.6553260  17.8643190  64.4465670  80.7439320  17.9416310
  63.7581190  80.0820860  17.8766300  65.1671690  80.2977590  18.3864770
  65.0766070  77.3390950   4.0006570  65.3568360  76.4958850   4.3565990
  64.3031800  77.5714060   4.5145320  59.6145490  78.5717960   2.4453770
  59.2667490  77.8941950   1.8656220  59.8158260  78.1107470   3.2597160
  55.4190690  88.9325760   2.2927370  55.8565560  89.4755430   2.9484950
  55.9038420  88.1072710   2.3023710  52.6336490  91.7214790   9.7447630
  52.9639500  90.8535850   9.5126270  53.0627490  91.9273310  10.5752590
  57.2298410  90.0523800   7.4049600  56.9293950  89.9288770   8.3053510
  57.1235900  89.1932390   6.9965330  53.1226700  92.5885380  12.4829260
  52.6857690  92.7686180  13.3153410  53.6904380  93.3460000  12.3410980
  68.7588880  92.0902380  16.7706570  68.1590870  92.1494940  16.0270490
  68.8882780  91.1507360  16.9003420  69.9990330  89.8320200   2.1076280
  69.1683290  89.8996850   2.5783510  70.1762160  90.7224320   1.8043140
  69.4546790  86.5767680   4.6110480  70.2165700  87.1464330   4.7170170
  69.4701160  86.0094880   5.3818790  52.9551130  85.1005610   8.8418140
  52.2999970  84.8317250   8.1977840  53.7929080  84.9910090   8.3920120
  70.4606760  87.4317780   9.4552410  70.8315590  86.6485100   9.0488380
  71.1008690  88.1206880   9.2769710  67.4440520  88.8154360  14.8682730
  66.6300360  89.2451520  15.1308520  67.8514720  89.4272770  14.2551780
  69.5065960  86.8702050   1.7683000  69.7814800  87.7780930   1.6402220
  69.3176700  86.8064580   2.7044990  65.9041570  79.8946900   3.0636630
  66.3226450  79.7077880   2.2233290  65.5977630  79.0425950   3.3739560
  69.4031300  84.8071040   6.7612430  69.0274900  84.0398970   6.3293720
  68.6734420  85.1893740   7.2487360  53.9927060  85.4858180  13.3821480
  54.3600100  85.3985580  14.2617500  53.4237880  84.7224730  13.2828340
  68.7930920  83.9542560  16.3951950  68.5617010  83.7255310  15.4949900
  69.0535470  84.8742110  16.3496840  53.5443060  82.3967270  17.2879900
  52.6499110  82.3634030  17.6273610  54.0840610  82.5954060  18.0531150
  67.2318990  79.1798990  19.1731650  68.1089170  79.1882390  19.5565650
  67.2439830  78.4429830  18.5624000  52.1689210  82.3104540   4.7843470
  51.2653290  82.5734740   4.6095130  52.6529830  82.5815710   4.0043430
  68.6782260  83.0328530  10.0619670  69.2019740  82.5391180   9.4309840
  69.2641680  83.1678890  10.8067240  68.8571980  83.1168400  13.5839220
  67.9074690  83.0831940  13.6984210  69.0384990  84.0268510  13.3488990
  54.7116420  81.3670080   2.6937850  55.4208120  80.9453300   2.2085130
  53.9956360  81.4345310   2.0621200  68.1682230  82.2901880   6.0012080
  68.6641350  82.0572750   6.7860960  67.9698300  81.4513720   5.5849720
  54.0482770  76.6715600  11.6363120  54.6958960  76.1212980  11.1958280
  54.4684610  76.9258750  12.4578930  69.5969390  80.9262830   8.5349760
  69.4868670  80.7718870   9.4732030  70.3576980  80.3983770   8.2925170
  67.9435110  76.8656960  14.9932760  68.5807330  77.4791100  15.3591950
  68.0910000  76.9017620  14.0481990  70.4859660  78.7570750   1.7755900
  71.4108970  78.6251930   1.5674190  70.4635450  78.8363570   2.7292350
  70.5598150  79.5281410   4.4012610  69.7649650  79.4626530   4.9305520
  70.7641430  80.4632050   4.3897960  67.5016570  93.5672960   8.3951000
  68.0975640  93.2457530   7.7185420  67.7594720  93.0944780   9.1864270
  53.8014770  76.8271270  14.3788440  53.4529590  77.2835090  15.1446620
  53.4702470  75.9328400  14.4610870  55.4079140  89.9990870  18.5441630
  55.3648770  89.6283780  19.4256090  55.5390150  90.9368440  18.6843450
  59.1085170  91.5550460  14.1451350  58.8676530  91.8225020  13.2581870
  60.0487810  91.7256190  14.2002210  61.3139590  78.0183150  17.9007860
  61.2528480  78.6104980  18.6503270  62.2539970  77.9109110  17.7558120
  63.9514150  77.6753210  17.5400150  64.5654560  77.9932500  16.8781230
  64.4963710  77.1901800  18.1596010  54.4735410  76.3547470  17.6539210
  55.0218400  76.1735520  16.8905320  54.5390720  75.5641580  18.1895520
  55.2467170  92.9453120  15.6639410  54.6527490  92.8137820  16.4029450
  55.2391010  92.1091260  15.1981510  64.6922190  76.2385350  13.8669440
  63.8182030  76.5720460  13.6642370  64.5832940  75.7658530  14.6921310
  65.5994170  78.4456220  15.2511160  65.2707530  77.6307980  14.8712890
  66.5476470  78.4026030  15.1276850  54.8779400  90.3111500  14.6147450
  54.1513460  89.6916790  14.5473400  54.9388550  90.7052110  13.7445530
  58.4824500  92.5256500  11.3996860  58.9989520  91.9143860  10.8745120
  59.1321880  93.0285280  11.8907870  61.2220000  93.4164990  12.2265840
  61.5097810  93.1619290  11.3498850  61.7343220  92.8642350  12.8171410
  62.4397010  77.1555190  12.8062350  61.6568800  77.6300690  13.0859110
  62.1459940  76.2510020  12.6975530  66.9918080  77.8578290  10.8511440
  67.4326170  77.8023390  10.0033040  66.7225670  78.7736300  10.9221620
  68.8556650  77.4893530   8.8620260  68.7945050  76.5454750   8.7151280
  69.6348680  77.5973620   9.4073720  53.7837420  77.4602670   5.3276070
  54.5416780  77.5731550   4.7540100  53.3214590  78.2971870   5.2819500
  60.3251230  79.5741940   8.3178380  59.5125740  79.1998830   7.9774260
  60.8292870  78.8187020   8.6199570  64.8276210  76.2384390   9.5561450
  65.4305580  76.8104600  10.0309970  64.0869200  76.8023830   9.3335350
  67.9710810  76.6405950   4.8301730  68.1661440  77.5389400   5.0969160
  67.1840680  76.4093030   5.3234680  54.7672100  92.3219120   5.2694350
  54.2419720  92.7027150   4.5656310  54.6916680  92.9469890   5.9904060
  56.1562570  77.9866720   3.8678040  56.6855330  77.1996520   3.7385990
  56.7890890  78.6657910   4.1013570  58.3500410  77.7241860   6.9223430
  57.7203150  77.0229170   7.0893560  57.8105550  78.4845990   6.7056590
  58.4755970  77.0025840  19.3575920  58.1940240  77.5059440  18.5936740
  58.8575670  76.2047590  18.9918050  56.5279860  90.3866230   4.1489930
  55.8988740  90.8551330   4.6975760  56.6427690  89.5415450   4.5836120
  65.0771430  76.4179420  19.9356390  64.9636880  76.7374030  20.8307910
  65.8941170  76.8191930  19.6393670  63.9829580  65.6628400  65.3965090
  63.9023630  64.7483010  65.1256800  63.5694000  66.1595470  64.6904800
  62.1147620  67.4407420  67.2774360  61.3389720  66.9607860  67.5672930
  62.7660550  66.7613070  67.1030520  56.1313450  67.7527230  68.1550120
  55.2998330  67.4975940  68.5546630  56.7394430  67.8238000  68.8908040
  66.1355050  71.8467610  66.0573490  65.6736580  71.0754850  66.3860660
  66.9480600  71.8733680  66.5625940  56.1114710  71.7867320  68.3508140
  56.4142750  70.8965060  68.1718360  56.8558300  72.3437540  68.1230390
  54.5405400  62.7129120  61.9392510  53.6522100  63.0545090  61.8372390
  54.8246590  62.5129440  61.0473340  52.5038410  65.3134770  67.8232210
  53.0754520  64.5456970  67.8235850  52.5039950  65.6123530  66.9138820
  62.3618360  74.1325620  65.6777480  61.7429800  74.5883120  65.1071920
  63.2170140  74.2877080  65.2767180  61.5556610  70.1164610  67.2844520
  61.4864890  69.1754550  67.1233650  62.3176470  70.2066020  67.8567090
  53.7463280  60.7219130  69.6101140  53.5666120  59.8244880  69.8903900
  53.3443360  61.2691000  70.2848090  62.5861780  62.9234990  67.5113450
  62.9626600  62.0506870  67.3987120  62.4881290  63.2593690  66.6203890
  56.7166790  61.2960620  62.9730890  56.8233540  62.1964350  63.2799650
  55.8059150  61.2478590  62.6825540  66.3685900  60.4185430  64.4441790
  67.1895520  59.9282000  64.4867270  66.4019980  61.0083090  65.1973630
  54.3649950  63.2179630  68.2183480  55.0460060  63.4818000  68.8370880
  54.0498000  62.3780500  68.5521490  58.5574520  64.2646990  67.3056070
  59.0652740  64.7627960  67.9461090  59.0887760  63.4882190  67.1295430
  70.6585450  62.4352180  71.0085420  69.9537620  62.8233890  70.4900530
  70.9243370  63.1302470  71.6106350  56.8410620  58.9045550  71.5719490
  56.8429060  59.4217940  70.7665390  56.0114930  58.4275730  71.5489420
  63.2281710  69.0164860  63.0709390  62.6098980  69.4814310  62.5072110
  63.7404960  69.7092340  63.4878900  58.0913470  68.5440730  69.7492990
  57.7582850  69.1709650  70.3914060  58.2680150  69.0702610  68.9694660
  66.6047380  62.3585810  67.2169330  65.9002950  62.6470700  67.7972440
  66.9659540  63.1685920  66.8568890  56.5225950  60.6155510  69.5789940
  56.8642760  61.4597560  69.2843810  55.5841760  60.7639250  69.6955280
  57.3032570  70.5121530  71.5642170  57.9206570  71.1872610  71.2826620
  56.4425690  70.9209510  71.4729670  52.5964910  69.7021390  60.4449020
  52.2192890  70.1908490  59.7133920  52.8537980  70.3746670  61.0755550
  68.2210160  71.9760940  69.4796810  67.5373680  72.6460050  69.4713480
  68.7604450  72.1741590  68.7141670  69.6734300  61.8040600  67.6078540
  68.7259210  61.8379580  67.7393970  69.9984290  62.6179550  67.9927900
  60.2053840  58.1037780  65.9034530  60.5128820  57.5484670  65.1870030
  59.2754540  58.2382240  65.7207520  65.7568900  73.8205070  68.1941990
  65.7696060  73.4167360  67.3264250  65.2044120  74.5952360  68.0903420
  67.0514320  70.5421290  63.2832160  66.9410650  69.5995620  63.4081580
  67.0482570  70.9036930  64.1694920  65.1554340  68.7234910  69.5224600
  65.5723130  68.5095020  68.6878060  65.8794160  68.9807700  70.0933220
  62.5934600  66.1686610  62.6394650  61.6663880  66.1023990  62.8683120
  62.7459420  67.1066740  62.5249890  62.5803680  62.4403610  59.6361810
  61.6407350  62.6017570  59.7214270  62.8986940  63.1589290  59.0897800
  69.1016440  67.1222130  69.6140840  68.2735070  67.1915220  69.1390970
  69.6966920  67.7076440  69.1456670  66.6231890  67.7306910  63.1429900
  66.0044310  67.3926460  62.4956200  66.6056340  67.0866670  63.8509090
  66.0658450  63.9091450  70.5595710  65.6529630  64.7345160  70.8135700
  65.3334400  63.3236490  70.3672070  58.1991240  66.6951350  65.4214380
  57.7948240  65.9828600  64.9260280  58.2854360  66.3504590  66.3102420
  58.6672940  70.3818910  67.5853590  58.3701230  69.7764380  66.9061370
  59.6172760  70.4196220  67.4742950  56.9119860  63.4694560  69.2013420
  57.4634450  63.5789900  68.4266670  57.4263370  63.8432160  69.9168650
  66.7558550  73.9550780  71.2476690  66.2789110  74.7622970  71.0549300
  66.0720340  73.3029110  71.4002900  57.7591370  70.1200600  74.2361390
  56.8619900  70.3440570  74.4834790  57.7844240  70.2435540  73.2872790
  64.7996590  66.9693720  60.1502650  65.2389870  66.1316150  60.0040470
  65.5125010  67.6023120  60.2366790  56.5862590  66.9913920  72.8118760
  56.4470360  67.8636720  73.1806160  55.7043950  66.6486730  72.6666700
  62.9091970  71.9089790  64.1183890  63.3487880  72.6514120  63.7039280
  62.8478860  72.1516360  65.0422850  58.3842940  72.9335620  75.0203910
  58.3558370  73.3378570  74.1532340  58.2207910  72.0045980  74.8575510
  68.3813730  58.2236530  58.4643690  68.0686390  58.3163360  59.3642760
  69.1426200  58.8017560  58.4141120  54.8995870  65.5896330  62.9221030
  54.7793470  66.3158420  62.3102300  54.5896760  64.8199240  62.4448940
  52.5381240  68.7611470  68.7289670  52.6161660  68.8960240  67.7845390
  53.1522920  68.0527360  68.9217790  53.7828870  70.4611660  65.1395850
  53.3756950  70.6026250  64.2849450  54.6741880  70.1771820  64.9367060
  69.7391010  70.9075570  73.4768090  69.8654070  70.6687450  72.5585270
  69.7812390  70.0760110  73.9490170  63.6007750  74.6103570  72.0462900
  64.1152420  74.5211580  72.8485330  62.7576830  74.9563270  72.3390810
  65.5762150  74.8958910  61.4746900  65.4163290  74.6061850  62.3728730
  65.4108860  74.1199040  60.9392130  58.0550530  74.6757440  63.2518520
  57.8793010  73.7592980  63.0386320  57.2006270  75.0344730  63.4916320
  65.2788280  72.4046470  60.0344900  64.5853440  72.4023760  59.3747180
  66.0211140  71.9805790  59.6039070  64.8438210  74.0309180  64.1093390
  65.2995160  73.2498560  64.4232010  65.1830730  74.7416000  64.6534570
  69.5915020  62.9608030  74.4417830  68.9759290  63.4687700  73.9133290
  69.2711440  62.0606360  74.3843770  52.5940760  69.8025640  71.2684130
  52.7571800  69.3331000  70.4503500  53.0593210  69.2949200  71.9332970
  57.3659530  58.9331400  66.3044700  56.9227680  59.7140940  65.9729220
  57.9244520  59.2561290  67.0115640  61.6529340  61.7999920  71.9080020
  61.1908710  62.0082940  72.7199960  61.2507450  60.9859270  71.6050690
  66.6533850  63.0208870  73.0376680  65.8027440  62.7214620  73.3585750
  66.4935640  63.2650880  72.1260500  63.7483560  64.5210620  75.1375470
  64.0736970  63.6874370  74.7977700  64.5363890  65.0439140  75.2853800
  60.4818350  58.5542100  61.1850530  59.8572530  58.5501970  61.9103840
  60.3948470  57.6873060  60.7886500  59.4035430  59.4778730  68.1634300
  59.7007760  60.3841560  68.0826320  59.9520990  58.9897510  67.5493870
  57.1573750  64.0564970  64.0325950  56.9314670  63.8402140  64.9372570
  56.3766280  64.4893430  63.6871920  64.3871510  64.0628340  62.6316600
  63.7880400  64.7864140  62.4480220  64.9351120  64.0005120  61.8493050
  59.5972960  64.9550550  74.6986220  59.5016560  64.0145280  74.5486620
  60.4404940  65.1765620  74.3034290  62.9936380  62.6991880  64.6619880
  63.3865950  63.0164080  63.8488570  63.3553230  61.8203760  64.7764400
  54.7283500  61.3664220  72.8520000  54.3346890  62.2139430  73.0592780
  54.0401900  60.7290590  73.0428640  52.0300550  59.2892680  66.8850080
  51.7413600  59.8595540  67.5975060  52.7746310  58.8097130  67.2481310
  52.2170780  63.2312800  58.0952800  52.1345450  64.1743560  58.2367790
  51.8653840  63.0887710  57.2165150  63.5791520  65.2897630  68.7570660
  62.8472640  65.7984440  69.1060760  63.1815860  64.4727610  68.4559440
  60.0168910  61.9651830  67.1623150  60.0204970  61.5241780  66.3127690
  60.9120030  62.2869160  67.2694970  55.8671290  61.8478320  66.1217360
  55.5271340  62.3253550  66.8784410  55.1048610  61.3943440  65.7618460
  60.0789060  62.9663910  60.1529910  60.2001880  62.9250390  61.1015730
  59.6937570  63.8288060  59.9976640  64.0417430  60.7431310  68.1693600
  64.0590170  61.1939960  69.0135450  63.7933010  59.8436950  68.3827040
  59.0910560  65.2765050  59.5513210  58.5227460  64.8283300  58.9249120
  59.7999560  65.6357830  59.0178360  67.4688180  58.1563490  74.0079980
  67.7933950  57.4253150  74.5337960  67.5044690  57.8377130  73.1060970
  54.1679740  69.1777070  73.4279940  53.7834530  68.5370740  74.0262900
  54.4791930  69.8813190  73.9974670  60.3176880  66.0253610  68.9088560
  60.6847010  65.5512180  69.6549900  60.1281940  66.8995180  69.2496900
  53.1817370  60.7697300  65.0382030  52.8964290  60.4052970  65.8760650
  53.1196230  60.0377760  64.4245170  58.1076250  65.0662250  71.2272770
  57.8033320  65.9454230  71.4523130  59.0622710  65.1262040  71.2630210
  56.6358040  69.2723240  61.8239620  55.8620300  68.7320860  61.6638340
  57.3652670  68.7529850  61.4857380  67.3946020  68.2688600  67.6166010
  68.1145140  68.7643890  67.2262120  67.1927840  67.5906490  66.9719880
  62.8555960  59.6626560  61.7595400  62.0420570  59.1639730  61.6840710
  62.6617910  60.5024810  61.3431750  62.7764820  68.3397660  73.5035010
  62.7102130  67.4193330  73.2492600  62.1469960  68.4373100  74.2179650
  65.5704350  64.0346210  60.0557560  66.4583970  64.3463440  59.8808900
  65.5409440  63.1618460  59.6638140  56.6795440  68.9403620  65.4618430
  57.1974110  68.1371880  65.4075320  56.2279460  68.8782760  66.3035260
  61.5664940  70.2069900  60.7345730  61.9080640  70.9512130  60.2389050
  60.7377650  70.5201020  61.0970560  54.1639980  65.9064990  72.3744130
  53.8054920  66.5718840  72.9617470  53.8694540  65.0748540  72.7456750
  57.3653100  66.3649230  75.2583680  57.0653240  66.5106410  74.3611500
  58.1364340  65.8054520  75.1657070  62.7081550  71.1618230  73.2538810
  62.7226090  70.2299190  73.0357720  62.0006650  71.2477990  73.8928580
  68.9192760  67.8025570  72.6007390  68.1940950  68.3954350  72.4036780
  69.4468220  67.7949110  71.8020760  68.8705870  72.2000310  62.2519550
  68.2282030  71.5455930  62.5263270  68.4836530  72.6055400  61.4760220
  64.4492350  69.5285740  66.0991240  64.8016170  68.9313870  65.4392610
  63.5654680  69.2029970  66.2699490  60.5355630  70.2883430  63.5061650
  61.2226760  70.8352640  63.8869240  59.7488050  70.8324160  63.5411260
  52.6748030  65.9056250  58.9978730  53.5442880  66.1881050  59.2814650
  52.1838350  66.7192120  58.8827540  59.8382840  67.2929460  63.1187010
  60.2945620  68.1034710  63.3447200  59.4871050  66.9752600  63.9505500
  62.1415450  72.8035800  70.3479310  62.7857670  73.0095180  71.0252730
  62.5044890  72.0424200  69.8950160  55.7394620  57.6367110  63.5909530
  55.6109250  57.6285010  64.5394450  54.9156640  57.9750200  63.2400540
  63.4147530  70.8068150  69.0656760  64.0569760  70.1061310  69.1788930
  63.9396880  71.5866590  68.8853650  67.2603250  71.0916770  58.7895900
  67.0340830  70.3747210  59.3820540  66.8699450  70.8429210  57.9517650
  65.1885150  71.6063050  72.2692820  65.5241390  72.1929740  72.9470740
  64.2685490  71.4755760  72.4990610  53.0419280  75.1183630  59.5640360
  53.4016920  75.7172970  58.9097630  52.9011620  75.6643520  60.3375390
  52.7388550  59.3958230  73.0516230  52.0247070  59.5955150  73.6568840
  53.1583590  58.6197800  73.4231030  66.8419500  69.0088710  60.4510060
  66.5541200  69.4701400  61.2387940  67.6371670  68.5486480  60.7194280
  53.0261140  73.3838490  74.0382760  53.1352260  72.4433230  73.8978150
  52.3741700  73.6493240  73.3896490  61.0173730  71.6554380  75.4380880
  60.6970600  70.9363620  75.9826570  60.3432090  72.3309450  75.5116940
  59.0587900  72.5014830  60.3814030  59.0498000  73.2344520  59.7658540
  58.1386260  72.2546410  60.4740990  54.6594540  67.7229720  61.1260790
  54.0522490  68.4628620  61.1356090  55.1343890  67.8129080  60.2998990
  64.2327330  61.8880540  70.8017680  64.6008150  61.0675750  71.1297250
  63.3725530  61.9482430  71.2173330  67.5989360  60.8437480  61.6105240
  66.9702520  60.9483150  60.8963470  67.1041280  61.0634260  62.3999120
  62.0447500  72.5643070  59.0439220  62.1459480  72.3607060  58.1141200
  61.1449240  72.3101350  59.2487000  59.5673390  63.1223430  63.0263120
  58.8589540  63.5909770  63.4676730  59.8517870  62.4645440  63.6608310
  61.1929320  64.5420130  71.0255650  61.6914570  65.0165950  71.6907500
  61.3352270  63.6183650  71.2325680  63.5988820  59.8474090  64.4658910
  63.4756600  59.8660220  63.5168420  64.5473380  59.8953030  64.5857310
  60.6865610  75.0829390  63.7386890  60.9407110  75.0450780  62.8166260
  59.7378090  74.9562720  63.7315140  57.7708410  61.4308510  60.4013830
  58.6198940  61.8678660  60.3354020  57.4039680  61.7428770  61.2285890
  68.3996180  60.7588090  71.8684040  67.8969780  61.4993490  72.2077850
  69.2152840  61.1472090  71.5520830  66.6918190  66.0021270  65.3145400
  65.7508330  66.0171500  65.4893090  67.0062260  65.2157230  65.7605700
  56.6699830  67.6840870  58.8749360  57.4363100  67.5722230  59.4374790
  56.7474520  66.9878840  58.2226130  55.3646590  65.1165940  59.5582250
  55.4450180  64.1693450  59.6699650  56.2566340  65.4472820  59.6642910
  68.6943770  73.1730120  66.9899660  68.8191190  73.9961290  67.4623470
  69.5609330  72.9620850  66.6423810  56.1661300  75.2661330  66.6616790
  56.9023780  74.7176790  66.9325360  56.5502220  76.1317340  66.5222780
  53.0506780  71.3334900  62.5358300  52.1246560  71.5756040  62.5263710
  53.5163210  72.1609160  62.4143050  59.2763610  74.4391640  58.4842360
  60.0692220  74.7280470  58.0324150  58.7567960  74.0083810  57.8054840
  65.4384580  74.2867560  74.4087190  66.3906330  74.2025580  74.3587430
  65.2912800  74.9509270  75.0820980  68.3293780  73.6661770  59.9079100
  68.0435290  73.2526910  59.0933280  68.1313330  74.5949480  59.7879620
  52.8917390  66.9380860  74.7938420  53.3956410  66.3588140  75.3654650
  52.1524810  67.2221090  75.3314790  59.9455330  68.3451850  74.3273940
  59.1801000  68.9136850  74.2428610  60.1271290  68.0528060  73.4342170
  63.0343740  68.7215080  58.9526700  62.4853840  69.1684380  59.5969440
  63.6563000  68.2164330  59.4764370  67.0878680  70.0757180  74.8848960
  67.8288150  70.4132940  74.3816420  66.3251360  70.2449240  74.3318730
  58.7018860  67.6806000  60.8492000  59.1235280  67.5145870  61.6923390
  58.8269700  66.8706230  60.3547140  56.8646280  63.6602550  73.6562980
  56.3342740  63.1693500  73.0286320  57.5334350  64.0886750  73.1220910
  61.2146500  66.7043610  58.0969100  61.7352160  65.9892630  57.7310250
  61.8614900  67.3429480  58.3969610  65.7624340  68.1272010  73.4204170
  66.1765360  68.2817090  74.2694590  64.8275340  68.2527230  73.5829950
  66.2346510  65.4668170  75.4243320  66.8167280  64.7120490  75.3363800
  66.4108280  65.9975610  74.6474800  57.3518580  60.6264920  73.7360270
  57.2575450  60.0085670  73.0111140  56.7715970  61.3531210  73.5090180
  60.1180020  59.1838160  70.7687660  59.6697320  59.2062420  69.9233210
  59.4845220  58.7857180  71.3657960  60.5239570  68.0792490  71.3900100
  60.9427680  68.9225220  71.2176340  59.6048200  68.2164530  71.1606880
  62.8603470  65.8108670  72.7737940  62.9799680  65.2149810  73.5132780
  63.7197470  65.8478360  72.3539240  65.1991370  66.3645860  71.3500450
  64.6726590  66.8888480  70.7465590  65.5422710  66.9973250  71.9810180
  57.5977760  63.7539230  57.7950160  57.3966820  62.8906590  58.1563500
  57.4269810  63.6672590  56.8571760  58.3746990  74.3845500  72.5057830
  57.8368080  75.1091560  72.1866530  58.6280950  73.9075840  71.7155170
  59.6272240  62.3530020  74.0313760  60.2171930  62.0445870  74.7191580
  58.8092480  61.8809770  74.1873660  64.4465670  61.9695830  74.2646780
  63.7581190  61.3077370  74.1996770  65.1671690  61.5234100  74.7095240
  65.0766070  58.5647460  60.3237040  65.3568360  57.7215360  60.6796460
  64.3031800  58.7970570  60.8375790  56.3960560  60.8539850  57.7828040
  56.6986460  60.8607280  56.8747190  57.1355150  60.5037710  58.2795700
  61.2309200  75.6196710  72.7644480  61.1567900  76.5231850  73.0716850
  60.3288040  75.3008610  72.7366550  59.6145490  59.7974470  58.7684240
  59.2667490  59.1198460  58.1886690  59.8158260  59.3363980  59.5827630
  61.7794530  74.7855220  60.3870840  62.6745320  75.1240190  60.4089600
  61.8112160  74.0634630  59.7595120  55.4190690  70.1582270  58.6157840
  55.8565560  70.7011940  59.2715420  55.9038420  69.3329220  58.6254180
  52.6336490  72.9471300  66.0678100  52.9639500  72.0792360  65.8356740
  53.0627490  73.1529820  66.8983060  57.2298410  71.2780310  63.7280070
  56.9293950  71.1545280  64.6283980  57.1235900  70.4188900  63.3195800
  53.1226700  73.8141890  68.8059730  52.6857690  73.9942690  69.6383880
  53.6904380  74.5716510  68.6641450  68.7588880  73.3158890  73.0937040
  68.1590870  73.3751450  72.3500960  68.8882780  72.3763870  73.2233890
  52.9551130  66.3262120  65.1648610  52.2999970  66.0573760  64.5208310
  53.7929080  66.2166600  64.7150590  70.4606760  68.6574290  65.7782880
  70.8315590  67.8741610  65.3718850  71.1008690  69.3463390  65.6000180
  67.4440520  70.0410870  71.1913200  66.6300360  70.4708030  71.4538990
  67.8514720  70.6529280  70.5782250  65.9041570  61.1203410  59.3867100
  66.3226450  60.9334390  58.5463760  65.5977630  60.2682460  59.6970030
  69.4031300  66.0327550  63.0842900  69.0274900  65.2655480  62.6524190
  68.6734420  66.4150250  63.5717830  53.9927060  66.7114690  69.7051950
  54.3600100  66.6242090  70.5847970  53.4237880  65.9481240  69.6058810
  68.7930920  65.1799070  72.7182420  68.5617010  64.9511820  71.8180370
  69.0535470  66.0998620  72.6727310  53.5443060  63.6223780  73.6110370
  52.6499110  63.5890540  73.9504080  54.0840610  63.8210570  74.3761620
  67.2318990  60.4055500  75.4962120  68.1089170  60.4138900  75.8796120
  67.2439830  59.6686340  74.8854470  52.1689210  63.5361050  61.1073940
  51.2653290  63.7991250  60.9325600  52.6529830  63.8072220  60.3273900
  68.6782260  64.2585040  66.3850140  69.2019740  63.7647690  65.7540310
  69.2641680  64.3935400  67.1297710  68.8571980  64.3424910  69.9069690
  67.9074690  64.3088450  70.0214680  69.0384990  65.2525020  69.6719460
  54.7116420  62.5926590  59.0168320  55.4208120  62.1709810  58.5315600
  53.9956360  62.6601820  58.3851670  54.3590580  58.6465920  58.0570970
  55.0818710  59.1874860  58.3752190  54.6315100  58.3729340  57.1812510
  68.1682230  63.5158390  62.3242550  68.6641350  63.2829260  63.1091430
  67.9698300  62.6770230  61.9080190  54.0482770  57.8972110  67.9593590
  54.6958960  57.3469490  67.5188750  54.4684610  58.1515260  68.7809400
  69.5969390  62.1519340  64.8580230  69.4868670  61.9975380  65.7962500
  70.3576980  61.6240280  64.6155640  67.9435110  58.0913470  71.3163230
  68.5807330  58.7047610  71.6822420  68.0910000  58.1274130  70.3712460
  70.5598150  60.7537920  60.7243080  69.7649650  60.6883040  61.2535990
  70.7641430  61.6888560  60.7128430  67.5016570  74.7929470  64.7181470
  68.0975640  74.4714040  64.0415890  67.7594720  74.3201290  65.5094740
  53.8014770  58.0527780  70.7018910  53.4529590  58.5091600  71.4677090
  53.4702470  57.1584910  70.7841340  55.4079140  71.2247380  74.8672100
  55.3648770  70.8540290  75.7486560  55.5390150  72.1624950  75.0073920
  59.1085170  72.7806970  70.4681820  58.8676530  73.0481530  69.5812340
  60.0487810  72.9512700  70.5232680  61.3139590  59.2439660  74.2238330
  61.2528480  59.8361490  74.9733740  62.2539970  59.1365620  74.0788590
  63.9514150  58.9009720  73.8630620  64.5654560  59.2189010  73.2011700
  64.4963710  58.4158310  74.4826480  70.3689330  74.8001350  71.2692460
  69.8747610  75.1970220  70.5519590  69.7602620  74.1750560  71.6629740
  54.4735410  57.5803980  73.9769680  55.0218400  57.3992030  73.2135790
  54.5390720  56.7898090  74.5125990  55.2467170  74.1709630  71.9869880
  54.6527490  74.0394330  72.7259920  55.2391010  73.3347770  71.5211980
  64.6922190  57.4641860  70.1899910  63.8182030  57.7976970  69.9872840
  64.5832940  56.9915040  71.0151780  65.5994170  59.6712730  71.5741630
  65.2707530  58.8564490  71.1943360  66.5476470  59.6282540  71.4507320
  68.0528780  75.4424770  68.5479200  67.5931750  76.1940580  68.1737220
  67.4241240  74.7231240  68.4894000  54.8779400  71.5368010  70.9377920
  54.1513460  70.9173300  70.8703870  54.9388550  71.9308620  70.0676000
  58.4824500  73.7513010  67.7227330  58.9989520  73.1400370  67.1975590
  59.1321880  74.2541790  68.2138340  61.2220000  74.6421500  68.5496310
  61.5097810  74.3875800  67.6729320  61.7343220  74.0898860  69.1401880
  62.4397010  58.3811700  69.1292820  61.6568800  58.8557200  69.4089580
  62.1459940  57.4766530  69.0206000  66.9918080  59.0834800  67.1741910
  67.4326170  59.0279900  66.3263510  66.7225670  59.9992810  67.2452090
  68.8556650  58.7150040  65.1850730  68.7945050  57.7711260  65.0381750
  69.6348680  58.8230130  65.7304190  53.1609400  74.8542400  64.1474680
  52.9931440  74.2213080  64.8456570  52.2943910  75.0601800  63.7968870
  53.7837420  58.6859180  61.6506540  54.5416780  58.7988060  61.0770570
  53.3214590  59.5228380  61.6049970  60.3251230  60.7998450  64.6408850
  59.5125740  60.4255340  64.3004730  60.8292870  60.0443530  64.9430040
  64.8276210  57.4640900  65.8791920  65.4305580  58.0361110  66.3540440
  64.0869200  58.0280340  65.6565820  67.9710810  57.8662460  61.1532200
  68.1661440  58.7645910  61.4199630  67.1840680  57.6349540  61.6465150
  54.7672100  73.5475630  61.5924820  54.2419720  73.9283660  60.8886780
  54.6916680  74.1726400  62.3134530  56.1562570  59.2123230  60.1908510
  56.6855330  58.4253030  60.0616460  56.7890890  59.8914420  60.4244040
  58.3500410  58.9498370  63.2453900  57.7203150  58.2485680  63.4124030
  57.8105550  59.7102500  63.0287060  61.2892360  75.5637600  75.9164510
  62.2159670  75.3281870  75.9600470  61.2742790  76.3909600  75.4350540
  69.5237420  75.1063170  62.9138760  69.6989610  74.4200910  62.2699680
  68.8258990  75.6310220  62.5215430  58.4755970  58.2282350  75.6806390
  58.1940240  58.7315950  74.9167210  58.8575670  57.4304100  75.3148520
  57.3665070  75.4958010  60.4674070  58.0983890  75.2117290  59.9197960
  57.6258740  75.2571290  61.3573450  56.5279860  71.6122740  60.4720400
  55.8988740  72.0807840  61.0206230  56.6427690  70.7671960  60.9066590
  56.1313450  67.7527230  49.3806630  55.2998330  67.4975940  49.7803140
  56.7394430  67.8238000  50.1164550  56.1114710  71.7867320  49.5764650
  56.4142750  70.8965060  49.3974870  56.8558300  72.3437540  49.3486900
  56.8410620  58.9045550  52.7976000  56.8429060  59.4217940  51.9921900
  56.0114930  58.4275730  52.7745930  56.5225950  60.6155510  50.8046450
  56.8642760  61.4597560  50.5100320  55.5841760  60.7639250  50.9211790
  69.6734300  61.8040600  48.8335050  68.7259210  61.8379580  48.9650480
  69.9984290  62.6179550  49.2184410  60.2053840  58.1037780  47.1291040
  60.5128820  57.5484670  46.4126540  59.2754540  58.2382240  46.9464030
  62.9091970  71.9089790  45.3440400  63.3487880  72.6514120  44.9295790
  62.8478860  72.1516360  46.2679360  70.3357760  73.7162720  57.5424590
  70.8117480  74.1945610  58.2213670  70.9564920  73.6480210  56.8170090
  65.2788280  72.4046470  41.2601410  64.5853440  72.4023760  40.6003690
  66.0211140  71.9805790  40.8295580  52.5940760  69.8025640  52.4940640
  52.7571800  69.3331000  51.6760010  53.0593210  69.2949200  53.1589480
  61.6529340  61.7999920  53.1336530  61.1908710  62.0082940  53.9456470
  61.2507450  60.9859270  52.8307200  63.7483560  64.5210620  56.3631980
  64.0736970  63.6874370  56.0234210  64.5363890  65.0439140  56.5110310
  59.4035430  59.4778730  49.3890810  59.7007760  60.3841560  49.3082830
  59.9520990  58.9897510  48.7750380  54.7283500  61.3664220  54.0776510
  54.3346890  62.2139430  54.2849290  54.0401900  60.7290590  54.2685150
  61.3028550  61.4499190  57.1473250  60.6126870  61.2571390  57.7819340
  62.0460850  61.7333830  57.6797550  67.4688180  58.1563490  55.2336490
  67.7933950  57.4253150  55.7594470  67.5044690  57.8377130  54.3317480
  54.1679740  69.1777070  54.6536450  53.7834530  68.5370740  55.2519410
  54.4791930  69.8813190  55.2231180  54.1639980  65.9064990  53.6000640
  53.8054920  66.5718840  54.1873980  53.8694540  65.0748540  53.9713260
  67.2603250  71.0916770  40.0152410  67.0340830  70.3747210  40.6077050
  66.8699450  70.8429210  39.1774160  52.7388550  59.3958230  54.2772740
  52.0247070  59.5955150  54.8825350  53.1583590  58.6197800  54.6487540
  53.0261140  73.3838490  55.2639270  53.1352260  72.4433230  55.1234660
  52.3741700  73.6493240  54.6153000  62.0447500  72.5643070  40.2695730
  62.1459480  72.3607060  39.3397710  61.1449240  72.3101350  40.4743510
  60.6865610  75.0829390  44.9643400  60.9407110  75.0450780  44.0422770
  59.7378090  74.9562720  44.9571650  56.1661300  75.2661330  47.8873300
  56.9023780  74.7176790  48.1581870  56.5502220  76.1317340  47.7479290
  55.1719580  74.4507400  57.0758880  55.9732310  74.7719450  57.4894280
  54.6571400  74.0902980  57.7978790  59.2763610  74.4391640  39.7098870
  60.0692220  74.7280470  39.2580660  58.7567960  74.0083810  39.0311350
  64.0084210  70.5587270  57.0234290  63.4022370  70.5818870  56.2830040
  63.7038320  69.8270310  57.5601540  65.4384580  74.2867560  55.6343700
  66.3906330  74.2025580  55.5843940  65.2912800  74.9509270  56.3077490
  52.8917390  66.9380860  56.0194930  53.3956410  66.3588140  56.5911160
  52.1524810  67.2221090  56.5571300  54.9240470  65.0810450  56.9145000
  54.9645810  64.7824320  57.8230230  55.7785970  65.4818060  56.7552520
  56.8646280  63.6602550  54.8819490  56.3342740  63.1693500  54.2542830
  57.5334350  64.0886750  54.3477420  57.3518580  60.6264920  54.9616780
  57.2575450  60.0085670  54.2367650  56.7715970  61.3531210  54.7346690
  60.1180020  59.1838160  51.9944170  59.6697320  59.2062420  51.1489720
  59.4845220  58.7857180  52.5914470  59.6272240  62.3530020  55.2570270
  60.2171930  62.0445870  55.9448090  58.8092480  61.8809770  55.4130170
  64.4465670  61.9695830  55.4903290  63.7581190  61.3077370  55.4253280
  65.1671690  61.5234100  55.9351750  61.7794530  74.7855220  41.6127350
  62.6745320  75.1240190  41.6346110  61.8112160  74.0634630  40.9851630
  52.6336490  72.9471300  47.2934610  52.9639500  72.0792360  47.0613250
  53.0627490  73.1529820  48.1239570  53.1226700  73.8141890  50.0316240
  52.6857690  73.9942690  50.8640390  53.6904380  74.5716510  49.8897960
  69.9990330  71.0576710  39.6563260  69.1683290  71.1253360  40.1270490
  70.1762160  71.9480830  39.3530120  69.4031300  66.0327550  44.3099410
  69.0274900  65.2655480  43.8780700  68.6734420  66.4150250  44.7974340
  53.5443060  63.6223780  54.8366880  52.6499110  63.5890540  55.1760590
  54.0840610  63.8210570  55.6018130  69.5969390  62.1519340  46.0836740
  69.4868670  61.9975380  47.0219010  70.3576980  61.6240280  45.8412150
  53.8014770  58.0527780  51.9275420  53.4529590  58.5091600  52.6933600
  53.4702470  57.1584910  52.0097850  55.4079140  71.2247380  56.0928610
  55.3648770  70.8540290  56.9743070  55.5390150  72.1624950  56.2330430
  61.3139590  59.2439660  55.4494840  61.2528480  59.8361490  56.1990250
  62.2539970  59.1365620  55.3045100  63.9514150  58.9009720  55.0887130
  64.5654560  59.2189010  54.4268210  64.4963710  58.4158310  55.7082990
  70.3689330  74.8001350  52.4948970  69.8747610  75.1970220  51.7776100
  69.7602620  74.1750560  52.8886250  54.4735410  57.5803980  55.2026190
  55.0218400  57.3992030  54.4392300  54.5390720  56.7898090  55.7382500
  55.2467170  74.1709630  53.2126390  54.6527490  74.0394330  53.9516430
  55.2391010  73.3347770  52.7468490  54.8779400  71.5368010  52.1634430
  54.1513460  70.9173300  52.0960380  54.9388550  71.9308620  51.2932510
  61.2892360  75.5637600  57.1421020  62.2159670  75.3281870  57.1856980
  61.2742790  76.3909600  56.6607050  58.4755970  58.2282350  56.9062900
  58.1940240  58.7315950  56.1423720  58.8575670  57.4304100  56.5405030
  65.0771430  57.6435930  57.4843370  64.9636880  57.9630540  58.3794890
  65.8941170  58.0448440  57.1880650  67.8569920  74.7907460  56.9662060
  68.6495240  74.2956690  56.7588020  68.1503070  75.4697600  57.5737670
  63.9829580  65.6628400  27.8478110  63.9023630  64.7483010  27.5769820
  63.5694000  66.1595470  27.1417820  66.1355050  71.8467610  28.5086510
  65.6736580  71.0754850  28.8373680  66.9480600  71.8733680  29.0138960
  56.1114710  71.7867320  30.8021160  56.4142750  70.8965060  30.6231380
  56.8558300  72.3437540  30.5743410  54.5405400  62.7129120  24.3905530
  53.6522100  63.0545090  24.2885410  54.8246590  62.5129440  23.4986360
  62.3618360  74.1325620  28.1290500  61.7429800  74.5883120  27.5584940
  63.2170140  74.2877080  27.7280200  61.5556610  70.1164610  29.7357540
  61.4864890  69.1754550  29.5746670  62.3176470  70.2066020  30.3080110
  56.7166790  61.2960620  25.4243910  56.8233540  62.1964350  25.7312670
  55.8059150  61.2478590  25.1338560  70.6585450  62.4352180  33.4598440
  69.9537620  62.8233890  32.9413550  70.9243370  63.1302470  34.0619370
  63.2281710  69.0164860  25.5222410  62.6098980  69.4814310  24.9585130
  63.7404960  69.7092340  25.9391920  57.3032570  70.5121530  34.0155190
  57.9206570  71.1872610  33.7339640  56.4425690  70.9209510  33.9242690
  52.5964910  69.7021390  22.8962040  52.2192890  70.1908490  22.1646940
  52.8537980  70.3746670  23.5268570  68.2210160  71.9760940  31.9309830
  67.5373680  72.6460050  31.9226500  68.7604450  72.1741590  31.1654690
  65.7568900  73.8205070  30.6455010  65.7696060  73.4167360  29.7777270
  65.2044120  74.5952360  30.5416440  67.0514320  70.5421290  25.7345180
  66.9410650  69.5995620  25.8594600  67.0482570  70.9036930  26.6207940
  65.1554340  68.7234910  31.9737620  65.5723130  68.5095020  31.1391080
  65.8794160  68.9807700  32.5446240  62.5934600  66.1686610  25.0907670
  61.6663880  66.1023990  25.3196140  62.7459420  67.1066740  24.9762910
  62.5803680  62.4403610  22.0874830  61.6407350  62.6017570  22.1727290
  62.8986940  63.1589290  21.5410820  69.1016440  67.1222130  32.0653860
  68.2735070  67.1915220  31.5903990  69.6966920  67.7076440  31.5969690
  66.6231890  67.7306910  25.5942920  66.0044310  67.3926460  24.9469220
  66.6056340  67.0866670  26.3022110  58.6672940  70.3818910  30.0366610
  58.3701230  69.7764380  29.3574390  59.6172760  70.4196220  29.9255970
  66.7558550  73.9550780  33.6989710  66.2789110  74.7622970  33.5062320
  66.0720340  73.3029110  33.8515920  57.7591370  70.1200600  36.6874410
  56.8619900  70.3440570  36.9347810  57.7844240  70.2435540  35.7385810
  64.7996590  66.9693720  22.6015670  65.2389870  66.1316150  22.4553490
  65.5125010  67.6023120  22.6879810  62.9091970  71.9089790  26.5696910
  63.3487880  72.6514120  26.1552300  62.8478860  72.1516360  27.4935870
  58.3842940  72.9335620  37.4716930  58.3558370  73.3378570  36.6045360
  58.2207910  72.0045980  37.3088530  54.8995870  65.5896330  25.3734050
  54.7793470  66.3158420  24.7615320  54.5896760  64.8199240  24.8961960
  70.3357760  73.7162720  38.7681100  70.8117480  74.1945610  39.4470180
  70.9564920  73.6480210  38.0426600  52.5381240  68.7611470  31.1802690
  52.6161660  68.8960240  30.2358410  53.1522920  68.0527360  31.3730810
  53.7828870  70.4611660  27.5908870  53.3756950  70.6026250  26.7362470
  54.6741880  70.1771820  27.3880080  69.7391010  70.9075570  35.9281110
  69.8654070  70.6687450  35.0098290  69.7812390  70.0760110  36.4003190
  63.6007750  74.6103570  34.4975920  64.1152420  74.5211580  35.2998350
  62.7576830  74.9563270  34.7903830  65.5762150  74.8958910  23.9259920
  65.4163290  74.6061850  24.8241750  65.4108860  74.1199040  23.3905150
  58.0550530  74.6757440  25.7031540  57.8793010  73.7592980  25.4899340
  57.2006270  75.0344730  25.9429340  65.2788280  72.4046470  22.4857920
  64.5853440  72.4023760  21.8260200  66.0211140  71.9805790  22.0552090
  64.8438210  74.0309180  26.5606410  65.2995160  73.2498560  26.8745030
  65.1830730  74.7416000  27.1047590  69.5915020  62.9608030  36.8930850
  68.9759290  63.4687700  36.3646310  69.2711440  62.0606360  36.8356790
  52.5940760  69.8025640  33.7197150  52.7571800  69.3331000  32.9016520
  53.0593210  69.2949200  34.3845990  64.3871510  64.0628340  25.0829620
  63.7880400  64.7864140  24.8993240  64.9351120  64.0005120  24.3006070
  62.9936380  62.6991880  27.1132900  63.3865950  63.0164080  26.3001590
  63.3553230  61.8203760  27.2277420  52.2170780  63.2312800  20.5465820
  52.1345450  64.1743560  20.6880810  51.8653840  63.0887710  19.6678170
  60.0789060  62.9663910  22.6042930  60.2001880  62.9250390  23.5528750
  59.6937570  63.8288060  22.4489660  59.0910560  65.2765050  22.0026230
  58.5227460  64.8283300  21.3762140  59.7999560  65.6357830  21.4691380
  67.4688180  58.1563490  36.4593000  67.7933950  57.4253150  36.9850980
  67.5044690  57.8377130  35.5573990  56.6358040  69.2723240  24.2752640
  55.8620300  68.7320860  24.1151360  57.3652670  68.7529850  23.9370400
  67.3946020  68.2688600  30.0679030  68.1145140  68.7643890  29.6775140
  67.1927840  67.5906490  29.4232900  62.7764820  68.3397660  35.9548030
  62.7102130  67.4193330  35.7005620  62.1469960  68.4373100  36.6692670
  65.5704350  64.0346210  22.5070580  66.4583970  64.3463440  22.3321920
  65.5409440  63.1618460  22.1151160  61.5664940  70.2069900  23.1858750
  61.9080640  70.9512130  22.6902070  60.7377650  70.5201020  23.5483580
  62.7081550  71.1618230  35.7051830  62.7226090  70.2299190  35.4870740
  62.0006650  71.2477990  36.3441600  67.8418620  65.3458050  21.9750440
  67.7582340  65.7772270  21.1246880  68.5612810  65.8056400  22.4077260
  68.9192760  67.8025570  35.0520410  68.1940950  68.3954350  34.8549800
  69.4468220  67.7949110  34.2533780  68.8705870  72.2000310  24.7032570
  68.2282030  71.5455930  24.9776290  68.4836530  72.6055400  23.9273240
  64.4492350  69.5285740  28.5504260  64.8016170  68.9313870  27.8905630
  63.5654680  69.2029970  28.7212510  60.5355630  70.2883430  25.9574670
  61.2226760  70.8352640  26.3382260  59.7488050  70.8324160  25.9924280
  52.6748030  65.9056250  21.4491750  53.5442880  66.1881050  21.7327670
  52.1838350  66.7192120  21.3340560  62.1415450  72.8035800  32.7992330
  62.7857670  73.0095180  33.4765750  62.5044890  72.0424200  32.3463180
  63.4147530  70.8068150  31.5169780  64.0569760  70.1061310  31.6301950
  63.9396880  71.5866590  31.3366670  67.2603250  71.0916770  21.2408920
  67.0340830  70.3747210  21.8333560  66.8699450  70.8429210  20.4030670
  65.1885150  71.6063050  34.7205840  65.5241390  72.1929740  35.3983760
  64.2685490  71.4755760  34.9503630  53.0419280  75.1183630  22.0153380
  53.4016920  75.7172970  21.3610650  52.9011620  75.6643520  22.7888410
  66.8419500  69.0088710  22.9023080  66.5541200  69.4701400  23.6900960
  67.6371670  68.5486480  23.1707300  53.0261140  73.3838490  36.4895780
  53.1352260  72.4433230  36.3491170  52.3741700  73.6493240  35.8409510
  61.0173730  71.6554380  37.8893900  60.6970600  70.9363620  38.4339590
  60.3432090  72.3309450  37.9629960  59.0587900  72.5014830  22.8327050
  59.0498000  73.2344520  22.2171560  58.1386260  72.2546410  22.9254010
  54.6594540  67.7229720  23.5773810  54.0522490  68.4628620  23.5869110
  55.1343890  67.8129080  22.7512010  62.0447500  72.5643070  21.4952240
  62.1459480  72.3607060  20.5654220  61.1449240  72.3101350  21.7000020
  60.6865610  75.0829390  26.1899910  60.9407110  75.0450780  25.2679280
  59.7378090  74.9562720  26.1828160  57.7708410  61.4308510  22.8526850
  58.6198940  61.8678660  22.7867040  57.4039680  61.7428770  23.6798910
  66.6918190  66.0021270  27.7658420  65.7508330  66.0171500  27.9406110
  67.0062260  65.2157230  28.2118720  56.6699830  67.6840870  21.3262380
  57.4363100  67.5722230  21.8887810  56.7474520  66.9878840  20.6739150
  55.3646590  65.1165940  22.0095270  55.4450180  64.1693450  22.1212670
  56.2566340  65.4472820  22.1155930  68.6943770  73.1730120  29.4412680
  68.8191190  73.9961290  29.9136490  69.5609330  72.9620850  29.0936830
  56.1661300  75.2661330  29.1129810  56.9023780  74.7176790  29.3838380
  56.5502220  76.1317340  28.9735800  53.0506780  71.3334900  24.9871320
  52.1246560  71.5756040  24.9776730  53.5163210  72.1609160  24.8656070
  55.1719580  74.4507400  38.3015390  55.9732310  74.7719450  38.7150790
  54.6571400  74.0902980  39.0235300  59.2763610  74.4391640  20.9355380
  60.0692220  74.7280470  20.4837170  58.7567960  74.0083810  20.2567860
  65.4384580  74.2867560  36.8600210  66.3906330  74.2025580  36.8100450
  65.2912800  74.9509270  37.5334000  68.3293780  73.6661770  22.3592120
  68.0435290  73.2526910  21.5446300  68.1313330  74.5949480  22.2392640
  59.7941010  69.6595050  20.7997730  59.6891650  69.0447400  21.5259110
  59.6265230  69.1360940  20.0160740  59.9455330  68.3451850  36.7786960
  59.1801000  68.9136850  36.6941630  60.1271290  68.0528060  35.8855190
  63.0343740  68.7215080  21.4039720  62.4853840  69.1684380  22.0482460
  63.6563000  68.2164330  21.9277390  58.7018860  67.6806000  23.3005020
  59.1235280  67.5145870  24.1436410  58.8269700  66.8706230  22.8060160
  61.2146500  66.7043610  20.5482120  61.7352160  65.9892630  20.1823270
  61.8614900  67.3429480  20.8482630  62.8603470  65.8108670  35.2250960
  62.9799680  65.2149810  35.9645800  63.7197470  65.8478360  34.8052260
  65.1991370  66.3645860  33.8013470  64.6726590  66.8888480  33.1978610
  65.5422710  66.9973250  34.4323200  57.5977760  63.7539230  20.2463180
  57.3966820  62.8906590  20.6076520  57.4269810  63.6672590  19.3084780
  58.3746990  74.3845500  34.9570850  57.8368080  75.1091560  34.6379550
  58.6280950  73.9075840  34.1668190  56.3960560  60.8539850  20.2341060
  56.6986460  60.8607280  19.3260210  57.1355150  60.5037710  20.7308720
  61.2309200  75.6196710  35.2157500  61.1567900  76.5231850  35.5229870
  60.3288040  75.3008610  35.1879570  59.6145490  59.7974470  21.2197260
  59.2667490  59.1198460  20.6399710  59.8158260  59.3363980  22.0340650
  61.7794530  74.7855220  22.8383860  62.6745320  75.1240190  22.8602620
  61.8112160  74.0634630  22.2108140  55.4190690  70.1582270  21.0670860
  55.8565560  70.7011940  21.7228440  55.9038420  69.3329220  21.0767200
  52.6336490  72.9471300  28.5191120  52.9639500  72.0792360  28.2869760
  53.0627490  73.1529820  29.3496080  57.2298410  71.2780310  26.1793090
  56.9293950  71.1545280  27.0797000  57.1235900  70.4188900  25.7708820
  53.1226700  73.8141890  31.2572750  52.6857690  73.9942690  32.0896900
  53.6904380  74.5716510  31.1154470  68.7588880  73.3158890  35.5450060
  68.1590870  73.3751450  34.8013980  68.8882780  72.3763870  35.6746910
  69.9990330  71.0576710  20.8819770  69.1683290  71.1253360  21.3527000
  70.1762160  71.9480830  20.5786630  69.4546790  67.8024190  23.3853970
  70.2165700  68.3720840  23.4913660  69.4701160  67.2351390  24.1562280
  52.9551130  66.3262120  27.6161630  52.2999970  66.0573760  26.9721330
  53.7929080  66.2166600  27.1663610  70.4606760  68.6574290  28.2295900
  70.8315590  67.8741610  27.8231870  71.1008690  69.3463390  28.0513200
  67.4440520  70.0410870  33.6426220  66.6300360  70.4708030  33.9052010
  67.8514720  70.6529280  33.0295270  69.5065960  68.0958560  20.5426490
  69.7814800  69.0037440  20.4145710  69.3176700  68.0321090  21.4788480
  69.4031300  66.0327550  25.5355920  69.0274900  65.2655480  25.1037210
  68.6734420  66.4150250  26.0230850  68.7930920  65.1799070  35.1695440
  68.5617010  64.9511820  34.2693390  69.0535470  66.0998620  35.1240330
  52.1689210  63.5361050  23.5586960  51.2653290  63.7991250  23.3838620
  52.6529830  63.8072220  22.7786920  54.7116420  62.5926590  21.4681340
  55.4208120  62.1709810  20.9828620  53.9956360  62.6601820  20.8364690
  54.3590580  58.6465920  20.5083990  55.0818710  59.1874860  20.8265210
  54.6315100  58.3729340  19.6325530  70.4859660  59.9827260  20.5499390
  71.4108970  59.8508440  20.3417680  70.4635450  60.0620080  21.5035840
  70.5598150  60.7537920  23.1756100  69.7649650  60.6883040  23.7049010
  70.7641430  61.6888560  23.1641450  67.5016570  74.7929470  27.1694490
  68.0975640  74.4714040  26.4928910  67.7594720  74.3201290  27.9607760
  55.4079140  71.2247380  37.3185120  55.3648770  70.8540290  38.1999580
  55.5390150  72.1624950  37.4586940  59.1085170  72.7806970  32.9194840
  58.8676530  73.0481530  32.0325360  60.0487810  72.9512700  32.9745700
  61.3139590  59.2439660  36.6751350  61.2528480  59.8361490  37.4246760
  62.2539970  59.1365620  36.5301610  70.3689330  74.8001350  33.7205480
  69.8747610  75.1970220  33.0032610  69.7602620  74.1750560  34.1142760
  55.2467170  74.1709630  34.4382900  54.6527490  74.0394330  35.1772940
  55.2391010  73.3347770  33.9725000  68.0528780  75.4424770  30.9992220
  67.5931750  76.1940580  30.6250240  67.4241240  74.7231240  30.9407020
  54.8779400  71.5368010  33.3890940  54.1513460  70.9173300  33.3216890
  54.9388550  71.9308620  32.5189020  58.4824500  73.7513010  30.1740350
  58.9989520  73.1400370  29.6488610  59.1321880  74.2541790  30.6651360
  61.2220000  74.6421500  31.0009330  61.5097810  74.3875800  30.1242340
  61.7343220  74.0898860  31.5914900  53.1609400  74.8542400  26.5987700
  52.9931440  74.2213080  27.2969590  52.2943910  75.0601800  26.2481890
  53.7837420  58.6859180  24.1019560  54.5416780  58.7988060  23.5283590
  53.3214590  59.5228380  24.0562990  54.7672100  73.5475630  24.0437840
  54.2419720  73.9283660  23.3399800  54.6916680  74.1726400  24.7647550
  56.1562570  59.2123230  22.6421530  56.6855330  58.4253030  22.5129480
  56.7890890  59.8914420  22.8757060  58.3500410  58.9498370  25.6966920
  57.7203150  58.2485680  25.8637050  57.8105550  59.7102500  25.4800080
  61.2892360  75.5637600  38.3677530  62.2159670  75.3281870  38.4113490
  61.2742790  76.3909600  37.8863560  69.5237420  75.1063170  25.3651780
  69.6989610  74.4200910  24.7212700  68.8258990  75.6310220  24.9728450
  57.3665070  75.4958010  22.9187090  58.0983890  75.2117290  22.3710980
  57.6258740  75.2571290  23.8086470  56.5279860  71.6122740  22.9233420
  55.8988740  72.0807840  23.4719250  56.6427690  70.7671960  23.3579610
  67.8569920  74.7907460  38.1918570  68.6495240  74.2956690  37.9844530
  68.1503070  75.4697600  38.7994180  63.9829580  65.6628400   9.0734620
  63.9023630  64.7483010   8.8026330  63.5694000  66.1595470   8.3674330
  62.1147620  67.4407420  10.9543890  61.3389720  66.9607860  11.2442460
  62.7660550  66.7613070  10.7800050  56.1313450  67.7527230  11.8319650
  55.2998330  67.4975940  12.2316160  56.7394430  67.8238000  12.5677570
  66.1355050  71.8467610   9.7343020  65.6736580  71.0754850  10.0630190
  66.9480600  71.8733680  10.2395470  56.1114710  71.7867320  12.0277670
  56.4142750  70.8965060  11.8487890  56.8558300  72.3437540  11.7999920
  54.5405400  62.7129120   5.6162040  53.6522100  63.0545090   5.5141920
  54.8246590  62.5129440   4.7242870  52.5038410  65.3134770  11.5001740
  53.0754520  64.5456970  11.5005380  52.5039950  65.6123530  10.5908350
  62.3618360  74.1325620   9.3547010  61.7429800  74.5883120   8.7841450
  63.2170140  74.2877080   8.9536710  61.5556610  70.1164610  10.9614050
  61.4864890  69.1754550  10.8003180  62.3176470  70.2066020  11.5336620
  53.7463280  60.7219130  13.2870670  53.5666120  59.8244880  13.5673430
  53.3443360  61.2691000  13.9617620  62.5861780  62.9234990  11.1882980
  62.9626600  62.0506870  11.0756650  62.4881290  63.2593690  10.2973420
  56.7166790  61.2960620   6.6500420  56.8233540  62.1964350   6.9569180
  55.8059150  61.2478590   6.3595070  66.3685900  60.4185430   8.1211320
  67.1895520  59.9282000   8.1636800  66.4019980  61.0083090   8.8743160
  54.3649950  63.2179630  11.8953010  55.0460060  63.4818000  12.5140410
  54.0498000  62.3780500  12.2291020  58.5574520  64.2646990  10.9825600
  59.0652740  64.7627960  11.6230620  59.0887760  63.4882190  10.8064960
  70.6585450  62.4352180  14.6854950  69.9537620  62.8233890  14.1670060
  70.9243370  63.1302470  15.2875880  56.8410620  58.9045550  15.2489020
  56.8429060  59.4217940  14.4434920  56.0114930  58.4275730  15.2258950
  63.2281710  69.0164860   6.7478920  62.6098980  69.4814310   6.1841640
  63.7404960  69.7092340   7.1648430  58.0913470  68.5440730  13.4262520
  57.7582850  69.1709650  14.0683590  58.2680150  69.0702610  12.6464190
  66.6047380  62.3585810  10.8938860  65.9002950  62.6470700  11.4741970
  66.9659540  63.1685920  10.5338420  56.5225950  60.6155510  13.2559470
  56.8642760  61.4597560  12.9613340  55.5841760  60.7639250  13.3724810
  57.3032570  70.5121530  15.2411700  57.9206570  71.1872610  14.9596150
  56.4425690  70.9209510  15.1499200  52.5964910  69.7021390   4.1218550
  52.2192890  70.1908490   3.3903450  52.8537980  70.3746670   4.7525080
  68.2210160  71.9760940  13.1566340  67.5373680  72.6460050  13.1483010
  68.7604450  72.1741590  12.3911200  69.6734300  61.8040600  11.2848070
  68.7259210  61.8379580  11.4163500  69.9984290  62.6179550  11.6697430
  60.2053840  58.1037780   9.5804060  60.5128820  57.5484670   8.8639560
  59.2754540  58.2382240   9.3977050  65.7568900  73.8205070  11.8711520
  65.7696060  73.4167360  11.0033780  65.2044120  74.5952360  11.7672950
  67.0514320  70.5421290   6.9601690  66.9410650  69.5995620   7.0851110
  67.0482570  70.9036930   7.8464450  65.1554340  68.7234910  13.1994130
  65.5723130  68.5095020  12.3647590  65.8794160  68.9807700  13.7702750
  62.5934600  66.1686610   6.3164180  61.6663880  66.1023990   6.5452650
  62.7459420  67.1066740   6.2019420  62.5803680  62.4403610   3.3131340
  61.6407350  62.6017570   3.3983800  62.8986940  63.1589290   2.7667330
  69.1016440  67.1222130  13.2910370  68.2735070  67.1915220  12.8160500
  69.6966920  67.7076440  12.8226200  66.6231890  67.7306910   6.8199430
  66.0044310  67.3926460   6.1725730  66.6056340  67.0866670   7.5278620
  66.0658450  63.9091450  14.2365240  65.6529630  64.7345160  14.4905230
  65.3334400  63.3236490  14.0441600  58.1991240  66.6951350   9.0983910
  57.7948240  65.9828600   8.6029810  58.2854360  66.3504590   9.9871950
  58.6672940  70.3818910  11.2623120  58.3701230  69.7764380  10.5830900
  59.6172760  70.4196220  11.1512480  56.9119860  63.4694560  12.8782950
  57.4634450  63.5789900  12.1036200  57.4263370  63.8432160  13.5938180
  66.7558550  73.9550780  14.9246220  66.2789110  74.7622970  14.7318830
  66.0720340  73.3029110  15.0772430  57.7591370  70.1200600  17.9130920
  56.8619900  70.3440570  18.1604320  57.7844240  70.2435540  16.9642320
  64.7996590  66.9693720   3.8272180  65.2389870  66.1316150   3.6810000
  65.5125010  67.6023120   3.9136320  56.5862590  66.9913920  16.4888290
  56.4470360  67.8636720  16.8575690  55.7043950  66.6486730  16.3436230
  62.9091970  71.9089790   7.7953420  63.3487880  72.6514120   7.3808810
  62.8478860  72.1516360   8.7192380  58.3842940  72.9335620  18.6973440
  58.3558370  73.3378570  17.8301870  58.2207910  72.0045980  18.5345040
  68.3813730  58.2236530   2.1413220  68.0686390  58.3163360   3.0412290
  69.1426200  58.8017560   2.0910650  54.8995870  65.5896330   6.5990560
  54.7793470  66.3158420   5.9871830  54.5896760  64.8199240   6.1218470
  70.3357760  73.7162720  19.9937610  70.8117480  74.1945610  20.6726690
  70.9564920  73.6480210  19.2683110  52.5381240  68.7611470  12.4059200
  52.6161660  68.8960240  11.4614920  53.1522920  68.0527360  12.5987320
  53.7828870  70.4611660   8.8165380  53.3756950  70.6026250   7.9618980
  54.6741880  70.1771820   8.6136590  69.7391010  70.9075570  17.1537620
  69.8654070  70.6687450  16.2354800  69.7812390  70.0760110  17.6259700
  63.6007750  74.6103570  15.7232430  64.1152420  74.5211580  16.5254860
  62.7576830  74.9563270  16.0160340  65.5762150  74.8958910   5.1516430
  65.4163290  74.6061850   6.0498260  65.4108860  74.1199040   4.6161660
  58.0550530  74.6757440   6.9288050  57.8793010  73.7592980   6.7155850
  57.2006270  75.0344730   7.1685850  65.2788280  72.4046470   3.7114430
  64.5853440  72.4023760   3.0516710  66.0211140  71.9805790   3.2808600
  64.8438210  74.0309180   7.7862920  65.2995160  73.2498560   8.1001540
  65.1830730  74.7416000   8.3304100  69.5915020  62.9608030  18.1187360
  68.9759290  63.4687700  17.5902820  69.2711440  62.0606360  18.0613300
  52.5940760  69.8025640  14.9453660  52.7571800  69.3331000  14.1273030
  53.0593210  69.2949200  15.6102500  57.3659530  58.9331400   9.9814230
  56.9227680  59.7140940   9.6498750  57.9244520  59.2561290  10.6885170
  61.6529340  61.7999920  15.5849550  61.1908710  62.0082940  16.3969490
  61.2507450  60.9859270  15.2820220  66.6533850  63.0208870  16.7146210
  65.8027440  62.7214620  17.0355280  66.4935640  63.2650880  15.8030030
  63.7483560  64.5210620  18.8145000  64.0736970  63.6874370  18.4747230
  64.5363890  65.0439140  18.9623330  60.4818350  58.5542100   4.8620060
  59.8572530  58.5501970   5.5873370  60.3948470  57.6873060   4.4656030
  59.4035430  59.4778730  11.8403830  59.7007760  60.3841560  11.7595850
  59.9520990  58.9897510  11.2263400  57.1573750  64.0564970   7.7095480
  56.9314670  63.8402140   8.6142100  56.3766280  64.4893430   7.3641450
  64.3871510  64.0628340   6.3086130  63.7880400  64.7864140   6.1249750
  64.9351120  64.0005120   5.5262580  59.5972960  64.9550550  18.3755750
  59.5016560  64.0145280  18.2256150  60.4404940  65.1765620  17.9803820
  62.9936380  62.6991880   8.3389410  63.3865950  63.0164080   7.5258100
  63.3553230  61.8203760   8.4533930  54.7283500  61.3664220  16.5289530
  54.3346890  62.2139430  16.7362310  54.0401900  60.7290590  16.7198170
  61.3028550  61.4499190  19.5986270  60.6126870  61.2571390  20.2332360
  62.0460850  61.7333830  20.1310570  52.0300550  59.2892680  10.5619610
  51.7413600  59.8595540  11.2744590  52.7746310  58.8097130  10.9250840
  63.5791520  65.2897630  12.4340190  62.8472640  65.7984440  12.7830290
  63.1815860  64.4727610  12.1328970  60.0168910  61.9651830  10.8392680
  60.0204970  61.5241780   9.9897220  60.9120030  62.2869160  10.9464500
  55.8671290  61.8478320   9.7986890  55.5271340  62.3253550  10.5553940
  55.1048610  61.3943440   9.4387990  60.0789060  62.9663910   3.8299440
  60.2001880  62.9250390   4.7785260  59.6937570  63.8288060   3.6746170
  64.0417430  60.7431310  11.8463130  64.0590170  61.1939960  12.6904980
  63.7933010  59.8436950  12.0596570  59.0910560  65.2765050   3.2282740
  58.5227460  64.8283300   2.6018650  59.7999560  65.6357830   2.6947890
  67.4688180  58.1563490  17.6849510  67.7933950  57.4253150  18.2107490
  67.5044690  57.8377130  16.7830500  54.1679740  69.1777070  17.1049470
  53.7834530  68.5370740  17.7032430  54.4791930  69.8813190  17.6744200
  60.3176880  66.0253610  12.5858090  60.6847010  65.5512180  13.3319430
  60.1281940  66.8995180  12.9266430  53.1817370  60.7697300   8.7151560
  52.8964290  60.4052970   9.5530180  53.1196230  60.0377760   8.1014700
  58.1076250  65.0662250  14.9042300  57.8033320  65.9454230  15.1292660
  59.0622710  65.1262040  14.9399740  56.6358040  69.2723240   5.5009150
  55.8620300  68.7320860   5.3407870  57.3652670  68.7529850   5.1626910
  67.3946020  68.2688600  11.2935540  68.1145140  68.7643890  10.9031650
  67.1927840  67.5906490  10.6489410  62.8555960  59.6626560   5.4364930
  62.0420570  59.1639730   5.3610240  62.6617910  60.5024810   5.0201280
  62.7764820  68.3397660  17.1804540  62.7102130  67.4193330  16.9262130
  62.1469960  68.4373100  17.8949180  65.5704350  64.0346210   3.7327090
  66.4583970  64.3463440   3.5578430  65.5409440  63.1618460   3.3407670
  56.6795440  68.9403620   9.1387960  57.1974110  68.1371880   9.0844850
  56.2279460  68.8782760   9.9804790  61.5664940  70.2069900   4.4115260
  61.9080640  70.9512130   3.9158580  60.7377650  70.5201020   4.7740090
  54.1639980  65.9064990  16.0513660  53.8054920  66.5718840  16.6387000
  53.8694540  65.0748540  16.4226280  57.3653100  66.3649230  18.9353210
  57.0653240  66.5106410  18.0381030  58.1364340  65.8054520  18.8426600
  62.7081550  71.1618230  16.9308340  62.7226090  70.2299190  16.7127250
  62.0006650  71.2477990  17.5698110  67.8418620  65.3458050   3.2006950
  67.7582340  65.7772270   2.3503390  68.5612810  65.8056400   3.6333770
  68.9192760  67.8025570  16.2776920  68.1940950  68.3954350  16.0806310
  69.4468220  67.7949110  15.4790290  68.8705870  72.2000310   5.9289080
  68.2282030  71.5455930   6.2032800  68.4836530  72.6055400   5.1529750
  64.4492350  69.5285740   9.7760770  64.8016170  68.9313870   9.1162140
  63.5654680  69.2029970   9.9469020  60.5355630  70.2883430   7.1831180
  61.2226760  70.8352640   7.5638770  59.7488050  70.8324160   7.2180790
  52.6748030  65.9056250   2.6748260  53.5442880  66.1881050   2.9584180
  52.1838350  66.7192120   2.5597070  59.8382840  67.2929460   6.7956540
  60.2945620  68.1034710   7.0216730  59.4871050  66.9752600   7.6275030
  62.1415450  72.8035800  14.0248840  62.7857670  73.0095180  14.7022260
  62.5044890  72.0424200  13.5719690  55.7394620  57.6367110   7.2679060
  55.6109250  57.6285010   8.2163980  54.9156640  57.9750200   6.9170070
  63.4147530  70.8068150  12.7426290  64.0569760  70.1061310  12.8558460
  63.9396880  71.5866590  12.5623180  67.2603250  71.0916770   2.4665430
  67.0340830  70.3747210   3.0590070  66.8699450  70.8429210   1.6287180
  65.1885150  71.6063050  15.9462350  65.5241390  72.1929740  16.6240270
  64.2685490  71.4755760  16.1760140  53.0419280  75.1183630   3.2409890
  53.4016920  75.7172970   2.5867160  52.9011620  75.6643520   4.0144920
  52.7388550  59.3958230  16.7285760  52.0247070  59.5955150  17.3338370
  53.1583590  58.6197800  17.1000560  66.8419500  69.0088710   4.1279590
  66.5541200  69.4701400   4.9157470  67.6371670  68.5486480   4.3963810
  53.0261140  73.3838490  17.7152290  53.1352260  72.4433230  17.5747680
  52.3741700  73.6493240  17.0666020  61.0173730  71.6554380  19.1150410
  60.6970600  70.9363620  19.6596100  60.3432090  72.3309450  19.1886470
  59.0587900  72.5014830   4.0583560  59.0498000  73.2344520   3.4428070
  58.1386260  72.2546410   4.1510520  54.6594540  67.7229720   4.8030320
  54.0522490  68.4628620   4.8125620  55.1343890  67.8129080   3.9768520
  64.2327330  61.8880540  14.4787210  64.6008150  61.0675750  14.8066780
  63.3725530  61.9482430  14.8942860  67.5989360  60.8437480   5.2874770
  66.9702520  60.9483150   4.5733000  67.1041280  61.0634260   6.0768650
  62.0447500  72.5643070   2.7208750  62.1459480  72.3607060   1.7910730
  61.1449240  72.3101350   2.9256530  59.5673390  63.1223430   6.7032650
  58.8589540  63.5909770   7.1446260  59.8517870  62.4645440   7.3377840
  61.1929320  64.5420130  14.7025180  61.6914570  65.0165950  15.3677030
  61.3352270  63.6183650  14.9095210  63.5988820  59.8474090   8.1428440
  63.4756600  59.8660220   7.1937950  64.5473380  59.8953030   8.2626840
  60.6865610  75.0829390   7.4156420  60.9407110  75.0450780   6.4935790
  59.7378090  74.9562720   7.4084670  57.7708410  61.4308510   4.0783360
  58.6198940  61.8678660   4.0123550  57.4039680  61.7428770   4.9055420
  68.3996180  60.7588090  15.5453570  67.8969780  61.4993490  15.8847380
  69.2152840  61.1472090  15.2290360  66.6918190  66.0021270   8.9914930
  65.7508330  66.0171500   9.1662620  67.0062260  65.2157230   9.4375230
  56.6699830  67.6840870   2.5518890  57.4363100  67.5722230   3.1144320
  56.7474520  66.9878840   1.8995660  55.3646590  65.1165940   3.2351780
  55.4450180  64.1693450   3.3469180  56.2566340  65.4472820   3.3412440
  68.6943770  73.1730120  10.6669190  68.8191190  73.9961290  11.1393000
  69.5609330  72.9620850  10.3193340  56.1661300  75.2661330  10.3386320
  56.9023780  74.7176790  10.6094890  56.5502220  76.1317340  10.1992310
  53.0506780  71.3334900   6.2127830  52.1246560  71.5756040   6.2033240
  53.5163210  72.1609160   6.0912580  55.1719580  74.4507400  19.5271900
  55.9732310  74.7719450  19.9407300  54.6571400  74.0902980  20.2491810
  64.0084210  70.5587270  19.4747310  63.4022370  70.5818870  18.7343060
  63.7038320  69.8270310  20.0114560  65.4384580  74.2867560  18.0856720
  66.3906330  74.2025580  18.0356960  65.2912800  74.9509270  18.7590510
  68.3293780  73.6661770   3.5848630  68.0435290  73.2526910   2.7702810
  68.1313330  74.5949480   3.4649150  52.8917390  66.9380860  18.4707950
  53.3956410  66.3588140  19.0424180  52.1524810  67.2221090  19.0084320
  59.9455330  68.3451850  18.0043470  59.1801000  68.9136850  17.9198140
  60.1271290  68.0528060  17.1111700  63.0343740  68.7215080   2.6296230
  62.4853840  69.1684380   3.2738970  63.6563000  68.2164330   3.1533900
  67.0878680  70.0757180  18.5618490  67.8288150  70.4132940  18.0585950
  66.3251360  70.2449240  18.0088260  54.9240470  65.0810450  19.3658020
  54.9645810  64.7824320  20.2743250  55.7785970  65.4818060  19.2065540
  58.7018860  67.6806000   4.5261530  59.1235280  67.5145870   5.3692920
  58.8269700  66.8706230   4.0316670  56.8646280  63.6602550  17.3332510
  56.3342740  63.1693500  16.7055850  57.5334350  64.0886750  16.7990440
  65.7624340  68.1272010  17.0973700  66.1765360  68.2817090  17.9464120
  64.8275340  68.2527230  17.2599480  66.2346510  65.4668170  19.1012850
  66.8167280  64.7120490  19.0133330  66.4108280  65.9975610  18.3244330
  57.3518580  60.6264920  17.4129800  57.2575450  60.0085670  16.6880670
  56.7715970  61.3531210  17.1859710  60.1180020  59.1838160  14.4457190
  59.6697320  59.2062420  13.6002740  59.4845220  58.7857180  15.0427490
  60.5239570  68.0792490  15.0669630  60.9427680  68.9225220  14.8945870
  59.6048200  68.2164530  14.8376410  62.8603470  65.8108670  16.4507470
  62.9799680  65.2149810  17.1902310  63.7197470  65.8478360  16.0308770
  65.1991370  66.3645860  15.0269980  64.6726590  66.8888480  14.4235120
  65.5422710  66.9973250  15.6579710  58.3746990  74.3845500  16.1827360
  57.8368080  75.1091560  15.8636060  58.6280950  73.9075840  15.3924700
  59.6272240  62.3530020  17.7083290  60.2171930  62.0445870  18.3961110
  58.8092480  61.8809770  17.8643190  64.4465670  61.9695830  17.9416310
  63.7581190  61.3077370  17.8766300  65.1671690  61.5234100  18.3864770
  65.0766070  58.5647460   4.0006570  65.3568360  57.7215360   4.3565990
  64.3031800  58.7970570   4.5145320  61.2309200  75.6196710  16.4414010
  61.1567900  76.5231850  16.7486380  60.3288040  75.3008610  16.4136080
  59.6145490  59.7974470   2.4453770  59.2667490  59.1198460   1.8656220
  59.8158260  59.3363980   3.2597160  61.7794530  74.7855220   4.0640370
  62.6745320  75.1240190   4.0859130  61.8112160  74.0634630   3.4364650
  55.4190690  70.1582270   2.2927370  55.8565560  70.7011940   2.9484950
  55.9038420  69.3329220   2.3023710  52.6336490  72.9471300   9.7447630
  52.9639500  72.0792360   9.5126270  53.0627490  73.1529820  10.5752590
  57.2298410  71.2780310   7.4049600  56.9293950  71.1545280   8.3053510
  57.1235900  70.4188900   6.9965330  53.1226700  73.8141890  12.4829260
  52.6857690  73.9942690  13.3153410  53.6904380  74.5716510  12.3410980
  68.7588880  73.3158890  16.7706570  68.1590870  73.3751450  16.0270490
  68.8882780  72.3763870  16.9003420  69.9990330  71.0576710   2.1076280
  69.1683290  71.1253360   2.5783510  70.1762160  71.9480830   1.8043140
  69.4546790  67.8024190   4.6110480  70.2165700  68.3720840   4.7170170
  69.4701160  67.2351390   5.3818790  52.9551130  66.3262120   8.8418140
  52.2999970  66.0573760   8.1977840  53.7929080  66.2166600   8.3920120
  70.4606760  68.6574290   9.4552410  70.8315590  67.8741610   9.0488380
  71.1008690  69.3463390   9.2769710  67.4440520  70.0410870  14.8682730
  66.6300360  70.4708030  15.1308520  67.8514720  70.6529280  14.2551780
  69.5065960  68.0958560   1.7683000  69.7814800  69.0037440   1.6402220
  69.3176700  68.0321090   2.7044990  65.9041570  61.1203410   3.0636630
  66.3226450  60.9334390   2.2233290  65.5977630  60.2682460   3.3739560
  69.4031300  66.0327550   6.7612430  69.0274900  65.2655480   6.3293720
  68.6734420  66.4150250   7.2487360  53.9927060  66.7114690  13.3821480
  54.3600100  66.6242090  14.2617500  53.4237880  65.9481240  13.2828340
  68.7930920  65.1799070  16.3951950  68.5617010  64.9511820  15.4949900
  69.0535470  66.0998620  16.3496840  53.5443060  63.6223780  17.2879900
  52.6499110  63.5890540  17.6273610  54.0840610  63.8210570  18.0531150
  67.2318990  60.4055500  19.1731650  68.1089170  60.4138900  19.5565650
  67.2439830  59.6686340  18.5624000  52.1689210  63.5361050   4.7843470
  51.2653290  63.7991250   4.6095130  52.6529830  63.8072220   4.0043430
  68.6782260  64.2585040  10.0619670  69.2019740  63.7647690   9.4309840
  69.2641680  64.3935400  10.8067240  68.8571980  64.3424910  13.5839220
  67.9074690  64.3088450  13.6984210  69.0384990  65.2525020  13.3488990
  54.7116420  62.5926590   2.6937850  55.4208120  62.1709810   2.2085130
  53.9956360  62.6601820   2.0621200  68.1682230  63.5158390   6.0012080
  68.6641350  63.2829260   6.7860960  67.9698300  62.6770230   5.5849720
  54.0482770  57.8972110  11.6363120  54.6958960  57.3469490  11.1958280
  54.4684610  58.1515260  12.4578930  69.5969390  62.1519340   8.5349760
  69.4868670  61.9975380   9.4732030  70.3576980  61.6240280   8.2925170
  67.9435110  58.0913470  14.9932760  68.5807330  58.7047610  15.3591950
  68.0910000  58.1274130  14.0481990  70.4859660  59.9827260   1.7755900
  71.4108970  59.8508440   1.5674190  70.4635450  60.0620080   2.7292350
  70.5598150  60.7537920   4.4012610  69.7649650  60.6883040   4.9305520
  70.7641430  61.6888560   4.3897960  67.5016570  74.7929470   8.3951000
  68.0975640  74.4714040   7.7185420  67.7594720  74.3201290   9.1864270
  53.8014770  58.0527780  14.3788440  53.4529590  58.5091600  15.1446620
  53.4702470  57.1584910  14.4610870  55.4079140  71.2247380  18.5441630
  55.3648770  70.8540290  19.4256090  55.5390150  72.1624950  18.6843450
  59.1085170  72.7806970  14.1451350  58.8676530  73.0481530  13.2581870
  60.0487810  72.9512700  14.2002210  61.3139590  59.2439660  17.9007860
  61.2528480  59.8361490  18.6503270  62.2539970  59.1365620  17.7558120
  63.9514150  58.9009720  17.5400150  64.5654560  59.2189010  16.8781230
  64.4963710  58.4158310  18.1596010  70.3689330  74.8001350  14.9461990
  69.8747610  75.1970220  14.2289120  69.7602620  74.1750560  15.3399270
  54.4735410  57.5803980  17.6539210  55.0218400  57.3992030  16.8905320
  54.5390720  56.7898090  18.1895520  55.2467170  74.1709630  15.6639410
  54.6527490  74.0394330  16.4029450  55.2391010  73.3347770  15.1981510
  64.6922190  57.4641860  13.8669440  63.8182030  57.7976970  13.6642370
  64.5832940  56.9915040  14.6921310  65.5994170  59.6712730  15.2511160
  65.2707530  58.8564490  14.8712890  66.5476470  59.6282540  15.1276850
  68.0528780  75.4424770  12.2248730  67.5931750  76.1940580  11.8506750
  67.4241240  74.7231240  12.1663530  54.8779400  71.5368010  14.6147450
  54.1513460  70.9173300  14.5473400  54.9388550  71.9308620  13.7445530
  58.4824500  73.7513010  11.3996860  58.9989520  73.1400370  10.8745120
  59.1321880  74.2541790  11.8907870  61.2220000  74.6421500  12.2265840
  61.5097810  74.3875800  11.3498850  61.7343220  74.0898860  12.8171410
  62.4397010  58.3811700  12.8062350  61.6568800  58.8557200  13.0859110
  62.1459940  57.4766530  12.6975530  66.9918080  59.0834800  10.8511440
  67.4326170  59.0279900  10.0033040  66.7225670  59.9992810  10.9221620
  68.8556650  58.7150040   8.8620260  68.7945050  57.7711260   8.7151280
  69.6348680  58.8230130   9.4073720  53.1609400  74.8542400   7.8244210
  52.9931440  74.2213080   8.5226100  52.2943910  75.0601800   7.4738400
  53.7837420  58.6859180   5.3276070  54.5416780  58.7988060   4.7540100
  53.3214590  59.5228380   5.2819500  60.3251230  60.7998450   8.3178380
  59.5125740  60.4255340   7.9774260  60.8292870  60.0443530   8.6199570
  64.8276210  57.4640900   9.5561450  65.4305580  58.0361110  10.0309970
  64.0869200  58.0280340   9.3335350  67.9710810  57.8662460   4.8301730
  68.1661440  58.7645910   5.0969160  67.1840680  57.6349540   5.3234680
  54.7672100  73.5475630   5.2694350  54.2419720  73.9283660   4.5656310
  54.6916680  74.1726400   5.9904060  56.1562570  59.2123230   3.8678040
  56.6855330  58.4253030   3.7385990  56.7890890  59.8914420   4.1013570
  58.3500410  58.9498370   6.9223430  57.7203150  58.2485680   7.0893560
  57.8105550  59.7102500   6.7056590  61.2892360  75.5637600  19.5934040
  62.2159670  75.3281870  19.6370000  61.2742790  76.3909600  19.1120070
  69.5237420  75.1063170   6.5908290  69.6989610  74.4200910   5.9469210
  68.8258990  75.6310220   6.1984960  58.4755970  58.2282350  19.3575920
  58.1940240  58.7315950  18.5936740  58.8575670  57.4304100  18.9918050
  57.3665070  75.4958010   4.1443600  58.0983890  75.2117290   3.5967490
  57.6258740  75.2571290   5.0342980  56.5279860  71.6122740   4.1489930
  55.8988740  72.0807840   4.6975760  56.6427690  70.7671960   4.5836120
  67.8569920  74.7907460  19.4175080  68.6495240  74.2956690  19.2101040
  68.1503070  75.4697600  20.0250690  63.9829580  46.8884910  65.3965090
  63.9023630  45.9739520  65.1256800  63.5694000  47.3851980  64.6904800
  62.1147620  48.6663930  67.2774360  61.3389720  48.1864370  67.5672930
  62.7660550  47.9869580  67.1030520  56.1313450  48.9783740  68.1550120
  55.2998330  48.7232450  68.5546630  56.7394430  49.0494510  68.8908040
  66.1355050  53.0724120  66.0573490  65.6736580  52.3011360  66.3860660
  66.9480600  53.0990190  66.5625940  56.1114710  53.0123830  68.3508140
  56.4142750  52.1221570  68.1718360  56.8558300  53.5694050  68.1230390
  54.5405400  43.9385630  61.9392510  53.6522100  44.2801600  61.8372390
  54.8246590  43.7385950  61.0473340  52.5038410  46.5391280  67.8232210
  53.0754520  45.7713480  67.8235850  52.5039950  46.8380040  66.9138820
  62.3618360  55.3582130  65.6777480  61.7429800  55.8139630  65.1071920
  63.2170140  55.5133590  65.2767180  61.5556610  51.3421120  67.2844520
  61.4864890  50.4011060  67.1233650  62.3176470  51.4322530  67.8567090
  53.7463280  41.9475640  69.6101140  53.5666120  41.0501390  69.8903900
  53.3443360  42.4947510  70.2848090  62.5861780  44.1491500  67.5113450
  62.9626600  43.2763380  67.3987120  62.4881290  44.4850200  66.6203890
  56.7166790  42.5217130  62.9730890  56.8233540  43.4220860  63.2799650
  55.8059150  42.4735100  62.6825540  66.3685900  41.6441940  64.4441790
  67.1895520  41.1538510  64.4867270  66.4019980  42.2339600  65.1973630
  54.3649950  44.4436140  68.2183480  55.0460060  44.7074510  68.8370880
  54.0498000  43.6037010  68.5521490  58.5574520  45.4903500  67.3056070
  59.0652740  45.9884470  67.9461090  59.0887760  44.7138700  67.1295430
  70.6585450  43.6608690  71.0085420  69.9537620  44.0490400  70.4900530
  70.9243370  44.3558980  71.6106350  56.8410620  40.1302060  71.5719490
  56.8429060  40.6474450  70.7665390  56.0114930  39.6532240  71.5489420
  63.2281710  50.2421370  63.0709390  62.6098980  50.7070820  62.5072110
  63.7404960  50.9348850  63.4878900  58.0913470  49.7697240  69.7492990
  57.7582850  50.3966160  70.3914060  58.2680150  50.2959120  68.9694660
  66.6047380  43.5842320  67.2169330  65.9002950  43.8727210  67.7972440
  66.9659540  44.3942430  66.8568890  56.5225950  41.8412020  69.5789940
  56.8642760  42.6854070  69.2843810  55.5841760  41.9895760  69.6955280
  57.3032570  51.7378040  71.5642170  57.9206570  52.4129120  71.2826620
  56.4425690  52.1466020  71.4729670  52.5964910  50.9277900  60.4449020
  52.2192890  51.4165000  59.7133920  52.8537980  51.6003180  61.0755550
  68.2210160  53.2017450  69.4796810  67.5373680  53.8716560  69.4713480
  68.7604450  53.3998100  68.7141670  69.6734300  43.0297110  67.6078540
  68.7259210  43.0636090  67.7393970  69.9984290  43.8436060  67.9927900
  60.2053840  39.3294290  65.9034530  60.5128820  38.7741180  65.1870030
  59.2754540  39.4638750  65.7207520  65.7568900  55.0461580  68.1941990
  65.7696060  54.6423870  67.3264250  65.2044120  55.8208870  68.0903420
  67.0514320  51.7677800  63.2832160  66.9410650  50.8252130  63.4081580
  67.0482570  52.1293440  64.1694920  65.1554340  49.9491420  69.5224600
  65.5723130  49.7351530  68.6878060  65.8794160  50.2064210  70.0933220
  62.5934600  47.3943120  62.6394650  61.6663880  47.3280500  62.8683120
  62.7459420  48.3323250  62.5249890  62.5803680  43.6660120  59.6361810
  61.6407350  43.8274080  59.7214270  62.8986940  44.3845800  59.0897800
  69.1016440  48.3478640  69.6140840  68.2735070  48.4171730  69.1390970
  69.6966920  48.9332950  69.1456670  66.6231890  48.9563420  63.1429900
  66.0044310  48.6182970  62.4956200  66.6056340  48.3123180  63.8509090
  66.0658450  45.1347960  70.5595710  65.6529630  45.9601670  70.8135700
  65.3334400  44.5493000  70.3672070  58.1991240  47.9207860  65.4214380
  57.7948240  47.2085110  64.9260280  58.2854360  47.5761100  66.3102420
  58.6672940  51.6075420  67.5853590  58.3701230  51.0020890  66.9061370
  59.6172760  51.6452730  67.4742950  56.9119860  44.6951070  69.2013420
  57.4634450  44.8046410  68.4266670  57.4263370  45.0688670  69.9168650
  66.7558550  55.1807290  71.2476690  66.2789110  55.9879480  71.0549300
  66.0720340  54.5285620  71.4002900  57.7591370  51.3457110  74.2361390
  56.8619900  51.5697080  74.4834790  57.7844240  51.4692050  73.2872790
  64.7996590  48.1950230  60.1502650  65.2389870  47.3572660  60.0040470
  65.5125010  48.8279630  60.2366790  56.5862590  48.2170430  72.8118760
  56.4470360  49.0893230  73.1806160  55.7043950  47.8743240  72.6666700
  62.9091970  53.1346300  64.1183890  63.3487880  53.8770630  63.7039280
  62.8478860  53.3772870  65.0422850  58.3842940  54.1592130  75.0203910
  58.3558370  54.5635080  74.1532340  58.2207910  53.2302490  74.8575510
  68.3813730  39.4493040  58.4643690  68.0686390  39.5419870  59.3642760
  69.1426200  40.0274070  58.4141120  54.8995870  46.8152840  62.9221030
  54.7793470  47.5414930  62.3102300  54.5896760  46.0455750  62.4448940
  52.5381240  49.9867980  68.7289670  52.6161660  50.1216750  67.7845390
  53.1522920  49.2783870  68.9217790  53.7828870  51.6868170  65.1395850
  53.3756950  51.8282760  64.2849450  54.6741880  51.4028330  64.9367060
  69.7391010  52.1332080  73.4768090  69.8654070  51.8943960  72.5585270
  69.7812390  51.3016620  73.9490170  63.6007750  55.8360080  72.0462900
  64.1152420  55.7468090  72.8485330  62.7576830  56.1819780  72.3390810
  65.5762150  56.1215420  61.4746900  65.4163290  55.8318360  62.3728730
  65.4108860  55.3455550  60.9392130  58.0550530  55.9013950  63.2518520
  57.8793010  54.9849490  63.0386320  57.2006270  56.2601240  63.4916320
  65.2788280  53.6302980  60.0344900  64.5853440  53.6280270  59.3747180
  66.0211140  53.2062300  59.6039070  64.8438210  55.2565690  64.1093390
  65.2995160  54.4755070  64.4232010  65.1830730  55.9672510  64.6534570
  69.5915020  44.1864540  74.4417830  68.9759290  44.6944210  73.9133290
  69.2711440  43.2862870  74.3843770  52.5940760  51.0282150  71.2684130
  52.7571800  50.5587510  70.4503500  53.0593210  50.5205710  71.9332970
  57.3659530  40.1587910  66.3044700  56.9227680  40.9397450  65.9729220
  57.9244520  40.4817800  67.0115640  61.6529340  43.0256430  71.9080020
  61.1908710  43.2339450  72.7199960  61.2507450  42.2115780  71.6050690
  66.6533850  44.2465380  73.0376680  65.8027440  43.9471130  73.3585750
  66.4935640  44.4907390  72.1260500  63.7483560  45.7467130  75.1375470
  64.0736970  44.9130880  74.7977700  64.5363890  46.2695650  75.2853800
  60.4818350  39.7798610  61.1850530  59.8572530  39.7758480  61.9103840
  60.3948470  38.9129570  60.7886500  59.4035430  40.7035240  68.1634300
  59.7007760  41.6098070  68.0826320  59.9520990  40.2154020  67.5493870
  57.1573750  45.2821480  64.0325950  56.9314670  45.0658650  64.9372570
  56.3766280  45.7149940  63.6871920  64.3871510  45.2884850  62.6316600
  63.7880400  46.0120650  62.4480220  64.9351120  45.2261630  61.8493050
  59.5972960  46.1807060  74.6986220  59.5016560  45.2401790  74.5486620
  60.4404940  46.4022130  74.3034290  62.9936380  43.9248390  64.6619880
  63.3865950  44.2420590  63.8488570  63.3553230  43.0460270  64.7764400
  54.7283500  42.5920730  72.8520000  54.3346890  43.4395940  73.0592780
  54.0401900  41.9547100  73.0428640  52.0300550  40.5149190  66.8850080
  51.7413600  41.0852050  67.5975060  52.7746310  40.0353640  67.2481310
  52.2170780  44.4569310  58.0952800  52.1345450  45.4000070  58.2367790
  51.8653840  44.3144220  57.2165150  63.5791520  46.5154140  68.7570660
  62.8472640  47.0240950  69.1060760  63.1815860  45.6984120  68.4559440
  60.0168910  43.1908340  67.1623150  60.0204970  42.7498290  66.3127690
  60.9120030  43.5125670  67.2694970  55.8671290  43.0734830  66.1217360
  55.5271340  43.5510060  66.8784410  55.1048610  42.6199950  65.7618460
  60.0789060  44.1920420  60.1529910  60.2001880  44.1506900  61.1015730
  59.6937570  45.0544570  59.9976640  64.0417430  41.9687820  68.1693600
  64.0590170  42.4196470  69.0135450  63.7933010  41.0693460  68.3827040
  59.0910560  46.5021560  59.5513210  58.5227460  46.0539810  58.9249120
  59.7999560  46.8614340  59.0178360  67.4688180  39.3820000  74.0079980
  67.7933950  38.6509660  74.5337960  67.5044690  39.0633640  73.1060970
  54.1679740  50.4033580  73.4279940  53.7834530  49.7627250  74.0262900
  54.4791930  51.1069700  73.9974670  60.3176880  47.2510120  68.9088560
  60.6847010  46.7768690  69.6549900  60.1281940  48.1251690  69.2496900
  53.1817370  41.9953810  65.0382030  52.8964290  41.6309480  65.8760650
  53.1196230  41.2634270  64.4245170  58.1076250  46.2918760  71.2272770
  57.8033320  47.1710740  71.4523130  59.0622710  46.3518550  71.2630210
  56.6358040  50.4979750  61.8239620  55.8620300  49.9577370  61.6638340
  57.3652670  49.9786360  61.4857380  67.3946020  49.4945110  67.6166010
  68.1145140  49.9900400  67.2262120  67.1927840  48.8163000  66.9719880
  62.8555960  40.8883070  61.7595400  62.0420570  40.3896240  61.6840710
  62.6617910  41.7281320  61.3431750  62.7764820  49.5654170  73.5035010
  62.7102130  48.6449840  73.2492600  62.1469960  49.6629610  74.2179650
  65.5704350  45.2602720  60.0557560  66.4583970  45.5719950  59.8808900
  65.5409440  44.3874970  59.6638140  56.6795440  50.1660130  65.4618430
  57.1974110  49.3628390  65.4075320  56.2279460  50.1039270  66.3035260
  61.5664940  51.4326410  60.7345730  61.9080640  52.1768640  60.2389050
  60.7377650  51.7457530  61.0970560  54.1639980  47.1321500  72.3744130
  53.8054920  47.7975350  72.9617470  53.8694540  46.3005050  72.7456750
  57.3653100  47.5905740  75.2583680  57.0653240  47.7362920  74.3611500
  58.1364340  47.0311030  75.1657070  62.7081550  52.3874740  73.2538810
  62.7226090  51.4555700  73.0357720  62.0006650  52.4734500  73.8928580
  67.8418620  46.5714560  59.5237420  67.7582340  47.0028780  58.6733860
  68.5612810  47.0312910  59.9564240  68.9192760  49.0282080  72.6007390
  68.1940950  49.6210860  72.4036780  69.4468220  49.0205620  71.8020760
  68.8705870  53.4256820  62.2519550  68.2282030  52.7712440  62.5263270
  68.4836530  53.8311910  61.4760220  64.4492350  50.7542250  66.0991240
  64.8016170  50.1570380  65.4392610  63.5654680  50.4286480  66.2699490
  60.5355630  51.5139940  63.5061650  61.2226760  52.0609150  63.8869240
  59.7488050  52.0580670  63.5411260  52.6748030  47.1312760  58.9978730
  53.5442880  47.4137560  59.2814650  52.1838350  47.9448630  58.8827540
  59.8382840  48.5185970  63.1187010  60.2945620  49.3291220  63.3447200
  59.4871050  48.2009110  63.9505500  62.1415450  54.0292310  70.3479310
  62.7857670  54.2351690  71.0252730  62.5044890  53.2680710  69.8950160
  55.7394620  38.8623620  63.5909530  55.6109250  38.8541520  64.5394450
  54.9156640  39.2006710  63.2400540  63.4147530  52.0324660  69.0656760
  64.0569760  51.3317820  69.1788930  63.9396880  52.8123100  68.8853650
  67.2603250  52.3173280  58.7895900  67.0340830  51.6003720  59.3820540
  66.8699450  52.0685720  57.9517650  65.1885150  52.8319560  72.2692820
  65.5241390  53.4186250  72.9470740  64.2685490  52.7012270  72.4990610
  53.0419280  56.3440140  59.5640360  53.4016920  56.9429480  58.9097630
  52.9011620  56.8900030  60.3375390  52.7388550  40.6214740  73.0516230
  52.0247070  40.8211660  73.6568840  53.1583590  39.8454310  73.4231030
  66.8419500  50.2345220  60.4510060  66.5541200  50.6957910  61.2387940
  67.6371670  49.7742990  60.7194280  53.0261140  54.6095000  74.0382760
  53.1352260  53.6689740  73.8978150  52.3741700  54.8749750  73.3896490
  61.0173730  52.8810890  75.4380880  60.6970600  52.1620130  75.9826570
  60.3432090  53.5565960  75.5116940  59.0587900  53.7271340  60.3814030
  59.0498000  54.4601030  59.7658540  58.1386260  53.4802920  60.4740990
  54.6594540  48.9486230  61.1260790  54.0522490  49.6885130  61.1356090
  55.1343890  49.0385590  60.2998990  64.2327330  43.1137050  70.8017680
  64.6008150  42.2932260  71.1297250  63.3725530  43.1738940  71.2173330
  67.5989360  42.0693990  61.6105240  66.9702520  42.1739660  60.8963470
  67.1041280  42.2890770  62.3999120  62.0447500  53.7899580  59.0439220
  62.1459480  53.5863570  58.1141200  61.1449240  53.5357860  59.2487000
  59.5673390  44.3479940  63.0263120  58.8589540  44.8166280  63.4676730
  59.8517870  43.6901950  63.6608310  61.1929320  45.7676640  71.0255650
  61.6914570  46.2422460  71.6907500  61.3352270  44.8440160  71.2325680
  63.5988820  41.0730600  64.4658910  63.4756600  41.0916730  63.5168420
  64.5473380  41.1209540  64.5857310  60.6865610  56.3085900  63.7386890
  60.9407110  56.2707290  62.8166260  59.7378090  56.1819230  63.7315140
  57.7708410  42.6565020  60.4013830  58.6198940  43.0935170  60.3354020
  57.4039680  42.9685280  61.2285890  68.3996180  41.9844600  71.8684040
  67.8969780  42.7250000  72.2077850  69.2152840  42.3728600  71.5520830
  66.6918190  47.2277780  65.3145400  65.7508330  47.2428010  65.4893090
  67.0062260  46.4413740  65.7605700  56.6699830  48.9097380  58.8749360
  57.4363100  48.7978740  59.4374790  56.7474520  48.2135350  58.2226130
  55.3646590  46.3422450  59.5582250  55.4450180  45.3949960  59.6699650
  56.2566340  46.6729330  59.6642910  68.6943770  54.3986630  66.9899660
  68.8191190  55.2217800  67.4623470  69.5609330  54.1877360  66.6423810
  56.1661300  56.4917840  66.6616790  56.9023780  55.9433300  66.9325360
  56.5502220  57.3573850  66.5222780  53.0506780  52.5591410  62.5358300
  52.1246560  52.8012550  62.5263710  53.5163210  53.3865670  62.4143050
  59.2763610  55.6648150  58.4842360  60.0692220  55.9536980  58.0324150
  58.7567960  55.2340320  57.8054840  65.4384580  55.5124070  74.4087190
  66.3906330  55.4282090  74.3587430  65.2912800  56.1765780  75.0820980
  68.3293780  54.8918280  59.9079100  68.0435290  54.4783420  59.0933280
  68.1313330  55.8205990  59.7879620  52.8917390  48.1637370  74.7938420
  53.3956410  47.5844650  75.3654650  52.1524810  48.4477600  75.3314790
  59.7941010  50.8851560  58.3484710  59.6891650  50.2703910  59.0746090
  59.6265230  50.3617450  57.5647720  59.9455330  49.5708360  74.3273940
  59.1801000  50.1393360  74.2428610  60.1271290  49.2784570  73.4342170
  63.0343740  49.9471590  58.9526700  62.4853840  50.3940890  59.5969440
  63.6563000  49.4420840  59.4764370  67.0878680  51.3013690  74.8848960
  67.8288150  51.6389450  74.3816420  66.3251360  51.4705750  74.3318730
  58.7018860  48.9062510  60.8492000  59.1235280  48.7402380  61.6923390
  58.8269700  48.0962740  60.3547140  56.8646280  44.8859060  73.6562980
  56.3342740  44.3950010  73.0286320  57.5334350  45.3143260  73.1220910
  61.2146500  47.9300120  58.0969100  61.7352160  47.2149140  57.7310250
  61.8614900  48.5685990  58.3969610  65.7624340  49.3528520  73.4204170
  66.1765360  49.5073600  74.2694590  64.8275340  49.4783740  73.5829950
  66.2346510  46.6924680  75.4243320  66.8167280  45.9377000  75.3363800
  66.4108280  47.2232120  74.6474800  57.3518580  41.8521430  73.7360270
  57.2575450  41.2342180  73.0111140  56.7715970  42.5787720  73.5090180
  60.1180020  40.4094670  70.7687660  59.6697320  40.4318930  69.9233210
  59.4845220  40.0113690  71.3657960  60.5239570  49.3049000  71.3900100
  60.9427680  50.1481730  71.2176340  59.6048200  49.4421040  71.1606880
  62.8603470  47.0365180  72.7737940  62.9799680  46.4406320  73.5132780
  63.7197470  47.0734870  72.3539240  65.1991370  47.5902370  71.3500450
  64.6726590  48.1144990  70.7465590  65.5422710  48.2229760  71.9810180
  57.5977760  44.9795740  57.7950160  57.3966820  44.1163100  58.1563500
  57.4269810  44.8929100  56.8571760  58.3746990  55.6102010  72.5057830
  57.8368080  56.3348070  72.1866530  58.6280950  55.1332350  71.7155170
  59.6272240  43.5786530  74.0313760  60.2171930  43.2702380  74.7191580
  58.8092480  43.1066280  74.1873660  64.4465670  43.1952340  74.2646780
  63.7581190  42.5333880  74.1996770  65.1671690  42.7490610  74.7095240
  65.0766070  39.7903970  60.3237040  65.3568360  38.9471870  60.6796460
  64.3031800  40.0227080  60.8375790  56.3960560  42.0796360  57.7828040
  56.6986460  42.0863790  56.8747190  57.1355150  41.7294220  58.2795700
  61.2309200  56.8453220  72.7644480  61.1567900  57.7488360  73.0716850
  60.3288040  56.5265120  72.7366550  59.6145490  41.0230980  58.7684240
  59.2667490  40.3454970  58.1886690  59.8158260  40.5620490  59.5827630
  61.7794530  56.0111730  60.3870840  62.6745320  56.3496700  60.4089600
  61.8112160  55.2891140  59.7595120  55.4190690  51.3838780  58.6157840
  55.8565560  51.9268450  59.2715420  55.9038420  50.5585730  58.6254180
  52.6336490  54.1727810  66.0678100  52.9639500  53.3048870  65.8356740
  53.0627490  54.3786330  66.8983060  57.2298410  52.5036820  63.7280070
  56.9293950  52.3801790  64.6283980  57.1235900  51.6445410  63.3195800
  53.1226700  55.0398400  68.8059730  52.6857690  55.2199200  69.6383880
  53.6904380  55.7973020  68.6641450  68.7588880  54.5415400  73.0937040
  68.1590870  54.6007960  72.3500960  68.8882780  53.6020380  73.2233890
  69.9990330  52.2833220  58.4306750  69.1683290  52.3509870  58.9013980
  70.1762160  53.1737340  58.1273610  69.4546790  49.0280700  60.9340950
  70.2165700  49.5977350  61.0400640  69.4701160  48.4607900  61.7049260
  52.9551130  47.5518630  65.1648610  52.2999970  47.2830270  64.5208310
  53.7929080  47.4423110  64.7150590  70.4606760  49.8830800  65.7782880
  70.8315590  49.0998120  65.3718850  71.1008690  50.5719900  65.6000180
  67.4440520  51.2667380  71.1913200  66.6300360  51.6964540  71.4538990
  67.8514720  51.8785790  70.5782250  69.5065960  49.3215070  58.0913470
  69.7814800  50.2293950  57.9632690  69.3176700  49.2577600  59.0275460
  65.9041570  42.3459920  59.3867100  66.3226450  42.1590900  58.5463760
  65.5977630  41.4938970  59.6970030  69.4031300  47.2584060  63.0842900
  69.0274900  46.4911990  62.6524190  68.6734420  47.6406760  63.5717830
  53.9927060  47.9371200  69.7051950  54.3600100  47.8498600  70.5847970
  53.4237880  47.1737750  69.6058810  68.7930920  46.4055580  72.7182420
  68.5617010  46.1768330  71.8180370  69.0535470  47.3255130  72.6727310
  53.5443060  44.8480290  73.6110370  52.6499110  44.8147050  73.9504080
  54.0840610  45.0467080  74.3761620  67.2318990  41.6312010  75.4962120
  68.1089170  41.6395410  75.8796120  67.2439830  40.8942850  74.8854470
  52.1689210  44.7617560  61.1073940  51.2653290  45.0247760  60.9325600
  52.6529830  45.0328730  60.3273900  68.6782260  45.4841550  66.3850140
  69.2019740  44.9904200  65.7540310  69.2641680  45.6191910  67.1297710
  68.8571980  45.5681420  69.9069690  67.9074690  45.5344960  70.0214680
  69.0384990  46.4781530  69.6719460  54.7116420  43.8183100  59.0168320
  55.4208120  43.3966320  58.5315600  53.9956360  43.8858330  58.3851670
  54.3590580  39.8722430  58.0570970  55.0818710  40.4131370  58.3752190
  54.6315100  39.5985850  57.1812510  68.1682230  44.7414900  62.3242550
  68.6641350  44.5085770  63.1091430  67.9698300  43.9026740  61.9080190
  54.0482770  39.1228620  67.9593590  54.6958960  38.5726000  67.5188750
  54.4684610  39.3771770  68.7809400  69.5969390  43.3775850  64.8580230
  69.4868670  43.2231890  65.7962500  70.3576980  42.8496790  64.6155640
  67.9435110  39.3169980  71.3163230  68.5807330  39.9304120  71.6822420
  68.0910000  39.3530640  70.3712460  70.4859660  41.2083770  58.0986370
  71.4108970  41.0764950  57.8904660  70.4635450  41.2876590  59.0522820
  70.5598150  41.9794430  60.7243080  69.7649650  41.9139550  61.2535990
  70.7641430  42.9145070  60.7128430  67.5016570  56.0185980  64.7181470
  68.0975640  55.6970550  64.0415890  67.7594720  55.5457800  65.5094740
  53.8014770  39.2784290  70.7018910  53.4529590  39.7348110  71.4677090
  53.4702470  38.3841420  70.7841340  55.4079140  52.4503890  74.8672100
  55.3648770  52.0796800  75.7486560  55.5390150  53.3881460  75.0073920
  59.1085170  54.0063480  70.4681820  58.8676530  54.2738040  69.5812340
  60.0487810  54.1769210  70.5232680  61.3139590  40.4696170  74.2238330
  61.2528480  41.0618000  74.9733740  62.2539970  40.3622130  74.0788590
  63.9514150  40.1266230  73.8630620  64.5654560  40.4445520  73.2011700
  64.4963710  39.6414820  74.4826480  70.3689330  56.0257860  71.2692460
  69.8747610  56.4226730  70.5519590  69.7602620  55.4007070  71.6629740
  54.4735410  38.8060490  73.9769680  55.0218400  38.6248540  73.2135790
  54.5390720  38.0154600  74.5125990  55.2467170  55.3966140  71.9869880
  54.6527490  55.2650840  72.7259920  55.2391010  54.5604280  71.5211980
  64.6922190  38.6898370  70.1899910  63.8182030  39.0233480  69.9872840
  64.5832940  38.2171550  71.0151780  65.5994170  40.8969240  71.5741630
  65.2707530  40.0821000  71.1943360  66.5476470  40.8539050  71.4507320
  68.0528780  56.6681280  68.5479200  67.5931750  57.4197090  68.1737220
  67.4241240  55.9487750  68.4894000  54.8779400  52.7624520  70.9377920
  54.1513460  52.1429810  70.8703870  54.9388550  53.1565130  70.0676000
  58.4824500  54.9769520  67.7227330  58.9989520  54.3656880  67.1975590
  59.1321880  55.4798300  68.2138340  61.2220000  55.8678010  68.5496310
  61.5097810  55.6132310  67.6729320  61.7343220  55.3155370  69.1401880
  62.4397010  39.6068210  69.1292820  61.6568800  40.0813710  69.4089580
  62.1459940  38.7023040  69.0206000  66.9918080  40.3091310  67.1741910
  67.4326170  40.2536410  66.3263510  66.7225670  41.2249320  67.2452090
  68.8556650  39.9406550  65.1850730  68.7945050  38.9967770  65.0381750
  69.6348680  40.0486640  65.7304190  53.1609400  56.0798910  64.1474680
  52.9931440  55.4469590  64.8456570  52.2943910  56.2858310  63.7968870
  53.7837420  39.9115690  61.6506540  54.5416780  40.0244570  61.0770570
  53.3214590  40.7484890  61.6049970  60.3251230  42.0254960  64.6408850
  59.5125740  41.6511850  64.3004730  60.8292870  41.2700040  64.9430040
  64.8276210  38.6897410  65.8791920  65.4305580  39.2617620  66.3540440
  64.0869200  39.2536850  65.6565820  67.9710810  39.0918970  61.1532200
  68.1661440  39.9902420  61.4199630  67.1840680  38.8606050  61.6465150
  54.7672100  54.7732140  61.5924820  54.2419720  55.1540170  60.8886780
  54.6916680  55.3982910  62.3134530  56.1562570  40.4379740  60.1908510
  56.6855330  39.6509540  60.0616460  56.7890890  41.1170930  60.4244040
  58.3500410  40.1754880  63.2453900  57.7203150  39.4742190  63.4124030
  57.8105550  40.9359010  63.0287060  61.2892360  56.7894110  75.9164510
  62.2159670  56.5538380  75.9600470  61.2742790  57.6166110  75.4350540
  69.5237420  56.3319680  62.9138760  69.6989610  55.6457420  62.2699680
  68.8258990  56.8566730  62.5215430  58.4755970  39.4538860  75.6806390
  58.1940240  39.9572460  74.9167210  58.8575670  38.6560610  75.3148520
  57.3665070  56.7214520  60.4674070  58.0983890  56.4373800  59.9197960
  57.6258740  56.4827800  61.3573450  56.5279860  52.8379250  60.4720400
  55.8988740  53.3064350  61.0206230  56.6427690  51.9928470  60.9066590
  63.9829580  46.8884910  46.6221600  63.9023630  45.9739520  46.3513310
  63.5694000  47.3851980  45.9161310  62.1147620  48.6663930  48.5030870
  61.3389720  48.1864370  48.7929440  62.7660550  47.9869580  48.3287030
  56.1313450  48.9783740  49.3806630  55.2998330  48.7232450  49.7803140
  56.7394430  49.0494510  50.1164550  56.1114710  53.0123830  49.5764650
  56.4142750  52.1221570  49.3974870  56.8558300  53.5694050  49.3486900
  52.5038410  46.5391280  49.0488720  53.0754520  45.7713480  49.0492360
  52.5039950  46.8380040  48.1395330  61.5556610  51.3421120  48.5101030
  61.4864890  50.4011060  48.3490160  62.3176470  51.4322530  49.0823600
  53.7463280  41.9475640  50.8357650  53.5666120  41.0501390  51.1160410
  53.3443360  42.4947510  51.5104600  62.5861780  44.1491500  48.7369960
  62.9626600  43.2763380  48.6243630  62.4881290  44.4850200  47.8460400
  56.7166790  42.5217130  44.1987400  56.8233540  43.4220860  44.5056160
  55.8059150  42.4735100  43.9082050  66.3685900  41.6441940  45.6698300
  67.1895520  41.1538510  45.7123780  66.4019980  42.2339600  46.4230140
  54.3649950  44.4436140  49.4439990  55.0460060  44.7074510  50.0627390
  54.0498000  43.6037010  49.7778000  58.5574520  45.4903500  48.5312580
  59.0652740  45.9884470  49.1717600  59.0887760  44.7138700  48.3551940
  70.6585450  43.6608690  52.2341930  69.9537620  44.0490400  51.7157040
  70.9243370  44.3558980  52.8362860  56.8410620  40.1302060  52.7976000
  56.8429060  40.6474450  51.9921900  56.0114930  39.6532240  52.7745930
  63.2281710  50.2421370  44.2965900  62.6098980  50.7070820  43.7328620
  63.7404960  50.9348850  44.7135410  58.0913470  49.7697240  50.9749500
  57.7582850  50.3966160  51.6170570  58.2680150  50.2959120  50.1951170
  66.6047380  43.5842320  48.4425840  65.9002950  43.8727210  49.0228950
  66.9659540  44.3942430  48.0825400  56.5225950  41.8412020  50.8046450
  56.8642760  42.6854070  50.5100320  55.5841760  41.9895760  50.9211790
  57.3032570  51.7378040  52.7898680  57.9206570  52.4129120  52.5083130
  56.4425690  52.1466020  52.6986180  52.5964910  50.9277900  41.6705530
  52.2192890  51.4165000  40.9390430  52.8537980  51.6003180  42.3012060
  68.2210160  53.2017450  50.7053320  67.5373680  53.8716560  50.6969990
  68.7604450  53.3998100  49.9398180  69.6734300  43.0297110  48.8335050
  68.7259210  43.0636090  48.9650480  69.9984290  43.8436060  49.2184410
  60.2053840  39.3294290  47.1291040  60.5128820  38.7741180  46.4126540
  59.2754540  39.4638750  46.9464030  67.0514320  51.7677800  44.5088670
  66.9410650  50.8252130  44.6338090  67.0482570  52.1293440  45.3951430
  65.1554340  49.9491420  50.7481110  65.5723130  49.7351530  49.9134570
  65.8794160  50.2064210  51.3189730  62.5934600  47.3943120  43.8651160
  61.6663880  47.3280500  44.0939630  62.7459420  48.3323250  43.7506400
  62.5803680  43.6660120  40.8618320  61.6407350  43.8274080  40.9470780
  62.8986940  44.3845800  40.3154310  69.1016440  48.3478640  50.8397350
  68.2735070  48.4171730  50.3647480  69.6966920  48.9332950  50.3713180
  66.6231890  48.9563420  44.3686410  66.0044310  48.6182970  43.7212710
  66.6056340  48.3123180  45.0765600  66.0658450  45.1347960  51.7852220
  65.6529630  45.9601670  52.0392210  65.3334400  44.5493000  51.5928580
  58.1991240  47.9207860  46.6470890  57.7948240  47.2085110  46.1516790
  58.2854360  47.5761100  47.5358930  58.6672940  51.6075420  48.8110100
  58.3701230  51.0020890  48.1317880  59.6172760  51.6452730  48.6999460
  56.9119860  44.6951070  50.4269930  57.4634450  44.8046410  49.6523180
  57.4263370  45.0688670  51.1425160  66.7558550  55.1807290  52.4733200
  66.2789110  55.9879480  52.2805810  66.0720340  54.5285620  52.6259410
  57.7591370  51.3457110  55.4617900  56.8619900  51.5697080  55.7091300
  57.7844240  51.4692050  54.5129300  64.7996590  48.1950230  41.3759160
  65.2389870  47.3572660  41.2296980  65.5125010  48.8279630  41.4623300
  56.5862590  48.2170430  54.0375270  56.4470360  49.0893230  54.4062670
  55.7043950  47.8743240  53.8923210  62.9091970  53.1346300  45.3440400
  63.3487880  53.8770630  44.9295790  62.8478860  53.3772870  46.2679360
  58.3842940  54.1592130  56.2460420  58.3558370  54.5635080  55.3788850
  58.2207910  53.2302490  56.0832020  68.3813730  39.4493040  39.6900200
  68.0686390  39.5419870  40.5899270  69.1426200  40.0274070  39.6397630
  54.8995870  46.8152840  44.1477540  54.7793470  47.5414930  43.5358810
  54.5896760  46.0455750  43.6705450  70.3357760  54.9419230  57.5424590
  70.8117480  55.4202120  58.2213670  70.9564920  54.8736720  56.8170090
  52.5381240  49.9867980  49.9546180  52.6161660  50.1216750  49.0101900
  53.1522920  49.2783870  50.1474300  53.7828870  51.6868170  46.3652360
  53.3756950  51.8282760  45.5105960  54.6741880  51.4028330  46.1623570
  69.7391010  52.1332080  54.7024600  69.8654070  51.8943960  53.7841780
  69.7812390  51.3016620  55.1746680  63.6007750  55.8360080  53.2719410
  64.1152420  55.7468090  54.0741840  62.7576830  56.1819780  53.5647320
  65.2788280  53.6302980  41.2601410  64.5853440  53.6280270  40.6003690
  66.0211140  53.2062300  40.8295580  69.5915020  44.1864540  55.6674340
  68.9759290  44.6944210  55.1389800  69.2711440  43.2862870  55.6100280
  52.5940760  51.0282150  52.4940640  52.7571800  50.5587510  51.6760010
  53.0593210  50.5205710  53.1589480  57.3659530  40.1587910  47.5301210
  56.9227680  40.9397450  47.1985730  57.9244520  40.4817800  48.2372150
  61.6529340  43.0256430  53.1336530  61.1908710  43.2339450  53.9456470
  61.2507450  42.2115780  52.8307200  66.6533850  44.2465380  54.2633190
  65.8027440  43.9471130  54.5842260  66.4935640  44.4907390  53.3517010
  63.7483560  45.7467130  56.3631980  64.0736970  44.9130880  56.0234210
  64.5363890  46.2695650  56.5110310  59.4035430  40.7035240  49.3890810
  59.7007760  41.6098070  49.3082830  59.9520990  40.2154020  48.7750380
  57.1573750  45.2821480  45.2582460  56.9314670  45.0658650  46.1629080
  56.3766280  45.7149940  44.9128430  64.3871510  45.2884850  43.8573110
  63.7880400  46.0120650  43.6736730  64.9351120  45.2261630  43.0749560
  59.5972960  46.1807060  55.9242730  59.5016560  45.2401790  55.7743130
  60.4404940  46.4022130  55.5290800  62.9936380  43.9248390  45.8876390
  63.3865950  44.2420590  45.0745080  63.3553230  43.0460270  46.0020910
  54.7283500  42.5920730  54.0776510  54.3346890  43.4395940  54.2849290
  54.0401900  41.9547100  54.2685150  61.3028550  42.6755700  57.1473250
  60.6126870  42.4827900  57.7819340  62.0460850  42.9590340  57.6797550
  63.5791520  46.5154140  49.9827170  62.8472640  47.0240950  50.3317270
  63.1815860  45.6984120  49.6815950  60.0168910  43.1908340  48.3879660
  60.0204970  42.7498290  47.5384200  60.9120030  43.5125670  48.4951480
  55.8671290  43.0734830  47.3473870  55.5271340  43.5510060  48.1040920
  55.1048610  42.6199950  46.9874970  60.0789060  44.1920420  41.3786420
  60.2001880  44.1506900  42.3272240  59.6937570  45.0544570  41.2233150
  64.0417430  41.9687820  49.3950110  64.0590170  42.4196470  50.2391960
  63.7933010  41.0693460  49.6083550  59.0910560  46.5021560  40.7769720
  58.5227460  46.0539810  40.1505630  59.7999560  46.8614340  40.2434870
  67.4688180  39.3820000  55.2336490  67.7933950  38.6509660  55.7594470
  67.5044690  39.0633640  54.3317480  54.1679740  50.4033580  54.6536450
  53.7834530  49.7627250  55.2519410  54.4791930  51.1069700  55.2231180
  60.3176880  47.2510120  50.1345070  60.6847010  46.7768690  50.8806410
  60.1281940  48.1251690  50.4753410  58.1076250  46.2918760  52.4529280
  57.8033320  47.1710740  52.6779640  59.0622710  46.3518550  52.4886720
  56.6358040  50.4979750  43.0496130  55.8620300  49.9577370  42.8894850
  57.3652670  49.9786360  42.7113890  67.3946020  49.4945110  48.8422520
  68.1145140  49.9900400  48.4518630  67.1927840  48.8163000  48.1976390
  62.8555960  40.8883070  42.9851910  62.0420570  40.3896240  42.9097220
  62.6617910  41.7281320  42.5688260  62.7764820  49.5654170  54.7291520
  62.7102130  48.6449840  54.4749110  62.1469960  49.6629610  55.4436160
  65.5704350  45.2602720  41.2814070  66.4583970  45.5719950  41.1065410
  65.5409440  44.3874970  40.8894650  56.6795440  50.1660130  46.6874940
  57.1974110  49.3628390  46.6331830  56.2279460  50.1039270  47.5291770
  61.5664940  51.4326410  41.9602240  61.9080640  52.1768640  41.4645560
  60.7377650  51.7457530  42.3227070  54.1639980  47.1321500  53.6000640
  53.8054920  47.7975350  54.1873980  53.8694540  46.3005050  53.9713260
  57.3653100  47.5905740  56.4840190  57.0653240  47.7362920  55.5868010
  58.1364340  47.0311030  56.3913580  62.7081550  52.3874740  54.4795320
  62.7226090  51.4555700  54.2614230  62.0006650  52.4734500  55.1185090
  67.8418620  46.5714560  40.7493930  67.7582340  47.0028780  39.8990370
  68.5612810  47.0312910  41.1820750  68.9192760  49.0282080  53.8263900
  68.1940950  49.6210860  53.6293290  69.4468220  49.0205620  53.0277270
  68.8705870  53.4256820  43.4776060  68.2282030  52.7712440  43.7519780
  68.4836530  53.8311910  42.7016730  64.4492350  50.7542250  47.3247750
  64.8016170  50.1570380  46.6649120  63.5654680  50.4286480  47.4956000
  60.5355630  51.5139940  44.7318160  61.2226760  52.0609150  45.1125750
  59.7488050  52.0580670  44.7667770  59.8382840  48.5185970  44.3443520
  60.2945620  49.3291220  44.5703710  59.4871050  48.2009110  45.1762010
  62.1415450  54.0292310  51.5735820  62.7857670  54.2351690  52.2509240
  62.5044890  53.2680710  51.1206670  63.4147530  52.0324660  50.2913270
  64.0569760  51.3317820  50.4045440  63.9396880  52.8123100  50.1110160
  67.2603250  52.3173280  40.0152410  67.0340830  51.6003720  40.6077050
  66.8699450  52.0685720  39.1774160  65.1885150  52.8319560  53.4949330
  65.5241390  53.4186250  54.1727250  64.2685490  52.7012270  53.7247120
  52.7388550  40.6214740  54.2772740  52.0247070  40.8211660  54.8825350
  53.1583590  39.8454310  54.6487540  66.8419500  50.2345220  41.6766570
  66.5541200  50.6957910  42.4644450  67.6371670  49.7742990  41.9450790
  53.0261140  54.6095000  55.2639270  53.1352260  53.6689740  55.1234660
  52.3741700  54.8749750  54.6153000  61.0173730  52.8810890  56.6637390
  60.6970600  52.1620130  57.2083080  60.3432090  53.5565960  56.7373450
  54.6594540  48.9486230  42.3517300  54.0522490  49.6885130  42.3612600
  55.1343890  49.0385590  41.5255500  64.2327330  43.1137050  52.0274190
  64.6008150  42.2932260  52.3553760  63.3725530  43.1738940  52.4429840
  67.5989360  42.0693990  42.8361750  66.9702520  42.1739660  42.1219980
  67.1041280  42.2890770  43.6255630  59.5673390  44.3479940  44.2519630
  58.8589540  44.8166280  44.6933240  59.8517870  43.6901950  44.8864820
  61.1929320  45.7676640  52.2512160  61.6914570  46.2422460  52.9164010
  61.3352270  44.8440160  52.4582190  63.5988820  41.0730600  45.6915420
  63.4756600  41.0916730  44.7424930  64.5473380  41.1209540  45.8113820
  60.6865610  56.3085900  44.9643400  60.9407110  56.2707290  44.0422770
  59.7378090  56.1819230  44.9571650  68.3996180  41.9844600  53.0940550
  67.8969780  42.7250000  53.4334360  69.2152840  42.3728600  52.7777340
  66.6918190  47.2277780  46.5401910  65.7508330  47.2428010  46.7149600
  67.0062260  46.4413740  46.9862210  56.6699830  48.9097380  40.1005870
  57.4363100  48.7978740  40.6631300  56.7474520  48.2135350  39.4482640
  56.1661300  56.4917840  47.8873300  56.9023780  55.9433300  48.1581870
  56.5502220  57.3573850  47.7479290  53.0506780  52.5591410  43.7614810
  52.1246560  52.8012550  43.7520220  53.5163210  53.3865670  43.6399560
  55.1719580  55.6763910  57.0758880  55.9732310  55.9975960  57.4894280
  54.6571400  55.3159490  57.7978790  64.0084210  51.7843780  57.0234290
  63.4022370  51.8075380  56.2830040  63.7038320  51.0526820  57.5601540
  65.4384580  55.5124070  55.6343700  66.3906330  55.4282090  55.5843940
  65.2912800  56.1765780  56.3077490  68.3293780  54.8918280  41.1335610
  68.0435290  54.4783420  40.3189790  68.1313330  55.8205990  41.0136130
  52.8917390  48.1637370  56.0194930  53.3956410  47.5844650  56.5911160
  52.1524810  48.4477600  56.5571300  59.7941010  50.8851560  39.5741220
  59.6891650  50.2703910  40.3002600  59.6265230  50.3617450  38.7904230
  59.9455330  49.5708360  55.5530450  59.1801000  50.1393360  55.4685120
  60.1271290  49.2784570  54.6598680  63.0343740  49.9471590  40.1783210
  62.4853840  50.3940890  40.8225950  63.6563000  49.4420840  40.7020880
  67.0878680  51.3013690  56.1105470  67.8288150  51.6389450  55.6072930
  66.3251360  51.4705750  55.5575240  54.9240470  46.3066960  56.9145000
  54.9645810  46.0080830  57.8230230  55.7785970  46.7074570  56.7552520
  58.7018860  48.9062510  42.0748510  59.1235280  48.7402380  42.9179900
  58.8269700  48.0962740  41.5803650  56.8646280  44.8859060  54.8819490
  56.3342740  44.3950010  54.2542830  57.5334350  45.3143260  54.3477420
  65.7624340  49.3528520  54.6460680  66.1765360  49.5073600  55.4951100
  64.8275340  49.4783740  54.8086460  66.2346510  46.6924680  56.6499830
  66.8167280  45.9377000  56.5620310  66.4108280  47.2232120  55.8731310
  57.3518580  41.8521430  54.9616780  57.2575450  41.2342180  54.2367650
  56.7715970  42.5787720  54.7346690  60.1180020  40.4094670  51.9944170
  59.6697320  40.4318930  51.1489720  59.4845220  40.0113690  52.5914470
  60.5239570  49.3049000  52.6156610  60.9427680  50.1481730  52.4432850
  59.6048200  49.4421040  52.3863390  62.8603470  47.0365180  53.9994450
  62.9799680  46.4406320  54.7389290  63.7197470  47.0734870  53.5795750
  65.1991370  47.5902370  52.5756960  64.6726590  48.1144990  51.9722100
  65.5422710  48.2229760  53.2066690  58.3746990  55.6102010  53.7314340
  57.8368080  56.3348070  53.4123040  58.6280950  55.1332350  52.9411680
  59.6272240  43.5786530  55.2570270  60.2171930  43.2702380  55.9448090
  58.8092480  43.1066280  55.4130170  64.4465670  43.1952340  55.4903290
  63.7581190  42.5333880  55.4253280  65.1671690  42.7490610  55.9351750
  65.0766070  39.7903970  41.5493550  65.3568360  38.9471870  41.9052970
  64.3031800  40.0227080  42.0632300  61.2309200  56.8453220  53.9900990
  61.1567900  57.7488360  54.2973360  60.3288040  56.5265120  53.9623060
  59.6145490  41.0230980  39.9940750  59.2667490  40.3454970  39.4143200
  59.8158260  40.5620490  40.8084140  55.4190690  51.3838780  39.8414350
  55.8565560  51.9268450  40.4971930  55.9038420  50.5585730  39.8510690
  52.6336490  54.1727810  47.2934610  52.9639500  53.3048870  47.0613250
  53.0627490  54.3786330  48.1239570  57.2298410  52.5036820  44.9536580
  56.9293950  52.3801790  45.8540490  57.1235900  51.6445410  44.5452310
  53.1226700  55.0398400  50.0316240  52.6857690  55.2199200  50.8640390
  53.6904380  55.7973020  49.8897960  68.7588880  54.5415400  54.3193550
  68.1590870  54.6007960  53.5757470  68.8882780  53.6020380  54.4490400
  69.9990330  52.2833220  39.6563260  69.1683290  52.3509870  40.1270490
  70.1762160  53.1737340  39.3530120  69.4546790  49.0280700  42.1597460
  70.2165700  49.5977350  42.2657150  69.4701160  48.4607900  42.9305770
  52.9551130  47.5518630  46.3905120  52.2999970  47.2830270  45.7464820
  53.7929080  47.4423110  45.9407100  70.4606760  49.8830800  47.0039390
  70.8315590  49.0998120  46.5975360  71.1008690  50.5719900  46.8256690
  67.4440520  51.2667380  52.4169710  66.6300360  51.6964540  52.6795500
  67.8514720  51.8785790  51.8038760  65.9041570  42.3459920  40.6123610
  66.3226450  42.1590900  39.7720270  65.5977630  41.4938970  40.9226540
  69.4031300  47.2584060  44.3099410  69.0274900  46.4911990  43.8780700
  68.6734420  47.6406760  44.7974340  53.9927060  47.9371200  50.9308460
  54.3600100  47.8498600  51.8104480  53.4237880  47.1737750  50.8315320
  68.7930920  46.4055580  53.9438930  68.5617010  46.1768330  53.0436880
  69.0535470  47.3255130  53.8983820  53.5443060  44.8480290  54.8366880
  52.6499110  44.8147050  55.1760590  54.0840610  45.0467080  55.6018130
  67.2318990  41.6312010  56.7218630  68.1089170  41.6395410  57.1052630
  67.2439830  40.8942850  56.1110980  52.1689210  44.7617560  42.3330450
  51.2653290  45.0247760  42.1582110  52.6529830  45.0328730  41.5530410
  68.6782260  45.4841550  47.6106650  69.2019740  44.9904200  46.9796820
  69.2641680  45.6191910  48.3554220  68.8571980  45.5681420  51.1326200
  67.9074690  45.5344960  51.2471190  69.0384990  46.4781530  50.8975970
  68.1682230  44.7414900  43.5499060  68.6641350  44.5085770  44.3347940
  67.9698300  43.9026740  43.1336700  54.0482770  39.1228620  49.1850100
  54.6958960  38.5726000  48.7445260  54.4684610  39.3771770  50.0065910
  69.5969390  43.3775850  46.0836740  69.4868670  43.2231890  47.0219010
  70.3576980  42.8496790  45.8412150  67.9435110  39.3169980  52.5419740
  68.5807330  39.9304120  52.9078930  68.0910000  39.3530640  51.5968970
  70.4859660  41.2083770  39.3242880  71.4108970  41.0764950  39.1161170
  70.4635450  41.2876590  40.2779330  70.5598150  41.9794430  41.9499590
  69.7649650  41.9139550  42.4792500  70.7641430  42.9145070  41.9384940
  53.8014770  39.2784290  51.9275420  53.4529590  39.7348110  52.6933600
  53.4702470  38.3841420  52.0097850  55.4079140  52.4503890  56.0928610
  55.3648770  52.0796800  56.9743070  55.5390150  53.3881460  56.2330430
  59.1085170  54.0063480  51.6938330  58.8676530  54.2738040  50.8068850
  60.0487810  54.1769210  51.7489190  61.3139590  40.4696170  55.4494840
  61.2528480  41.0618000  56.1990250  62.2539970  40.3622130  55.3045100
  63.9514150  40.1266230  55.0887130  64.5654560  40.4445520  54.4268210
  64.4963710  39.6414820  55.7082990  70.3689330  56.0257860  52.4948970
  69.8747610  56.4226730  51.7776100  69.7602620  55.4007070  52.8886250
  54.4735410  38.8060490  55.2026190  55.0218400  38.6248540  54.4392300
  54.5390720  38.0154600  55.7382500  55.2467170  55.3966140  53.2126390
  54.6527490  55.2650840  53.9516430  55.2391010  54.5604280  52.7468490
  64.6922190  38.6898370  51.4156420  63.8182030  39.0233480  51.2129350
  64.5832940  38.2171550  52.2408290  65.5994170  40.8969240  52.7998140
  65.2707530  40.0821000  52.4199870  66.5476470  40.8539050  52.6763830
  54.8779400  52.7624520  52.1634430  54.1513460  52.1429810  52.0960380
  54.9388550  53.1565130  51.2932510  58.4824500  54.9769520  48.9483840
  58.9989520  54.3656880  48.4232100  59.1321880  55.4798300  49.4394850
  61.2220000  55.8678010  49.7752820  61.5097810  55.6132310  48.8985830
  61.7343220  55.3155370  50.3658390  62.4397010  39.6068210  50.3549330
  61.6568800  40.0813710  50.6346090  62.1459940  38.7023040  50.2462510
  66.9918080  40.3091310  48.3998420  67.4326170  40.2536410  47.5520020
  66.7225670  41.2249320  48.4708600  68.8556650  39.9406550  46.4107240
  68.7945050  38.9967770  46.2638260  69.6348680  40.0486640  46.9560700
  53.1609400  56.0798910  45.3731190  52.9931440  55.4469590  46.0713080
  52.2943910  56.2858310  45.0225380  60.3251230  42.0254960  45.8665360
  59.5125740  41.6511850  45.5261240  60.8292870  41.2700040  46.1686550
  64.8276210  38.6897410  47.1048430  65.4305580  39.2617620  47.5796950
  64.0869200  39.2536850  46.8822330  67.9710810  39.0918970  42.3788710
  68.1661440  39.9902420  42.6456140  67.1840680  38.8606050  42.8721660
  61.2892360  56.7894110  57.1421020  62.2159670  56.5538380  57.1856980
  61.2742790  57.6166110  56.6607050  69.5237420  56.3319680  44.1395270
  69.6989610  55.6457420  43.4956190  68.8258990  56.8566730  43.7471940
  58.4755970  39.4538860  56.9062900  58.1940240  39.9572460  56.1423720
  58.8575670  38.6560610  56.5405030  65.0771430  38.8692440  57.4843370
  64.9636880  39.1887050  58.3794890  65.8941170  39.2704950  57.1880650
  67.8569920  56.0163970  56.9662060  68.6495240  55.5213200  56.7588020
  68.1503070  56.6954110  57.5737670  54.5405400  43.9385630  24.3905530
  53.6522100  44.2801600  24.2885410  54.8246590  43.7385950  23.4986360
  56.7166790  42.5217130  25.4243910  56.8233540  43.4220860  25.7312670
  55.8059150  42.4735100  25.1338560  66.3685900  41.6441940  26.8954810
  67.1895520  41.1538510  26.9380290  66.4019980  42.2339600  27.6486650
  70.6585450  43.6608690  33.4598440  69.9537620  44.0490400  32.9413550
  70.9243370  44.3558980  34.0619370  56.8410620  40.1302060  34.0232510
  56.8429060  40.6474450  33.2178410  56.0114930  39.6532240  34.0002440
  57.3032570  51.7378040  34.0155190  57.9206570  52.4129120  33.7339640
  56.4425690  52.1466020  33.9242690  52.5964910  50.9277900  22.8962040
  52.2192890  51.4165000  22.1646940  52.8537980  51.6003180  23.5268570
  60.2053840  39.3294290  28.3547550  60.5128820  38.7741180  27.6383050
  59.2754540  39.4638750  28.1720540  62.5803680  43.6660120  22.0874830
  61.6407350  43.8274080  22.1727290  62.8986940  44.3845800  21.5410820
  57.7591370  51.3457110  36.6874410  56.8619900  51.5697080  36.9347810
  57.7844240  51.4692050  35.7385810  68.3813730  39.4493040  20.9156710
  68.0686390  39.5419870  21.8155780  69.1426200  40.0274070  20.8654140
  69.5915020  44.1864540  36.8930850  68.9759290  44.6944210  36.3646310
  69.2711440  43.2862870  36.8356790  57.3659530  40.1587910  28.7557720
  56.9227680  40.9397450  28.4242240  57.9244520  40.4817800  29.4628660
  66.6533850  44.2465380  35.4889700  65.8027440  43.9471130  35.8098770
  66.4935640  44.4907390  34.5773520  60.4818350  39.7798610  23.6363550
  59.8572530  39.7758480  24.3616860  60.3948470  38.9129570  23.2399520
  59.4035430  40.7035240  30.6147320  59.7007760  41.6098070  30.5339340
  59.9520990  40.2154020  30.0006890  52.2170780  44.4569310  20.5465820
  52.1345450  45.4000070  20.6880810  51.8653840  44.3144220  19.6678170
  60.0168910  43.1908340  29.6136170  60.0204970  42.7498290  28.7640710
  60.9120030  43.5125670  29.7207990  60.0789060  44.1920420  22.6042930
  60.2001880  44.1506900  23.5528750  59.6937570  45.0544570  22.4489660
  59.0910560  46.5021560  22.0026230  58.5227460  46.0539810  21.3762140
  59.7999560  46.8614340  21.4691380  67.4688180  39.3820000  36.4593000
  67.7933950  38.6509660  36.9850980  67.5044690  39.0633640  35.5573990
  62.8555960  40.8883070  24.2108420  62.0420570  40.3896240  24.1353730
  62.6617910  41.7281320  23.7944770  62.7764820  49.5654170  35.9548030
  62.7102130  48.6449840  35.7005620  62.1469960  49.6629610  36.6692670
  65.5704350  45.2602720  22.5070580  66.4583970  45.5719950  22.3321920
  65.5409440  44.3874970  22.1151160  62.7081550  52.3874740  35.7051830
  62.7226090  51.4555700  35.4870740  62.0006650  52.4734500  36.3441600
  60.5355630  51.5139940  25.9574670  61.2226760  52.0609150  26.3382260
  59.7488050  52.0580670  25.9924280  52.6748030  47.1312760  21.4491750
  53.5442880  47.4137560  21.7327670  52.1838350  47.9448630  21.3340560
  55.7394620  38.8623620  26.0422550  55.6109250  38.8541520  26.9907470
  54.9156640  39.2006710  25.6913560  67.2603250  52.3173280  21.2408920
  67.0340830  51.6003720  21.8333560  66.8699450  52.0685720  20.4030670
  53.0419280  56.3440140  22.0153380  53.4016920  56.9429480  21.3610650
  52.9011620  56.8900030  22.7888410  61.0173730  52.8810890  37.8893900
  60.6970600  52.1620130  38.4339590  60.3432090  53.5565960  37.9629960
  59.0587900  53.7271340  22.8327050  59.0498000  54.4601030  22.2171560
  58.1386260  53.4802920  22.9254010  67.5989360  42.0693990  24.0618260
  66.9702520  42.1739660  23.3476490  67.1041280  42.2890770  24.8512140
  59.5673390  44.3479940  25.4776140  58.8589540  44.8166280  25.9189750
  59.8517870  43.6901950  26.1121330  63.5988820  41.0730600  26.9171930
  63.4756600  41.0916730  25.9681440  64.5473380  41.1209540  27.0370330
  57.7708410  42.6565020  22.8526850  58.6198940  43.0935170  22.7867040
  57.4039680  42.9685280  23.6798910  68.3996180  41.9844600  34.3197060
  67.8969780  42.7250000  34.6590870  69.2152840  42.3728600  34.0033850
  56.6699830  48.9097380  21.3262380  57.4363100  48.7978740  21.8887810
  56.7474520  48.2135350  20.6739150  55.3646590  46.3422450  22.0095270
  55.4450180  45.3949960  22.1212670  56.2566340  46.6729330  22.1155930
  59.2763610  55.6648150  20.9355380  60.0692220  55.9536980  20.4837170
  58.7567960  55.2340320  20.2567860  64.0084210  51.7843780  38.2490800
  63.4022370  51.8075380  37.5086550  63.7038320  51.0526820  38.7858050
  65.4384580  55.5124070  36.8600210  66.3906330  55.4282090  36.8100450
  65.2912800  56.1765780  37.5334000  68.3293780  54.8918280  22.3592120
  68.0435290  54.4783420  21.5446300  68.1313330  55.8205990  22.2392640
  58.7018860  48.9062510  23.3005020  59.1235280  48.7402380  24.1436410
  58.8269700  48.0962740  22.8060160  61.2146500  47.9300120  20.5482120
  61.7352160  47.2149140  20.1823270  61.8614900  48.5685990  20.8482630
  66.2346510  46.6924680  37.8756340  66.8167280  45.9377000  37.7876820
  66.4108280  47.2232120  37.0987820  60.1180020  40.4094670  33.2200680
  59.6697320  40.4318930  32.3746230  59.4845220  40.0113690  33.8170980
  60.5239570  49.3049000  33.8413120  60.9427680  50.1481730  33.6689360
  59.6048200  49.4421040  33.6119900  65.1991370  47.5902370  33.8013470
  64.6726590  48.1144990  33.1978610  65.5422710  48.2229760  34.4323200
  57.5977760  44.9795740  20.2463180  57.3966820  44.1163100  20.6076520
  57.4269810  44.8929100  19.3084780  64.4465670  43.1952340  36.7159800
  63.7581190  42.5333880  36.6509790  65.1671690  42.7490610  37.1608260
  65.0766070  39.7903970  22.7750060  65.3568360  38.9471870  23.1309480
  64.3031800  40.0227080  23.2888810  56.3960560  42.0796360  20.2341060
  56.6986460  42.0863790  19.3260210  57.1355150  41.7294220  20.7308720
  59.6145490  41.0230980  21.2197260  59.2667490  40.3454970  20.6399710
  59.8158260  40.5620490  22.0340650  55.4190690  51.3838780  21.0670860
  55.8565560  51.9268450  21.7228440  55.9038420  50.5585730  21.0767200
  65.9041570  42.3459920  21.8380120  66.3226450  42.1590900  20.9976780
  65.5977630  41.4938970  22.1483050  67.2318990  41.6312010  37.9475140
  68.1089170  41.6395410  38.3309140  67.2439830  40.8942850  37.3367490
  52.1689210  44.7617560  23.5586960  51.2653290  45.0247760  23.3838620
  52.6529830  45.0328730  22.7786920  54.7116420  43.8183100  21.4681340
  55.4208120  43.3966320  20.9828620  53.9956360  43.8858330  20.8364690
  54.3590580  39.8722430  20.5083990  55.0818710  40.4131370  20.8265210
  54.6315100  39.5985850  19.6325530  68.1682230  44.7414900  24.7755570
  68.6641350  44.5085770  25.5604450  67.9698300  43.9026740  24.3593210
  54.0482770  39.1228620  30.4106610  54.6958960  38.5726000  29.9701770
  54.4684610  39.3771770  31.2322420  67.9435110  39.3169980  33.7676250
  68.5807330  39.9304120  34.1335440  68.0910000  39.3530640  32.8225480
  55.4079140  52.4503890  37.3185120  55.3648770  52.0796800  38.1999580
  55.5390150  53.3881460  37.4586940  61.3139590  40.4696170  36.6751350
  61.2528480  41.0618000  37.4246760  62.2539970  40.3622130  36.5301610
  63.9514150  40.1266230  36.3143640  64.5654560  40.4445520  35.6524720
  64.4963710  39.6414820  36.9339500  64.6922190  38.6898370  32.6412930
  63.8182030  39.0233480  32.4385860  64.5832940  38.2171550  33.4664800
  65.5994170  40.8969240  34.0254650  65.2707530  40.0821000  33.6456380
  66.5476470  40.8539050  33.9020340  62.4397010  39.6068210  31.5805840
  61.6568800  40.0813710  31.8602600  62.1459940  38.7023040  31.4719020
  66.9918080  40.3091310  29.6254930  67.4326170  40.2536410  28.7776530
  66.7225670  41.2249320  29.6965110  68.8556650  39.9406550  27.6363750
  68.7945050  38.9967770  27.4894770  69.6348680  40.0486640  28.1817210
  53.7837420  39.9115690  24.1019560  54.5416780  40.0244570  23.5283590
  53.3214590  40.7484890  24.0562990  60.3251230  42.0254960  27.0921870
  59.5125740  41.6511850  26.7517750  60.8292870  41.2700040  27.3943060
  64.8276210  38.6897410  28.3304940  65.4305580  39.2617620  28.8053460
  64.0869200  39.2536850  28.1078840  67.9710810  39.0918970  23.6045220
  68.1661440  39.9902420  23.8712650  67.1840680  38.8606050  24.0978170
  54.7672100  54.7732140  24.0437840  54.2419720  55.1540170  23.3399800
  54.6916680  55.3982910  24.7647550  56.1562570  40.4379740  22.6421530
  56.6855330  39.6509540  22.5129480  56.7890890  41.1170930  22.8757060
  58.3500410  40.1754880  25.6966920  57.7203150  39.4742190  25.8637050
  57.8105550  40.9359010  25.4800080  58.4755970  39.4538860  38.1319410
  58.1940240  39.9572460  37.3680230  58.8575670  38.6560610  37.7661540
  57.3665070  56.7214520  22.9187090  58.0983890  56.4373800  22.3710980
  57.6258740  56.4827800  23.8086470  56.5279860  52.8379250  22.9233420
  55.8988740  53.3064350  23.4719250  56.6427690  51.9928470  23.3579610
  65.0771430  38.8692440  38.7099880  64.9636880  39.1887050  39.6051400
  65.8941170  39.2704950  38.4137160  67.8569920  56.0163970  38.1918570
  68.6495240  55.5213200  37.9844530  68.1503070  56.6954110  38.7994180
  63.9829580  46.8884910   9.0734620  63.9023630  45.9739520   8.8026330
  63.5694000  47.3851980   8.3674330  62.1147620  48.6663930  10.9543890
  61.3389720  48.1864370  11.2442460  62.7660550  47.9869580  10.7800050
  56.1313450  48.9783740  11.8319650  55.2998330  48.7232450  12.2316160
  56.7394430  49.0494510  12.5677570  66.1355050  53.0724120   9.7343020
  65.6736580  52.3011360  10.0630190  66.9480600  53.0990190  10.2395470
  56.1114710  53.0123830  12.0277670  56.4142750  52.1221570  11.8487890
  56.8558300  53.5694050  11.7999920  54.5405400  43.9385630   5.6162040
  53.6522100  44.2801600   5.5141920  54.8246590  43.7385950   4.7242870
  52.5038410  46.5391280  11.5001740  53.0754520  45.7713480  11.5005380
  52.5039950  46.8380040  10.5908350  62.3618360  55.3582130   9.3547010
  61.7429800  55.8139630   8.7841450  63.2170140  55.5133590   8.9536710
  61.5556610  51.3421120  10.9614050  61.4864890  50.4011060  10.8003180
  62.3176470  51.4322530  11.5336620  53.7463280  41.9475640  13.2870670
  53.5666120  41.0501390  13.5673430  53.3443360  42.4947510  13.9617620
  62.5861780  44.1491500  11.1882980  62.9626600  43.2763380  11.0756650
  62.4881290  44.4850200  10.2973420  56.7166790  42.5217130   6.6500420
  56.8233540  43.4220860   6.9569180  55.8059150  42.4735100   6.3595070
  66.3685900  41.6441940   8.1211320  67.1895520  41.1538510   8.1636800
  66.4019980  42.2339600   8.8743160  54.3649950  44.4436140  11.8953010
  55.0460060  44.7074510  12.5140410  54.0498000  43.6037010  12.2291020
  58.5574520  45.4903500  10.9825600  59.0652740  45.9884470  11.6230620
  59.0887760  44.7138700  10.8064960  70.6585450  43.6608690  14.6854950
  69.9537620  44.0490400  14.1670060  70.9243370  44.3558980  15.2875880
  56.8410620  40.1302060  15.2489020  56.8429060  40.6474450  14.4434920
  56.0114930  39.6532240  15.2258950  63.2281710  50.2421370   6.7478920
  62.6098980  50.7070820   6.1841640  63.7404960  50.9348850   7.1648430
  58.0913470  49.7697240  13.4262520  57.7582850  50.3966160  14.0683590
  58.2680150  50.2959120  12.6464190  66.6047380  43.5842320  10.8938860
  65.9002950  43.8727210  11.4741970  66.9659540  44.3942430  10.5338420
  56.5225950  41.8412020  13.2559470  56.8642760  42.6854070  12.9613340
  55.5841760  41.9895760  13.3724810  57.3032570  51.7378040  15.2411700
  57.9206570  52.4129120  14.9596150  56.4425690  52.1466020  15.1499200
  52.5964910  50.9277900   4.1218550  52.2192890  51.4165000   3.3903450
  52.8537980  51.6003180   4.7525080  68.2210160  53.2017450  13.1566340
  67.5373680  53.8716560  13.1483010  68.7604450  53.3998100  12.3911200
  69.6734300  43.0297110  11.2848070  68.7259210  43.0636090  11.4163500
  69.9984290  43.8436060  11.6697430  60.2053840  39.3294290   9.5804060
  60.5128820  38.7741180   8.8639560  59.2754540  39.4638750   9.3977050
  65.7568900  55.0461580  11.8711520  65.7696060  54.6423870  11.0033780
  65.2044120  55.8208870  11.7672950  67.0514320  51.7677800   6.9601690
  66.9410650  50.8252130   7.0851110  67.0482570  52.1293440   7.8464450
  65.1554340  49.9491420  13.1994130  65.5723130  49.7351530  12.3647590
  65.8794160  50.2064210  13.7702750  62.5934600  47.3943120   6.3164180
  61.6663880  47.3280500   6.5452650  62.7459420  48.3323250   6.2019420
  62.5803680  43.6660120   3.3131340  61.6407350  43.8274080   3.3983800
  62.8986940  44.3845800   2.7667330  69.1016440  48.3478640  13.2910370
  68.2735070  48.4171730  12.8160500  69.6966920  48.9332950  12.8226200
  66.6231890  48.9563420   6.8199430  66.0044310  48.6182970   6.1725730
  66.6056340  48.3123180   7.5278620  66.0658450  45.1347960  14.2365240
  65.6529630  45.9601670  14.4905230  65.3334400  44.5493000  14.0441600
  58.1991240  47.9207860   9.0983910  57.7948240  47.2085110   8.6029810
  58.2854360  47.5761100   9.9871950  58.6672940  51.6075420  11.2623120
  58.3701230  51.0020890  10.5830900  59.6172760  51.6452730  11.1512480
  56.9119860  44.6951070  12.8782950  57.4634450  44.8046410  12.1036200
  57.4263370  45.0688670  13.5938180  66.7558550  55.1807290  14.9246220
  66.2789110  55.9879480  14.7318830  66.0720340  54.5285620  15.0772430
  57.7591370  51.3457110  17.9130920  56.8619900  51.5697080  18.1604320
  57.7844240  51.4692050  16.9642320  64.7996590  48.1950230   3.8272180
  65.2389870  47.3572660   3.6810000  65.5125010  48.8279630   3.9136320
  56.5862590  48.2170430  16.4888290  56.4470360  49.0893230  16.8575690
  55.7043950  47.8743240  16.3436230  62.9091970  53.1346300   7.7953420
  63.3487880  53.8770630   7.3808810  62.8478860  53.3772870   8.7192380
  58.3842940  54.1592130  18.6973440  58.3558370  54.5635080  17.8301870
  58.2207910  53.2302490  18.5345040  68.3813730  39.4493040   2.1413220
  68.0686390  39.5419870   3.0412290  69.1426200  40.0274070   2.0910650
  54.8995870  46.8152840   6.5990560  54.7793470  47.5414930   5.9871830
  54.5896760  46.0455750   6.1218470  70.3357760  54.9419230  19.9937610
  70.8117480  55.4202120  20.6726690  70.9564920  54.8736720  19.2683110
  52.5381240  49.9867980  12.4059200  52.6161660  50.1216750  11.4614920
  53.1522920  49.2783870  12.5987320  53.7828870  51.6868170   8.8165380
  53.3756950  51.8282760   7.9618980  54.6741880  51.4028330   8.6136590
  63.6007750  55.8360080  15.7232430  64.1152420  55.7468090  16.5254860
  62.7576830  56.1819780  16.0160340  65.5762150  56.1215420   5.1516430
  65.4163290  55.8318360   6.0498260  65.4108860  55.3455550   4.6161660
  58.0550530  55.9013950   6.9288050  57.8793010  54.9849490   6.7155850
  57.2006270  56.2601240   7.1685850  65.2788280  53.6302980   3.7114430
  64.5853440  53.6280270   3.0516710  66.0211140  53.2062300   3.2808600
  64.8438210  55.2565690   7.7862920  65.2995160  54.4755070   8.1001540
  65.1830730  55.9672510   8.3304100  52.5940760  51.0282150  14.9453660
  52.7571800  50.5587510  14.1273030  53.0593210  50.5205710  15.6102500
  57.3659530  40.1587910   9.9814230  56.9227680  40.9397450   9.6498750
  57.9244520  40.4817800  10.6885170  61.6529340  43.0256430  15.5849550
  61.1908710  43.2339450  16.3969490  61.2507450  42.2115780  15.2820220
  66.6533850  44.2465380  16.7146210  65.8027440  43.9471130  17.0355280
  66.4935640  44.4907390  15.8030030  63.7483560  45.7467130  18.8145000
  64.0736970  44.9130880  18.4747230  64.5363890  46.2695650  18.9623330
  60.4818350  39.7798610   4.8620060  59.8572530  39.7758480   5.5873370
  60.3948470  38.9129570   4.4656030  59.4035430  40.7035240  11.8403830
  59.7007760  41.6098070  11.7595850  59.9520990  40.2154020  11.2263400
  57.1573750  45.2821480   7.7095480  56.9314670  45.0658650   8.6142100
  56.3766280  45.7149940   7.3641450  64.3871510  45.2884850   6.3086130
  63.7880400  46.0120650   6.1249750  64.9351120  45.2261630   5.5262580
  59.5972960  46.1807060  18.3755750  59.5016560  45.2401790  18.2256150
  60.4404940  46.4022130  17.9803820  62.9936380  43.9248390   8.3389410
  63.3865950  44.2420590   7.5258100  63.3553230  43.0460270   8.4533930
  54.7283500  42.5920730  16.5289530  54.3346890  43.4395940  16.7362310
  54.0401900  41.9547100  16.7198170  61.3028550  42.6755700  19.5986270
  60.6126870  42.4827900  20.2332360  62.0460850  42.9590340  20.1310570
  52.0300550  40.5149190  10.5619610  51.7413600  41.0852050  11.2744590
  52.7746310  40.0353640  10.9250840  63.5791520  46.5154140  12.4340190
  62.8472640  47.0240950  12.7830290  63.1815860  45.6984120  12.1328970
  60.0168910  43.1908340  10.8392680  60.0204970  42.7498290   9.9897220
  60.9120030  43.5125670  10.9464500  55.8671290  43.0734830   9.7986890
  55.5271340  43.5510060  10.5553940  55.1048610  42.6199950   9.4387990
  60.0789060  44.1920420   3.8299440  60.2001880  44.1506900   4.7785260
  59.6937570  45.0544570   3.6746170  64.0417430  41.9687820  11.8463130
  64.0590170  42.4196470  12.6904980  63.7933010  41.0693460  12.0596570
  59.0910560  46.5021560   3.2282740  58.5227460  46.0539810   2.6018650
  59.7999560  46.8614340   2.6947890  67.4688180  39.3820000  17.6849510
  67.7933950  38.6509660  18.2107490  67.5044690  39.0633640  16.7830500
  54.1679740  50.4033580  17.1049470  53.7834530  49.7627250  17.7032430
  54.4791930  51.1069700  17.6744200  60.3176880  47.2510120  12.5858090
  60.6847010  46.7768690  13.3319430  60.1281940  48.1251690  12.9266430
  53.1817370  41.9953810   8.7151560  52.8964290  41.6309480   9.5530180
  53.1196230  41.2634270   8.1014700  58.1076250  46.2918760  14.9042300
  57.8033320  47.1710740  15.1292660  59.0622710  46.3518550  14.9399740
  56.6358040  50.4979750   5.5009150  55.8620300  49.9577370   5.3407870
  57.3652670  49.9786360   5.1626910  67.3946020  49.4945110  11.2935540
  68.1145140  49.9900400  10.9031650  67.1927840  48.8163000  10.6489410
  62.8555960  40.8883070   5.4364930  62.0420570  40.3896240   5.3610240
  62.6617910  41.7281320   5.0201280  62.7764820  49.5654170  17.1804540
  62.7102130  48.6449840  16.9262130  62.1469960  49.6629610  17.8949180
  65.5704350  45.2602720   3.7327090  66.4583970  45.5719950   3.5578430
  65.5409440  44.3874970   3.3407670  56.6795440  50.1660130   9.1387960
  57.1974110  49.3628390   9.0844850  56.2279460  50.1039270   9.9804790
  61.5664940  51.4326410   4.4115260  61.9080640  52.1768640   3.9158580
  60.7377650  51.7457530   4.7740090  54.1639980  47.1321500  16.0513660
  53.8054920  47.7975350  16.6387000  53.8694540  46.3005050  16.4226280
  57.3653100  47.5905740  18.9353210  57.0653240  47.7362920  18.0381030
  58.1364340  47.0311030  18.8426600  67.8418620  46.5714560   3.2006950
  67.7582340  47.0028780   2.3503390  68.5612810  47.0312910   3.6333770
  68.8705870  53.4256820   5.9289080  68.2282030  52.7712440   6.2032800
  68.4836530  53.8311910   5.1529750  64.4492350  50.7542250   9.7760770
  64.8016170  50.1570380   9.1162140  63.5654680  50.4286480   9.9469020
  60.5355630  51.5139940   7.1831180  61.2226760  52.0609150   7.5638770
  59.7488050  52.0580670   7.2180790  52.6748030  47.1312760   2.6748260
  53.5442880  47.4137560   2.9584180  52.1838350  47.9448630   2.5597070
  59.8382840  48.5185970   6.7956540  60.2945620  49.3291220   7.0216730
  59.4871050  48.2009110   7.6275030  62.1415450  54.0292310  14.0248840
  62.7857670  54.2351690  14.7022260  62.5044890  53.2680710  13.5719690
  55.7394620  38.8623620   7.2679060  55.6109250  38.8541520   8.2163980
  54.9156640  39.2006710   6.9170070  63.4147530  52.0324660  12.7426290
  64.0569760  51.3317820  12.8558460  63.9396880  52.8123100  12.5623180
  67.2603250  52.3173280   2.4665430  67.0340830  51.6003720   3.0590070
  66.8699450  52.0685720   1.6287180  65.1885150  52.8319560  15.9462350
  65.5241390  53.4186250  16.6240270  64.2685490  52.7012270  16.1760140
  53.0419280  56.3440140   3.2409890  53.4016920  56.9429480   2.5867160
  52.9011620  56.8900030   4.0144920  52.7388550  40.6214740  16.7285760
  52.0247070  40.8211660  17.3338370  53.1583590  39.8454310  17.1000560
  66.8419500  50.2345220   4.1279590  66.5541200  50.6957910   4.9157470
  67.6371670  49.7742990   4.3963810  53.0261140  54.6095000  17.7152290
  53.1352260  53.6689740  17.5747680  52.3741700  54.8749750  17.0666020
  59.0587900  53.7271340   4.0583560  59.0498000  54.4601030   3.4428070
  58.1386260  53.4802920   4.1510520  54.6594540  48.9486230   4.8030320
  54.0522490  49.6885130   4.8125620  55.1343890  49.0385590   3.9768520
  64.2327330  43.1137050  14.4787210  64.6008150  42.2932260  14.8066780
  63.3725530  43.1738940  14.8942860  67.5989360  42.0693990   5.2874770
  66.9702520  42.1739660   4.5733000  67.1041280  42.2890770   6.0768650
  62.0447500  53.7899580   2.7208750  62.1459480  53.5863570   1.7910730
  61.1449240  53.5357860   2.9256530  59.5673390  44.3479940   6.7032650
  58.8589540  44.8166280   7.1446260  59.8517870  43.6901950   7.3377840
  61.1929320  45.7676640  14.7025180  61.6914570  46.2422460  15.3677030
  61.3352270  44.8440160  14.9095210  63.5988820  41.0730600   8.1428440
  63.4756600  41.0916730   7.1937950  64.5473380  41.1209540   8.2626840
  60.6865610  56.3085900   7.4156420  60.9407110  56.2707290   6.4935790
  59.7378090  56.1819230   7.4084670  57.7708410  42.6565020   4.0783360
  58.6198940  43.0935170   4.0123550  57.4039680  42.9685280   4.9055420
  68.3996180  41.9844600  15.5453570  67.8969780  42.7250000  15.8847380
  69.2152840  42.3728600  15.2290360  66.6918190  47.2277780   8.9914930
  65.7508330  47.2428010   9.1662620  67.0062260  46.4413740   9.4375230
  56.6699830  48.9097380   2.5518890  57.4363100  48.7978740   3.1144320
  56.7474520  48.2135350   1.8995660  55.3646590  46.3422450   3.2351780
  55.4450180  45.3949960   3.3469180  56.2566340  46.6729330   3.3412440
  68.6943770  54.3986630  10.6669190  68.8191190  55.2217800  11.1393000
  69.5609330  54.1877360  10.3193340  56.1661300  56.4917840  10.3386320
  56.9023780  55.9433300  10.6094890  56.5502220  57.3573850  10.1992310
  53.0506780  52.5591410   6.2127830  52.1246560  52.8012550   6.2033240
  53.5163210  53.3865670   6.0912580  55.1719580  55.6763910  19.5271900
  55.9732310  55.9975960  19.9407300  54.6571400  55.3159490  20.2491810
  68.3293780  54.8918280   3.5848630  68.0435290  54.4783420   2.7702810
  68.1313330  55.8205990   3.4649150  52.8917390  48.1637370  18.4707950
  53.3956410  47.5844650  19.0424180  52.1524810  48.4477600  19.0084320
  59.9455330  49.5708360  18.0043470  59.1801000  50.1393360  17.9198140
  60.1271290  49.2784570  17.1111700  63.0343740  49.9471590   2.6296230
  62.4853840  50.3940890   3.2738970  63.6563000  49.4420840   3.1533900
  54.9240470  46.3066960  19.3658020  54.9645810  46.0080830  20.2743250
  55.7785970  46.7074570  19.2065540  58.7018860  48.9062510   4.5261530
  59.1235280  48.7402380   5.3692920  58.8269700  48.0962740   4.0316670
  56.8646280  44.8859060  17.3332510  56.3342740  44.3950010  16.7055850
  57.5334350  45.3143260  16.7990440  65.7624340  49.3528520  17.0973700
  66.1765360  49.5073600  17.9464120  64.8275340  49.4783740  17.2599480
  57.3518580  41.8521430  17.4129800  57.2575450  41.2342180  16.6880670
  56.7715970  42.5787720  17.1859710  60.1180020  40.4094670  14.4457190
  59.6697320  40.4318930  13.6002740  59.4845220  40.0113690  15.0427490
  60.5239570  49.3049000  15.0669630  60.9427680  50.1481730  14.8945870
  59.6048200  49.4421040  14.8376410  62.8603470  47.0365180  16.4507470
  62.9799680  46.4406320  17.1902310  63.7197470  47.0734870  16.0308770
  65.1991370  47.5902370  15.0269980  64.6726590  48.1144990  14.4235120
  65.5422710  48.2229760  15.6579710  58.3746990  55.6102010  16.1827360
  57.8368080  56.3348070  15.8636060  58.6280950  55.1332350  15.3924700
  59.6272240  43.5786530  17.7083290  60.2171930  43.2702380  18.3961110
  58.8092480  43.1066280  17.8643190  64.4465670  43.1952340  17.9416310
  63.7581190  42.5333880  17.8766300  65.1671690  42.7490610  18.3864770
  65.0766070  39.7903970   4.0006570  65.3568360  38.9471870   4.3565990
  64.3031800  40.0227080   4.5145320  61.2309200  56.8453220  16.4414010
  61.1567900  57.7488360  16.7486380  60.3288040  56.5265120  16.4136080
  59.6145490  41.0230980   2.4453770  59.2667490  40.3454970   1.8656220
  59.8158260  40.5620490   3.2597160  61.7794530  56.0111730   4.0640370
  62.6745320  56.3496700   4.0859130  61.8112160  55.2891140   3.4364650
  55.4190690  51.3838780   2.2927370  55.8565560  51.9268450   2.9484950
  55.9038420  50.5585730   2.3023710  52.6336490  54.1727810   9.7447630
  52.9639500  53.3048870   9.5126270  53.0627490  54.3786330  10.5752590
  57.2298410  52.5036820   7.4049600  56.9293950  52.3801790   8.3053510
  57.1235900  51.6445410   6.9965330  53.1226700  55.0398400  12.4829260
  52.6857690  55.2199200  13.3153410  53.6904380  55.7973020  12.3410980
  68.7588880  54.5415400  16.7706570  68.1590870  54.6007960  16.0270490
  68.8882780  53.6020380  16.9003420  69.9990330  52.2833220   2.1076280
  69.1683290  52.3509870   2.5783510  70.1762160  53.1737340   1.8043140
  69.4546790  49.0280700   4.6110480  70.2165700  49.5977350   4.7170170
  69.4701160  48.4607900   5.3818790  52.9551130  47.5518630   8.8418140
  52.2999970  47.2830270   8.1977840  53.7929080  47.4423110   8.3920120
  70.4606760  49.8830800   9.4552410  70.8315590  49.0998120   9.0488380
  71.1008690  50.5719900   9.2769710  67.4440520  51.2667380  14.8682730
  66.6300360  51.6964540  15.1308520  67.8514720  51.8785790  14.2551780
  69.5065960  49.3215070   1.7683000  69.7814800  50.2293950   1.6402220
  69.3176700  49.2577600   2.7044990  65.9041570  42.3459920   3.0636630
  66.3226450  42.1590900   2.2233290  65.5977630  41.4938970   3.3739560
  69.4031300  47.2584060   6.7612430  69.0274900  46.4911990   6.3293720
  68.6734420  47.6406760   7.2487360  53.9927060  47.9371200  13.3821480
  54.3600100  47.8498600  14.2617500  53.4237880  47.1737750  13.2828340
  68.7930920  46.4055580  16.3951950  68.5617010  46.1768330  15.4949900
  69.0535470  47.3255130  16.3496840  53.5443060  44.8480290  17.2879900
  52.6499110  44.8147050  17.6273610  54.0840610  45.0467080  18.0531150
  67.2318990  41.6312010  19.1731650  68.1089170  41.6395410  19.5565650
  67.2439830  40.8942850  18.5624000  52.1689210  44.7617560   4.7843470
  51.2653290  45.0247760   4.6095130  52.6529830  45.0328730   4.0043430
  68.6782260  45.4841550  10.0619670  69.2019740  44.9904200   9.4309840
  69.2641680  45.6191910  10.8067240  68.8571980  45.5681420  13.5839220
  67.9074690  45.5344960  13.6984210  69.0384990  46.4781530  13.3488990
  54.7116420  43.8183100   2.6937850  55.4208120  43.3966320   2.2085130
  53.9956360  43.8858330   2.0621200  68.1682230  44.7414900   6.0012080
  68.6641350  44.5085770   6.7860960  67.9698300  43.9026740   5.5849720
  54.0482770  39.1228620  11.6363120  54.6958960  38.5726000  11.1958280
  54.4684610  39.3771770  12.4578930  69.5969390  43.3775850   8.5349760
  69.4868670  43.2231890   9.4732030  70.3576980  42.8496790   8.2925170
  67.9435110  39.3169980  14.9932760  68.5807330  39.9304120  15.3591950
  68.0910000  39.3530640  14.0481990  70.4859660  41.2083770   1.7755900
  71.4108970  41.0764950   1.5674190  70.4635450  41.2876590   2.7292350
  70.5598150  41.9794430   4.4012610  69.7649650  41.9139550   4.9305520
  70.7641430  42.9145070   4.3897960  67.5016570  56.0185980   8.3951000
  68.0975640  55.6970550   7.7185420  67.7594720  55.5457800   9.1864270
  53.8014770  39.2784290  14.3788440  53.4529590  39.7348110  15.1446620
  53.4702470  38.3841420  14.4610870  55.4079140  52.4503890  18.5441630
  55.3648770  52.0796800  19.4256090  55.5390150  53.3881460  18.6843450
  59.1085170  54.0063480  14.1451350  58.8676530  54.2738040  13.2581870
  60.0487810  54.1769210  14.2002210  61.3139590  40.4696170  17.9007860
  61.2528480  41.0618000  18.6503270  62.2539970  40.3622130  17.7558120
  63.9514150  40.1266230  17.5400150  64.5654560  40.4445520  16.8781230
  64.4963710  39.6414820  18.1596010  70.3689330  56.0257860  14.9461990
  69.8747610  56.4226730  14.2289120  69.7602620  55.4007070  15.3399270
  54.4735410  38.8060490  17.6539210  55.0218400  38.6248540  16.8905320
  54.5390720  38.0154600  18.1895520  55.2467170  55.3966140  15.6639410
  54.6527490  55.2650840  16.4029450  55.2391010  54.5604280  15.1981510
  64.6922190  38.6898370  13.8669440  63.8182030  39.0233480  13.6642370
  64.5832940  38.2171550  14.6921310  65.5994170  40.8969240  15.2511160
  65.2707530  40.0821000  14.8712890  66.5476470  40.8539050  15.1276850
  68.0528780  56.6681280  12.2248730  67.5931750  57.4197090  11.8506750
  67.4241240  55.9487750  12.1663530  54.8779400  52.7624520  14.6147450
  54.1513460  52.1429810  14.5473400  54.9388550  53.1565130  13.7445530
  58.4824500  54.9769520  11.3996860  58.9989520  54.3656880  10.8745120
  59.1321880  55.4798300  11.8907870  61.2220000  55.8678010  12.2265840
  61.5097810  55.6132310  11.3498850  61.7343220  55.3155370  12.8171410
  62.4397010  39.6068210  12.8062350  61.6568800  40.0813710  13.0859110
  62.1459940  38.7023040  12.6975530  66.9918080  40.3091310  10.8511440
  67.4326170  40.2536410  10.0033040  66.7225670  41.2249320  10.9221620
  68.8556650  39.9406550   8.8620260  68.7945050  38.9967770   8.7151280
  69.6348680  40.0486640   9.4073720  53.1609400  56.0798910   7.8244210
  52.9931440  55.4469590   8.5226100  52.2943910  56.2858310   7.4738400
  53.7837420  39.9115690   5.3276070  54.5416780  40.0244570   4.7540100
  53.3214590  40.7484890   5.2819500  60.3251230  42.0254960   8.3178380
  59.5125740  41.6511850   7.9774260  60.8292870  41.2700040   8.6199570
  64.8276210  38.6897410   9.5561450  65.4305580  39.2617620  10.0309970
  64.0869200  39.2536850   9.3335350  67.9710810  39.0918970   4.8301730
  68.1661440  39.9902420   5.0969160  67.1840680  38.8606050   5.3234680
  54.7672100  54.7732140   5.2694350  54.2419720  55.1540170   4.5656310
  54.6916680  55.3982910   5.9904060  56.1562570  40.4379740   3.8678040
  56.6855330  39.6509540   3.7385990  56.7890890  41.1170930   4.1013570
  58.3500410  40.1754880   6.9223430  57.7203150  39.4742190   7.0893560
  57.8105550  40.9359010   6.7056590  69.5237420  56.3319680   6.5908290
  69.6989610  55.6457420   5.9469210  68.8258990  56.8566730   6.1984960
  58.4755970  39.4538860  19.3575920  58.1940240  39.9572460  18.5936740
  58.8575670  38.6560610  18.9918050  57.3665070  56.7214520   4.1443600
  58.0983890  56.4373800   3.5967490  57.6258740  56.4827800   5.0342980
  56.5279860  52.8379250   4.1489930  55.8988740  53.3064350   4.6975760
  56.6427690  51.9928470   4.5836120  65.0771430  38.8692440  19.9356390
  64.9636880  39.1887050  20.8307910  65.8941170  39.2704950  19.6393670
  63.9829580  28.1141420  65.3965090  63.9023630  27.1996030  65.1256800
  63.5694000  28.6108490  64.6904800  62.1147620  29.8920440  67.2774360
  61.3389720  29.4120880  67.5672930  62.7660550  29.2126090  67.1030520
  56.1313450  30.2040250  68.1550120  55.2998330  29.9488960  68.5546630
  56.7394430  30.2751020  68.8908040  66.1355050  34.2980630  66.0573490
  65.6736580  33.5267870  66.3860660  66.9480600  34.3246700  66.5625940
  56.1114710  34.2380340  68.3508140  56.4142750  33.3478080  68.1718360
  56.8558300  34.7950560  68.1230390  54.5405400  25.1642140  61.9392510
  53.6522100  25.5058110  61.8372390  54.8246590  24.9642460  61.0473340
  52.5038410  27.7647790  67.8232210  53.0754520  26.9969990  67.8235850
  52.5039950  28.0636550  66.9138820  62.3618360  36.5838640  65.6777480
  61.7429800  37.0396140  65.1071920  63.2170140  36.7390100  65.2767180
  61.5556610  32.5677630  67.2844520  61.4864890  31.6267570  67.1233650
  62.3176470  32.6579040  67.8567090  53.7463280  23.1732150  69.6101140
  53.5666120  22.2757900  69.8903900  53.3443360  23.7204020  70.2848090
  62.5861780  25.3748010  67.5113450  62.9626600  24.5019890  67.3987120
  62.4881290  25.7106710  66.6203890  56.7166790  23.7473640  62.9730890
  56.8233540  24.6477370  63.2799650  55.8059150  23.6991610  62.6825540
  66.3685900  22.8698450  64.4441790  67.1895520  22.3795020  64.4867270
  66.4019980  23.4596110  65.1973630  54.3649950  25.6692650  68.2183480
  55.0460060  25.9331020  68.8370880  54.0498000  24.8293520  68.5521490
  58.5574520  26.7160010  67.3056070  59.0652740  27.2140980  67.9461090
  59.0887760  25.9395210  67.1295430  70.6585450  24.8865200  71.0085420
  69.9537620  25.2746910  70.4900530  70.9243370  25.5815490  71.6106350
  56.8410620  21.3558570  71.5719490  56.8429060  21.8730960  70.7665390
  56.0114930  20.8788750  71.5489420  63.2281710  31.4677880  63.0709390
  62.6098980  31.9327330  62.5072110  63.7404960  32.1605360  63.4878900
  58.0913470  30.9953750  69.7492990  57.7582850  31.6222670  70.3914060
  58.2680150  31.5215630  68.9694660  66.6047380  24.8098830  67.2169330
  65.9002950  25.0983720  67.7972440  66.9659540  25.6198940  66.8568890
  56.5225950  23.0668530  69.5789940  56.8642760  23.9110580  69.2843810
  55.5841760  23.2152270  69.6955280  57.3032570  32.9634550  71.5642170
  57.9206570  33.6385630  71.2826620  56.4425690  33.3722530  71.4729670
  52.5964910  32.1534410  60.4449020  52.2192890  32.6421510  59.7133920
  52.8537980  32.8259690  61.0755550  68.2210160  34.4273960  69.4796810
  67.5373680  35.0973070  69.4713480  68.7604450  34.6254610  68.7141670
  69.6734300  24.2553620  67.6078540  68.7259210  24.2892600  67.7393970
  69.9984290  25.0692570  67.9927900  60.2053840  20.5550800  65.9034530
  60.5128820  19.9997690  65.1870030  59.2754540  20.6895260  65.7207520
  65.7568900  36.2718090  68.1941990  65.7696060  35.8680380  67.3264250
  65.2044120  37.0465380  68.0903420  67.0514320  32.9934310  63.2832160
  66.9410650  32.0508640  63.4081580  67.0482570  33.3549950  64.1694920
  65.1554340  31.1747930  69.5224600  65.5723130  30.9608040  68.6878060
  65.8794160  31.4320720  70.0933220  62.5934600  28.6199630  62.6394650
  61.6663880  28.5537010  62.8683120  62.7459420  29.5579760  62.5249890
  62.5803680  24.8916630  59.6361810  61.6407350  25.0530590  59.7214270
  62.8986940  25.6102310  59.0897800  69.1016440  29.5735150  69.6140840
  68.2735070  29.6428240  69.1390970  69.6966920  30.1589460  69.1456670
  66.6231890  30.1819930  63.1429900  66.0044310  29.8439480  62.4956200
  66.6056340  29.5379690  63.8509090  66.0658450  26.3604470  70.5595710
  65.6529630  27.1858180  70.8135700  65.3334400  25.7749510  70.3672070
  58.1991240  29.1464370  65.4214380  57.7948240  28.4341620  64.9260280
  58.2854360  28.8017610  66.3102420  58.6672940  32.8331930  67.5853590
  58.3701230  32.2277400  66.9061370  59.6172760  32.8709240  67.4742950
  56.9119860  25.9207580  69.2013420  57.4634450  26.0302920  68.4266670
  57.4263370  26.2945180  69.9168650  66.7558550  36.4063800  71.2476690
  66.2789110  37.2135990  71.0549300  66.0720340  35.7542130  71.4002900
  57.7591370  32.5713620  74.2361390  56.8619900  32.7953590  74.4834790
  57.7844240  32.6948560  73.2872790  64.7996590  29.4206740  60.1502650
  65.2389870  28.5829170  60.0040470  65.5125010  30.0536140  60.2366790
  56.5862590  29.4426940  72.8118760  56.4470360  30.3149740  73.1806160
  55.7043950  29.0999750  72.6666700  62.9091970  34.3602810  64.1183890
  63.3487880  35.1027140  63.7039280  62.8478860  34.6029380  65.0422850
  58.3842940  35.3848640  75.0203910  58.3558370  35.7891590  74.1532340
  58.2207910  34.4559000  74.8575510  68.3813730  20.6749550  58.4643690
  68.0686390  20.7676380  59.3642760  69.1426200  21.2530580  58.4141120
  54.8995870  28.0409350  62.9221030  54.7793470  28.7671440  62.3102300
  54.5896760  27.2712260  62.4448940  52.5381240  31.2124490  68.7289670
  52.6161660  31.3473260  67.7845390  53.1522920  30.5040380  68.9217790
  53.7828870  32.9124680  65.1395850  53.3756950  33.0539270  64.2849450
  54.6741880  32.6284840  64.9367060  69.7391010  33.3588590  73.4768090
  69.8654070  33.1200470  72.5585270  69.7812390  32.5273130  73.9490170
  63.6007750  37.0616590  72.0462900  64.1152420  36.9724600  72.8485330
  62.7576830  37.4076290  72.3390810  65.5762150  37.3471930  61.4746900
  65.4163290  37.0574870  62.3728730  65.4108860  36.5712060  60.9392130
  58.0550530  37.1270460  63.2518520  57.8793010  36.2106000  63.0386320
  57.2006270  37.4857750  63.4916320  65.2788280  34.8559490  60.0344900
  64.5853440  34.8536780  59.3747180  66.0211140  34.4318810  59.6039070
  64.8438210  36.4822200  64.1093390  65.2995160  35.7011580  64.4232010
  65.1830730  37.1929020  64.6534570  69.5915020  25.4121050  74.4417830
  68.9759290  25.9200720  73.9133290  69.2711440  24.5119380  74.3843770
  52.5940760  32.2538660  71.2684130  52.7571800  31.7844020  70.4503500
  53.0593210  31.7462220  71.9332970  57.3659530  21.3844420  66.3044700
  56.9227680  22.1653960  65.9729220  57.9244520  21.7074310  67.0115640
  61.6529340  24.2512940  71.9080020  61.1908710  24.4595960  72.7199960
  61.2507450  23.4372290  71.6050690  66.6533850  25.4721890  73.0376680
  65.8027440  25.1727640  73.3585750  66.4935640  25.7163900  72.1260500
  63.7483560  26.9723640  75.1375470  64.0736970  26.1387390  74.7977700
  64.5363890  27.4952160  75.2853800  60.4818350  21.0055120  61.1850530
  59.8572530  21.0014990  61.9103840  60.3948470  20.1386080  60.7886500
  59.4035430  21.9291750  68.1634300  59.7007760  22.8354580  68.0826320
  59.9520990  21.4410530  67.5493870  57.1573750  26.5077990  64.0325950
  56.9314670  26.2915160  64.9372570  56.3766280  26.9406450  63.6871920
  64.3871510  26.5141360  62.6316600  63.7880400  27.2377160  62.4480220
  64.9351120  26.4518140  61.8493050  59.5972960  27.4063570  74.6986220
  59.5016560  26.4658300  74.5486620  60.4404940  27.6278640  74.3034290
  62.9936380  25.1504900  64.6619880  63.3865950  25.4677100  63.8488570
  63.3553230  24.2716780  64.7764400  54.7283500  23.8177240  72.8520000
  54.3346890  24.6652450  73.0592780  54.0401900  23.1803610  73.0428640
  52.0300550  21.7405700  66.8850080  51.7413600  22.3108560  67.5975060
  52.7746310  21.2610150  67.2481310  52.2170780  25.6825820  58.0952800
  52.1345450  26.6256580  58.2367790  51.8653840  25.5400730  57.2165150
  63.5791520  27.7410650  68.7570660  62.8472640  28.2497460  69.1060760
  63.1815860  26.9240630  68.4559440  60.0168910  24.4164850  67.1623150
  60.0204970  23.9754800  66.3127690  60.9120030  24.7382180  67.2694970
  55.8671290  24.2991340  66.1217360  55.5271340  24.7766570  66.8784410
  55.1048610  23.8456460  65.7618460  60.0789060  25.4176930  60.1529910
  60.2001880  25.3763410  61.1015730  59.6937570  26.2801080  59.9976640
  64.0417430  23.1944330  68.1693600  64.0590170  23.6452980  69.0135450
  63.7933010  22.2949970  68.3827040  59.0910560  27.7278070  59.5513210
  58.5227460  27.2796320  58.9249120  59.7999560  28.0870850  59.0178360
  67.4688180  20.6076510  74.0079980  67.7933950  19.8766170  74.5337960
  67.5044690  20.2890150  73.1060970  54.1679740  31.6290090  73.4279940
  53.7834530  30.9883760  74.0262900  54.4791930  32.3326210  73.9974670
  60.3176880  28.4766630  68.9088560  60.6847010  28.0025200  69.6549900
  60.1281940  29.3508200  69.2496900  53.1817370  23.2210320  65.0382030
  52.8964290  22.8565990  65.8760650  53.1196230  22.4890780  64.4245170
  58.1076250  27.5175270  71.2272770  57.8033320  28.3967250  71.4523130
  59.0622710  27.5775060  71.2630210  56.6358040  31.7236260  61.8239620
  55.8620300  31.1833880  61.6638340  57.3652670  31.2042870  61.4857380
  67.3946020  30.7201620  67.6166010  68.1145140  31.2156910  67.2262120
  67.1927840  30.0419510  66.9719880  62.8555960  22.1139580  61.7595400
  62.0420570  21.6152750  61.6840710  62.6617910  22.9537830  61.3431750
  62.7764820  30.7910680  73.5035010  62.7102130  29.8706350  73.2492600
  62.1469960  30.8886120  74.2179650  65.5704350  26.4859230  60.0557560
  66.4583970  26.7976460  59.8808900  65.5409440  25.6131480  59.6638140
  56.6795440  31.3916640  65.4618430  57.1974110  30.5884900  65.4075320
  56.2279460  31.3295780  66.3035260  61.5664940  32.6582920  60.7345730
  61.9080640  33.4025150  60.2389050  60.7377650  32.9714040  61.0970560
  54.1639980  28.3578010  72.3744130  53.8054920  29.0231860  72.9617470
  53.8694540  27.5261560  72.7456750  57.3653100  28.8162250  75.2583680
  57.0653240  28.9619430  74.3611500  58.1364340  28.2567540  75.1657070
  62.7081550  33.6131250  73.2538810  62.7226090  32.6812210  73.0357720
  62.0006650  33.6991010  73.8928580  67.8418620  27.7971070  59.5237420
  67.7582340  28.2285290  58.6733860  68.5612810  28.2569420  59.9564240
  68.9192760  30.2538590  72.6007390  68.1940950  30.8467370  72.4036780
  69.4468220  30.2462130  71.8020760  68.8705870  34.6513330  62.2519550
  68.2282030  33.9968950  62.5263270  68.4836530  35.0568420  61.4760220
  64.4492350  31.9798760  66.0991240  64.8016170  31.3826890  65.4392610
  63.5654680  31.6542990  66.2699490  60.5355630  32.7396450  63.5061650
  61.2226760  33.2865660  63.8869240  59.7488050  33.2837180  63.5411260
  52.6748030  28.3569270  58.9978730  53.5442880  28.6394070  59.2814650
  52.1838350  29.1705140  58.8827540  59.8382840  29.7442480  63.1187010
  60.2945620  30.5547730  63.3447200  59.4871050  29.4265620  63.9505500
  62.1415450  35.2548820  70.3479310  62.7857670  35.4608200  71.0252730
  62.5044890  34.4937220  69.8950160  55.7394620  20.0880130  63.5909530
  55.6109250  20.0798030  64.5394450  54.9156640  20.4263220  63.2400540
  63.4147530  33.2581170  69.0656760  64.0569760  32.5574330  69.1788930
  63.9396880  34.0379610  68.8853650  67.2603250  33.5429790  58.7895900
  67.0340830  32.8260230  59.3820540  66.8699450  33.2942230  57.9517650
  65.1885150  34.0576070  72.2692820  65.5241390  34.6442760  72.9470740
  64.2685490  33.9268780  72.4990610  53.0419280  37.5696650  59.5640360
  53.4016920  38.1685990  58.9097630  52.9011620  38.1156540  60.3375390
  52.7388550  21.8471250  73.0516230  52.0247070  22.0468170  73.6568840
  53.1583590  21.0710820  73.4231030  66.8419500  31.4601730  60.4510060
  66.5541200  31.9214420  61.2387940  67.6371670  30.9999500  60.7194280
  53.0261140  35.8351510  74.0382760  53.1352260  34.8946250  73.8978150
  52.3741700  36.1006260  73.3896490  61.0173730  34.1067400  75.4380880
  60.6970600  33.3876640  75.9826570  60.3432090  34.7822470  75.5116940
  59.0587900  34.9527850  60.3814030  59.0498000  35.6857540  59.7658540
  58.1386260  34.7059430  60.4740990  54.6594540  30.1742740  61.1260790
  54.0522490  30.9141640  61.1356090  55.1343890  30.2642100  60.2998990
  64.2327330  24.3393560  70.8017680  64.6008150  23.5188770  71.1297250
  63.3725530  24.3995450  71.2173330  67.5989360  23.2950500  61.6105240
  66.9702520  23.3996170  60.8963470  67.1041280  23.5147280  62.3999120
  62.0447500  35.0156090  59.0439220  62.1459480  34.8120080  58.1141200
  61.1449240  34.7614370  59.2487000  59.5673390  25.5736450  63.0263120
  58.8589540  26.0422790  63.4676730  59.8517870  24.9158460  63.6608310
  61.1929320  26.9933150  71.0255650  61.6914570  27.4678970  71.6907500
  61.3352270  26.0696670  71.2325680  63.5988820  22.2987110  64.4658910
  63.4756600  22.3173240  63.5168420  64.5473380  22.3466050  64.5857310
  60.6865610  37.5342410  63.7386890  60.9407110  37.4963800  62.8166260
  59.7378090  37.4075740  63.7315140  57.7708410  23.8821530  60.4013830
  58.6198940  24.3191680  60.3354020  57.4039680  24.1941790  61.2285890
  68.3996180  23.2101110  71.8684040  67.8969780  23.9506510  72.2077850
  69.2152840  23.5985110  71.5520830  66.6918190  28.4534290  65.3145400
  65.7508330  28.4684520  65.4893090  67.0062260  27.6670250  65.7605700
  56.6699830  30.1353890  58.8749360  57.4363100  30.0235250  59.4374790
  56.7474520  29.4391860  58.2226130  55.3646590  27.5678960  59.5582250
  55.4450180  26.6206470  59.6699650  56.2566340  27.8985840  59.6642910
  68.6943770  35.6243140  66.9899660  68.8191190  36.4474310  67.4623470
  69.5609330  35.4133870  66.6423810  56.1661300  37.7174350  66.6616790
  56.9023780  37.1689810  66.9325360  56.5502220  38.5830360  66.5222780
  53.0506780  33.7847920  62.5358300  52.1246560  34.0269060  62.5263710
  53.5163210  34.6122180  62.4143050  59.2763610  36.8904660  58.4842360
  60.0692220  37.1793490  58.0324150  58.7567960  36.4596830  57.8054840
  65.4384580  36.7380580  74.4087190  66.3906330  36.6538600  74.3587430
  65.2912800  37.4022290  75.0820980  68.3293780  36.1174790  59.9079100
  68.0435290  35.7039930  59.0933280  68.1313330  37.0462500  59.7879620
  52.8917390  29.3893880  74.7938420  53.3956410  28.8101160  75.3654650
  52.1524810  29.6734110  75.3314790  59.7941010  32.1108070  58.3484710
  59.6891650  31.4960420  59.0746090  59.6265230  31.5873960  57.5647720
  59.9455330  30.7964870  74.3273940  59.1801000  31.3649870  74.2428610
  60.1271290  30.5041080  73.4342170  63.0343740  31.1728100  58.9526700
  62.4853840  31.6197400  59.5969440  63.6563000  30.6677350  59.4764370
  67.0878680  32.5270200  74.8848960  67.8288150  32.8645960  74.3816420
  66.3251360  32.6962260  74.3318730  58.7018860  30.1319020  60.8492000
  59.1235280  29.9658890  61.6923390  58.8269700  29.3219250  60.3547140
  56.8646280  26.1115570  73.6562980  56.3342740  25.6206520  73.0286320
  57.5334350  26.5399770  73.1220910  61.2146500  29.1556630  58.0969100
  61.7352160  28.4405650  57.7310250  61.8614900  29.7942500  58.3969610
  65.7624340  30.5785030  73.4204170  66.1765360  30.7330110  74.2694590
  64.8275340  30.7040250  73.5829950  66.2346510  27.9181190  75.4243320
  66.8167280  27.1633510  75.3363800  66.4108280  28.4488630  74.6474800
  57.3518580  23.0777940  73.7360270  57.2575450  22.4598690  73.0111140
  56.7715970  23.8044230  73.5090180  60.1180020  21.6351180  70.7687660
  59.6697320  21.6575440  69.9233210  59.4845220  21.2370200  71.3657960
  60.5239570  30.5305510  71.3900100  60.9427680  31.3738240  71.2176340
  59.6048200  30.6677550  71.1606880  62.8603470  28.2621690  72.7737940
  62.9799680  27.6662830  73.5132780  63.7197470  28.2991380  72.3539240
  65.1991370  28.8158880  71.3500450  64.6726590  29.3401500  70.7465590
  65.5422710  29.4486270  71.9810180  57.5977760  26.2052250  57.7950160
  57.3966820  25.3419610  58.1563500  57.4269810  26.1185610  56.8571760
  58.3746990  36.8358520  72.5057830  57.8368080  37.5604580  72.1866530
  58.6280950  36.3588860  71.7155170  59.6272240  24.8043040  74.0313760
  60.2171930  24.4958890  74.7191580  58.8092480  24.3322790  74.1873660
  64.4465670  24.4208850  74.2646780  63.7581190  23.7590390  74.1996770
  65.1671690  23.9747120  74.7095240  65.0766070  21.0160480  60.3237040
  65.3568360  20.1728380  60.6796460  64.3031800  21.2483590  60.8375790
  56.3960560  23.3052870  57.7828040  56.6986460  23.3120300  56.8747190
  57.1355150  22.9550730  58.2795700  61.2309200  38.0709730  72.7644480
  61.1567900  38.9744870  73.0716850  60.3288040  37.7521630  72.7366550
  59.6145490  22.2487490  58.7684240  59.2667490  21.5711480  58.1886690
  59.8158260  21.7877000  59.5827630  61.7794530  37.2368240  60.3870840
  62.6745320  37.5753210  60.4089600  61.8112160  36.5147650  59.7595120
  55.4190690  32.6095290  58.6157840  55.8565560  33.1524960  59.2715420
  55.9038420  31.7842240  58.6254180  52.6336490  35.3984320  66.0678100
  52.9639500  34.5305380  65.8356740  53.0627490  35.6042840  66.8983060
  57.2298410  33.7293330  63.7280070  56.9293950  33.6058300  64.6283980
  57.1235900  32.8701920  63.3195800  53.1226700  36.2654910  68.8059730
  52.6857690  36.4455710  69.6383880  53.6904380  37.0229530  68.6641450
  68.7588880  35.7671910  73.0937040  68.1590870  35.8264470  72.3500960
  68.8882780  34.8276890  73.2233890  69.9990330  33.5089730  58.4306750
  69.1683290  33.5766380  58.9013980  70.1762160  34.3993850  58.1273610
  69.4546790  30.2537210  60.9340950  70.2165700  30.8233860  61.0400640
  69.4701160  29.6864410  61.7049260  52.9551130  28.7775140  65.1648610
  52.2999970  28.5086780  64.5208310  53.7929080  28.6679620  64.7150590
  70.4606760  31.1087310  65.7782880  70.8315590  30.3254630  65.3718850
  71.1008690  31.7976410  65.6000180  67.4440520  32.4923890  71.1913200
  66.6300360  32.9221050  71.4538990  67.8514720  33.1042300  70.5782250
  69.5065960  30.5471580  58.0913470  69.7814800  31.4550460  57.9632690
  69.3176700  30.4834110  59.0275460  65.9041570  23.5716430  59.3867100
  66.3226450  23.3847410  58.5463760  65.5977630  22.7195480  59.6970030
  69.4031300  28.4840570  63.0842900  69.0274900  27.7168500  62.6524190
  68.6734420  28.8663270  63.5717830  53.9927060  29.1627710  69.7051950
  54.3600100  29.0755110  70.5847970  53.4237880  28.3994260  69.6058810
  68.7930920  27.6312090  72.7182420  68.5617010  27.4024840  71.8180370
  69.0535470  28.5511640  72.6727310  53.5443060  26.0736800  73.6110370
  52.6499110  26.0403560  73.9504080  54.0840610  26.2723590  74.3761620
  67.2318990  22.8568520  75.4962120  68.1089170  22.8651920  75.8796120
  67.2439830  22.1199360  74.8854470  52.1689210  25.9874070  61.1073940
  51.2653290  26.2504270  60.9325600  52.6529830  26.2585240  60.3273900
  68.6782260  26.7098060  66.3850140  69.2019740  26.2160710  65.7540310
  69.2641680  26.8448420  67.1297710  68.8571980  26.7937930  69.9069690
  67.9074690  26.7601470  70.0214680  69.0384990  27.7038040  69.6719460
  54.7116420  25.0439610  59.0168320  55.4208120  24.6222830  58.5315600
  53.9956360  25.1114840  58.3851670  54.3590580  21.0978940  58.0570970
  55.0818710  21.6387880  58.3752190  54.6315100  20.8242360  57.1812510
  68.1682230  25.9671410  62.3242550  68.6641350  25.7342280  63.1091430
  67.9698300  25.1283250  61.9080190  54.0482770  20.3485130  67.9593590
  54.6958960  19.7982510  67.5188750  54.4684610  20.6028280  68.7809400
  69.5969390  24.6032360  64.8580230  69.4868670  24.4488400  65.7962500
  70.3576980  24.0753300  64.6155640  67.9435110  20.5426490  71.3163230
  68.5807330  21.1560630  71.6822420  68.0910000  20.5787150  70.3712460
  70.4859660  22.4340280  58.0986370  71.4108970  22.3021460  57.8904660
  70.4635450  22.5133100  59.0522820  70.5598150  23.2050940  60.7243080
  69.7649650  23.1396060  61.2535990  70.7641430  24.1401580  60.7128430
  67.5016570  37.2442490  64.7181470  68.0975640  36.9227060  64.0415890
  67.7594720  36.7714310  65.5094740  53.8014770  20.5040800  70.7018910
  53.4529590  20.9604620  71.4677090  53.4702470  19.6097930  70.7841340
  55.4079140  33.6760400  74.8672100  55.3648770  33.3053310  75.7486560
  55.5390150  34.6137970  75.0073920  59.1085170  35.2319990  70.4681820
  58.8676530  35.4994550  69.5812340  60.0487810  35.4025720  70.5232680
  61.3139590  21.6952680  74.2238330  61.2528480  22.2874510  74.9733740
  62.2539970  21.5878640  74.0788590  63.9514150  21.3522740  73.8630620
  64.5654560  21.6702030  73.2011700  64.4963710  20.8671330  74.4826480
  70.3689330  37.2514370  71.2692460  69.8747610  37.6483240  70.5519590
  69.7602620  36.6263580  71.6629740  54.4735410  20.0317000  73.9769680
  55.0218400  19.8505050  73.2135790  54.5390720  19.2411110  74.5125990
  55.2467170  36.6222650  71.9869880  54.6527490  36.4907350  72.7259920
  55.2391010  35.7860790  71.5211980  64.6922190  19.9154880  70.1899910
  63.8182030  20.2489990  69.9872840  64.5832940  19.4428060  71.0151780
  65.5994170  22.1225750  71.5741630  65.2707530  21.3077510  71.1943360
  66.5476470  22.0795560  71.4507320  68.0528780  37.8937790  68.5479200
  67.5931750  38.6453600  68.1737220  67.4241240  37.1744260  68.4894000
  54.8779400  33.9881030  70.9377920  54.1513460  33.3686320  70.8703870
  54.9388550  34.3821640  70.0676000  58.4824500  36.2026030  67.7227330
  58.9989520  35.5913390  67.1975590  59.1321880  36.7054810  68.2138340
  61.2220000  37.0934520  68.5496310  61.5097810  36.8388820  67.6729320
  61.7343220  36.5411880  69.1401880  62.4397010  20.8324720  69.1292820
  61.6568800  21.3070220  69.4089580  62.1459940  19.9279550  69.0206000
  66.9918080  21.5347820  67.1741910  67.4326170  21.4792920  66.3263510
  66.7225670  22.4505830  67.2452090  68.8556650  21.1663060  65.1850730
  68.7945050  20.2224280  65.0381750  69.6348680  21.2743150  65.7304190
  53.1609400  37.3055420  64.1474680  52.9931440  36.6726100  64.8456570
  52.2943910  37.5114820  63.7968870  53.7837420  21.1372200  61.6506540
  54.5416780  21.2501080  61.0770570  53.3214590  21.9741400  61.6049970
  60.3251230  23.2511470  64.6408850  59.5125740  22.8768360  64.3004730
  60.8292870  22.4956550  64.9430040  64.8276210  19.9153920  65.8791920
  65.4305580  20.4874130  66.3540440  64.0869200  20.4793360  65.6565820
  67.9710810  20.3175480  61.1532200  68.1661440  21.2158930  61.4199630
  67.1840680  20.0862560  61.6465150  54.7672100  35.9988650  61.5924820
  54.2419720  36.3796680  60.8886780  54.6916680  36.6239420  62.3134530
  56.1562570  21.6636250  60.1908510  56.6855330  20.8766050  60.0616460
  56.7890890  22.3427440  60.4244040  58.3500410  21.4011390  63.2453900
  57.7203150  20.6998700  63.4124030  57.8105550  22.1615520  63.0287060
  61.2892360  38.0150620  75.9164510  62.2159670  37.7794890  75.9600470
  61.2742790  38.8422620  75.4350540  69.5237420  37.5576190  62.9138760
  69.6989610  36.8713930  62.2699680  68.8258990  38.0823240  62.5215430
  58.4755970  20.6795370  75.6806390  58.1940240  21.1828970  74.9167210
  58.8575670  19.8817120  75.3148520  57.3665070  37.9471030  60.4674070
  58.0983890  37.6630310  59.9197960  57.6258740  37.7084310  61.3573450
  56.5279860  34.0635760  60.4720400  55.8988740  34.5320860  61.0206230
  56.6427690  33.2184980  60.9066590  63.9829580  28.1141420  46.6221600
  63.9023630  27.1996030  46.3513310  63.5694000  28.6108490  45.9161310
  62.1147620  29.8920440  48.5030870  61.3389720  29.4120880  48.7929440
  62.7660550  29.2126090  48.3287030  56.1313450  30.2040250  49.3806630
  55.2998330  29.9488960  49.7803140  56.7394430  30.2751020  50.1164550
  66.1355050  34.2980630  47.2830000  65.6736580  33.5267870  47.6117170
  66.9480600  34.3246700  47.7882450  56.1114710  34.2380340  49.5764650
  56.4142750  33.3478080  49.3974870  56.8558300  34.7950560  49.3486900
  52.5038410  27.7647790  49.0488720  53.0754520  26.9969990  49.0492360
  52.5039950  28.0636550  48.1395330  62.3618360  36.5838640  46.9033990
  61.7429800  37.0396140  46.3328430  63.2170140  36.7390100  46.5023690
  61.5556610  32.5677630  48.5101030  61.4864890  31.6267570  48.3490160
  62.3176470  32.6579040  49.0823600  53.7463280  23.1732150  50.8357650
  53.5666120  22.2757900  51.1160410  53.3443360  23.7204020  51.5104600
  62.5861780  25.3748010  48.7369960  62.9626600  24.5019890  48.6243630
  62.4881290  25.7106710  47.8460400  56.7166790  23.7473640  44.1987400
  56.8233540  24.6477370  44.5056160  55.8059150  23.6991610  43.9082050
  66.3685900  22.8698450  45.6698300  67.1895520  22.3795020  45.7123780
  66.4019980  23.4596110  46.4230140  54.3649950  25.6692650  49.4439990
  55.0460060  25.9331020  50.0627390  54.0498000  24.8293520  49.7778000
  58.5574520  26.7160010  48.5312580  59.0652740  27.2140980  49.1717600
  59.0887760  25.9395210  48.3551940  70.6585450  24.8865200  52.2341930
  69.9537620  25.2746910  51.7157040  70.9243370  25.5815490  52.8362860
  56.8410620  21.3558570  52.7976000  56.8429060  21.8730960  51.9921900
  56.0114930  20.8788750  52.7745930  63.2281710  31.4677880  44.2965900
  62.6098980  31.9327330  43.7328620  63.7404960  32.1605360  44.7135410
  58.0913470  30.9953750  50.9749500  57.7582850  31.6222670  51.6170570
  58.2680150  31.5215630  50.1951170  66.6047380  24.8098830  48.4425840
  65.9002950  25.0983720  49.0228950  66.9659540  25.6198940  48.0825400
  56.5225950  23.0668530  50.8046450  56.8642760  23.9110580  50.5100320
  55.5841760  23.2152270  50.9211790  57.3032570  32.9634550  52.7898680
  57.9206570  33.6385630  52.5083130  56.4425690  33.3722530  52.6986180
  68.2210160  34.4273960  50.7053320  67.5373680  35.0973070  50.6969990
  68.7604450  34.6254610  49.9398180  69.6734300  24.2553620  48.8335050
  68.7259210  24.2892600  48.9650480  69.9984290  25.0692570  49.2184410
  60.2053840  20.5550800  47.1291040  60.5128820  19.9997690  46.4126540
  59.2754540  20.6895260  46.9464030  65.7568900  36.2718090  49.4198500
  65.7696060  35.8680380  48.5520760  65.2044120  37.0465380  49.3159930
  67.0514320  32.9934310  44.5088670  66.9410650  32.0508640  44.6338090
  67.0482570  33.3549950  45.3951430  65.1554340  31.1747930  50.7481110
  65.5723130  30.9608040  49.9134570  65.8794160  31.4320720  51.3189730
  62.5934600  28.6199630  43.8651160  61.6663880  28.5537010  44.0939630
  62.7459420  29.5579760  43.7506400  62.5803680  24.8916630  40.8618320
  61.6407350  25.0530590  40.9470780  62.8986940  25.6102310  40.3154310
  69.1016440  29.5735150  50.8397350  68.2735070  29.6428240  50.3647480
  69.6966920  30.1589460  50.3713180  66.6231890  30.1819930  44.3686410
  66.0044310  29.8439480  43.7212710  66.6056340  29.5379690  45.0765600
  66.0658450  26.3604470  51.7852220  65.6529630  27.1858180  52.0392210
  65.3334400  25.7749510  51.5928580  58.6672940  32.8331930  48.8110100
  58.3701230  32.2277400  48.1317880  59.6172760  32.8709240  48.6999460
  56.9119860  25.9207580  50.4269930  57.4634450  26.0302920  49.6523180
  57.4263370  26.2945180  51.1425160  66.7558550  36.4063800  52.4733200
  66.2789110  37.2135990  52.2805810  66.0720340  35.7542130  52.6259410
  57.7591370  32.5713620  55.4617900  56.8619900  32.7953590  55.7091300
  57.7844240  32.6948560  54.5129300  64.7996590  29.4206740  41.3759160
  65.2389870  28.5829170  41.2296980  65.5125010  30.0536140  41.4623300
  56.5862590  29.4426940  54.0375270  56.4470360  30.3149740  54.4062670
  55.7043950  29.0999750  53.8923210  62.9091970  34.3602810  45.3440400
  63.3487880  35.1027140  44.9295790  62.8478860  34.6029380  46.2679360
  58.3842940  35.3848640  56.2460420  58.3558370  35.7891590  55.3788850
  58.2207910  34.4559000  56.0832020  68.3813730  20.6749550  39.6900200
  68.0686390  20.7676380  40.5899270  69.1426200  21.2530580  39.6397630
  70.3357760  36.1675740  57.5424590  70.8117480  36.6458630  58.2213670
  70.9564920  36.0993230  56.8170090  52.5381240  31.2124490  49.9546180
  52.6161660  31.3473260  49.0101900  53.1522920  30.5040380  50.1474300
  53.7828870  32.9124680  46.3652360  53.3756950  33.0539270  45.5105960
  54.6741880  32.6284840  46.1623570  69.7391010  33.3588590  54.7024600
  69.8654070  33.1200470  53.7841780  69.7812390  32.5273130  55.1746680
  63.6007750  37.0616590  53.2719410  64.1152420  36.9724600  54.0741840
  62.7576830  37.4076290  53.5647320  65.5762150  37.3471930  42.7003410
  65.4163290  37.0574870  43.5985240  65.4108860  36.5712060  42.1648640
  65.2788280  34.8559490  41.2601410  64.5853440  34.8536780  40.6003690
  66.0211140  34.4318810  40.8295580  64.8438210  36.4822200  45.3349900
  65.2995160  35.7011580  45.6488520  65.1830730  37.1929020  45.8791080
  69.5915020  25.4121050  55.6674340  68.9759290  25.9200720  55.1389800
  69.2711440  24.5119380  55.6100280  52.5940760  32.2538660  52.4940640
  52.7571800  31.7844020  51.6760010  53.0593210  31.7462220  53.1589480
  57.3659530  21.3844420  47.5301210  56.9227680  22.1653960  47.1985730
  57.9244520  21.7074310  48.2372150  61.6529340  24.2512940  53.1336530
  61.1908710  24.4595960  53.9456470  61.2507450  23.4372290  52.8307200
  66.6533850  25.4721890  54.2633190  65.8027440  25.1727640  54.5842260
  66.4935640  25.7163900  53.3517010  63.7483560  26.9723640  56.3631980
  64.0736970  26.1387390  56.0234210  64.5363890  27.4952160  56.5110310
  60.4818350  21.0055120  42.4107040  59.8572530  21.0014990  43.1360350
  60.3948470  20.1386080  42.0143010  59.4035430  21.9291750  49.3890810
  59.7007760  22.8354580  49.3082830  59.9520990  21.4410530  48.7750380
  64.3871510  26.5141360  43.8573110  63.7880400  27.2377160  43.6736730
  64.9351120  26.4518140  43.0749560  59.5972960  27.4063570  55.9242730
  59.5016560  26.4658300  55.7743130  60.4404940  27.6278640  55.5290800
  62.9936380  25.1504900  45.8876390  63.3865950  25.4677100  45.0745080
  63.3553230  24.2716780  46.0020910  54.7283500  23.8177240  54.0776510
  54.3346890  24.6652450  54.2849290  54.0401900  23.1803610  54.2685150
  61.3028550  23.9012210  57.1473250  60.6126870  23.7084410  57.7819340
  62.0460850  24.1846850  57.6797550  52.0300550  21.7405700  48.1106590
  51.7413600  22.3108560  48.8231570  52.7746310  21.2610150  48.4737820
  63.5791520  27.7410650  49.9827170  62.8472640  28.2497460  50.3317270
  63.1815860  26.9240630  49.6815950  60.0168910  24.4164850  48.3879660
  60.0204970  23.9754800  47.5384200  60.9120030  24.7382180  48.4951480
  55.8671290  24.2991340  47.3473870  55.5271340  24.7766570  48.1040920
  55.1048610  23.8456460  46.9874970  64.0417430  23.1944330  49.3950110
  64.0590170  23.6452980  50.2391960  63.7933010  22.2949970  49.6083550
  67.4688180  20.6076510  55.2336490  67.7933950  19.8766170  55.7594470
  67.5044690  20.2890150  54.3317480  54.1679740  31.6290090  54.6536450
  53.7834530  30.9883760  55.2519410  54.4791930  32.3326210  55.2231180
  60.3176880  28.4766630  50.1345070  60.6847010  28.0025200  50.8806410
  60.1281940  29.3508200  50.4753410  53.1817370  23.2210320  46.2638540
  52.8964290  22.8565990  47.1017160  53.1196230  22.4890780  45.6501680
  58.1076250  27.5175270  52.4529280  57.8033320  28.3967250  52.6779640
  59.0622710  27.5775060  52.4886720  67.3946020  30.7201620  48.8422520
  68.1145140  31.2156910  48.4518630  67.1927840  30.0419510  48.1976390
  62.8555960  22.1139580  42.9851910  62.0420570  21.6152750  42.9097220
  62.6617910  22.9537830  42.5688260  62.7764820  30.7910680  54.7291520
  62.7102130  29.8706350  54.4749110  62.1469960  30.8886120  55.4436160
  65.5704350  26.4859230  41.2814070  66.4583970  26.7976460  41.1065410
  65.5409440  25.6131480  40.8894650  61.5664940  32.6582920  41.9602240
  61.9080640  33.4025150  41.4645560  60.7377650  32.9714040  42.3227070
  54.1639980  28.3578010  53.6000640  53.8054920  29.0231860  54.1873980
  53.8694540  27.5261560  53.9713260  57.3653100  28.8162250  56.4840190
  57.0653240  28.9619430  55.5868010  58.1364340  28.2567540  56.3913580
  62.7081550  33.6131250  54.4795320  62.7226090  32.6812210  54.2614230
  62.0006650  33.6991010  55.1185090  67.8418620  27.7971070  40.7493930
  67.7582340  28.2285290  39.8990370  68.5612810  28.2569420  41.1820750
  68.9192760  30.2538590  53.8263900  68.1940950  30.8467370  53.6293290
  69.4468220  30.2462130  53.0277270  68.8705870  34.6513330  43.4776060
  68.2282030  33.9968950  43.7519780  68.4836530  35.0568420  42.7016730
  64.4492350  31.9798760  47.3247750  64.8016170  31.3826890  46.6649120
  63.5654680  31.6542990  47.4956000  60.5355630  32.7396450  44.7318160
  61.2226760  33.2865660  45.1125750  59.7488050  33.2837180  44.7667770
  59.8382840  29.7442480  44.3443520  60.2945620  30.5547730  44.5703710
  59.4871050  29.4265620  45.1762010  62.1415450  35.2548820  51.5735820
  62.7857670  35.4608200  52.2509240  62.5044890  34.4937220  51.1206670
  55.7394620  20.0880130  44.8166040  55.6109250  20.0798030  45.7650960
  54.9156640  20.4263220  44.4657050  63.4147530  33.2581170  50.2913270
  64.0569760  32.5574330  50.4045440  63.9396880  34.0379610  50.1110160
  67.2603250  33.5429790  40.0152410  67.0340830  32.8260230  40.6077050
  66.8699450  33.2942230  39.1774160  65.1885150  34.0576070  53.4949330
  65.5241390  34.6442760  54.1727250  64.2685490  33.9268780  53.7247120
  52.7388550  21.8471250  54.2772740  52.0247070  22.0468170  54.8825350
  53.1583590  21.0710820  54.6487540  66.8419500  31.4601730  41.6766570
  66.5541200  31.9214420  42.4644450  67.6371670  30.9999500  41.9450790
  53.0261140  35.8351510  55.2639270  53.1352260  34.8946250  55.1234660
  52.3741700  36.1006260  54.6153000  61.0173730  34.1067400  56.6637390
  60.6970600  33.3876640  57.2083080  60.3432090  34.7822470  56.7373450
  59.0587900  34.9527850  41.6070540  59.0498000  35.6857540  40.9915050
  58.1386260  34.7059430  41.6997500  64.2327330  24.3393560  52.0274190
  64.6008150  23.5188770  52.3553760  63.3725530  24.3995450  52.4429840
  67.5989360  23.2950500  42.8361750  66.9702520  23.3996170  42.1219980
  67.1041280  23.5147280  43.6255630  62.0447500  35.0156090  40.2695730
  62.1459480  34.8120080  39.3397710  61.1449240  34.7614370  40.4743510
  59.5673390  25.5736450  44.2519630  58.8589540  26.0422790  44.6933240
  59.8517870  24.9158460  44.8864820  61.1929320  26.9933150  52.2512160
  61.6914570  27.4678970  52.9164010  61.3352270  26.0696670  52.4582190
  63.5988820  22.2987110  45.6915420  63.4756600  22.3173240  44.7424930
  64.5473380  22.3466050  45.8113820  60.6865610  37.5342410  44.9643400
  60.9407110  37.4963800  44.0422770  59.7378090  37.4075740  44.9571650
  68.3996180  23.2101110  53.0940550  67.8969780  23.9506510  53.4334360
  69.2152840  23.5985110  52.7777340  66.6918190  28.4534290  46.5401910
  65.7508330  28.4684520  46.7149600  67.0062260  27.6670250  46.9862210
  68.6943770  35.6243140  48.2156170  68.8191190  36.4474310  48.6879980
  69.5609330  35.4133870  47.8680320  56.1661300  37.7174350  47.8873300
  56.9023780  37.1689810  48.1581870  56.5502220  38.5830360  47.7479290
  53.0506780  33.7847920  43.7614810  52.1246560  34.0269060  43.7520220
  53.5163210  34.6122180  43.6399560  55.1719580  36.9020420  57.0758880
  55.9732310  37.2232470  57.4894280  54.6571400  36.5416000  57.7978790
  64.0084210  33.0100290  57.0234290  63.4022370  33.0331890  56.2830040
  63.7038320  32.2783330  57.5601540  65.4384580  36.7380580  55.6343700
  66.3906330  36.6538600  55.5843940  65.2912800  37.4022290  56.3077490
  68.3293780  36.1174790  41.1335610  68.0435290  35.7039930  40.3189790
  68.1313330  37.0462500  41.0136130  52.8917390  29.3893880  56.0194930
  53.3956410  28.8101160  56.5911160  52.1524810  29.6734110  56.5571300
  59.7941010  32.1108070  39.5741220  59.6891650  31.4960420  40.3002600
  59.6265230  31.5873960  38.7904230  59.9455330  30.7964870  55.5530450
  59.1801000  31.3649870  55.4685120  60.1271290  30.5041080  54.6598680
  63.0343740  31.1728100  40.1783210  62.4853840  31.6197400  40.8225950
  63.6563000  30.6677350  40.7020880  67.0878680  32.5270200  56.1105470
  67.8288150  32.8645960  55.6072930  66.3251360  32.6962260  55.5575240
  54.9240470  27.5323470  56.9145000  54.9645810  27.2337340  57.8230230
  55.7785970  27.9331080  56.7552520  56.8646280  26.1115570  54.8819490
  56.3342740  25.6206520  54.2542830  57.5334350  26.5399770  54.3477420
  61.2146500  29.1556630  39.3225610  61.7352160  28.4405650  38.9566760
  61.8614900  29.7942500  39.6226120  65.7624340  30.5785030  54.6460680
  66.1765360  30.7330110  55.4951100  64.8275340  30.7040250  54.8086460
  66.2346510  27.9181190  56.6499830  66.8167280  27.1633510  56.5620310
  66.4108280  28.4488630  55.8731310  57.3518580  23.0777940  54.9616780
  57.2575450  22.4598690  54.2367650  56.7715970  23.8044230  54.7346690
  60.1180020  21.6351180  51.9944170  59.6697320  21.6575440  51.1489720
  59.4845220  21.2370200  52.5914470  60.5239570  30.5305510  52.6156610
  60.9427680  31.3738240  52.4432850  59.6048200  30.6677550  52.3863390
  62.8603470  28.2621690  53.9994450  62.9799680  27.6662830  54.7389290
  63.7197470  28.2991380  53.5795750  65.1991370  28.8158880  52.5756960
  64.6726590  29.3401500  51.9722100  65.5422710  29.4486270  53.2066690
  58.3746990  36.8358520  53.7314340  57.8368080  37.5604580  53.4123040
  58.6280950  36.3588860  52.9411680  59.6272240  24.8043040  55.2570270
  60.2171930  24.4958890  55.9448090  58.8092480  24.3322790  55.4130170
  64.4465670  24.4208850  55.4903290  63.7581190  23.7590390  55.4253280
  65.1671690  23.9747120  55.9351750  65.0766070  21.0160480  41.5493550
  65.3568360  20.1728380  41.9052970  64.3031800  21.2483590  42.0632300
  56.3960560  23.3052870  39.0084550  56.6986460  23.3120300  38.1003700
  57.1355150  22.9550730  39.5052210  61.2309200  38.0709730  53.9900990
  61.1567900  38.9744870  54.2973360  60.3288040  37.7521630  53.9623060
  59.6145490  22.2487490  39.9940750  59.2667490  21.5711480  39.4143200
  59.8158260  21.7877000  40.8084140  61.7794530  37.2368240  41.6127350
  62.6745320  37.5753210  41.6346110  61.8112160  36.5147650  40.9851630
  55.4190690  32.6095290  39.8414350  55.8565560  33.1524960  40.4971930
  55.9038420  31.7842240  39.8510690  52.6336490  35.3984320  47.2934610
  52.9639500  34.5305380  47.0613250  53.0627490  35.6042840  48.1239570
  57.2298410  33.7293330  44.9536580  56.9293950  33.6058300  45.8540490
  57.1235900  32.8701920  44.5452310  53.1226700  36.2654910  50.0316240
  52.6857690  36.4455710  50.8640390  53.6904380  37.0229530  49.8897960
  68.7588880  35.7671910  54.3193550  68.1590870  35.8264470  53.5757470
  68.8882780  34.8276890  54.4490400  69.9990330  33.5089730  39.6563260
  69.1683290  33.5766380  40.1270490  70.1762160  34.3993850  39.3530120
  69.4546790  30.2537210  42.1597460  70.2165700  30.8233860  42.2657150
  69.4701160  29.6864410  42.9305770  70.4606760  31.1087310  47.0039390
  70.8315590  30.3254630  46.5975360  71.1008690  31.7976410  46.8256690
  67.4440520  32.4923890  52.4169710  66.6300360  32.9221050  52.6795500
  67.8514720  33.1042300  51.8038760  69.5065960  30.5471580  39.3169980
  69.7814800  31.4550460  39.1889200  69.3176700  30.4834110  40.2531970
  65.9041570  23.5716430  40.6123610  66.3226450  23.3847410  39.7720270
  65.5977630  22.7195480  40.9226540  69.4031300  28.4840570  44.3099410
  69.0274900  27.7168500  43.8780700  68.6734420  28.8663270  44.7974340
  53.9927060  29.1627710  50.9308460  54.3600100  29.0755110  51.8104480
  53.4237880  28.3994260  50.8315320  68.7930920  27.6312090  53.9438930
  68.5617010  27.4024840  53.0436880  69.0535470  28.5511640  53.8983820
  53.5443060  26.0736800  54.8366880  52.6499110  26.0403560  55.1760590
  54.0840610  26.2723590  55.6018130  67.2318990  22.8568520  56.7218630
  68.1089170  22.8651920  57.1052630  67.2439830  22.1199360  56.1110980
  68.6782260  26.7098060  47.6106650  69.2019740  26.2160710  46.9796820
  69.2641680  26.8448420  48.3554220  68.8571980  26.7937930  51.1326200
  67.9074690  26.7601470  51.2471190  69.0384990  27.7038040  50.8975970
  54.3590580  21.0978940  39.2827480  55.0818710  21.6387880  39.6008700
  54.6315100  20.8242360  38.4069020  68.1682230  25.9671410  43.5499060
  68.6641350  25.7342280  44.3347940  67.9698300  25.1283250  43.1336700
  54.0482770  20.3485130  49.1850100  54.6958960  19.7982510  48.7445260
  54.4684610  20.6028280  50.0065910  69.5969390  24.6032360  46.0836740
  69.4868670  24.4488400  47.0219010  70.3576980  24.0753300  45.8412150
  67.9435110  20.5426490  52.5419740  68.5807330  21.1560630  52.9078930
  68.0910000  20.5787150  51.5968970  70.4859660  22.4340280  39.3242880
  71.4108970  22.3021460  39.1161170  70.4635450  22.5133100  40.2779330
  70.5598150  23.2050940  41.9499590  69.7649650  23.1396060  42.4792500
  70.7641430  24.1401580  41.9384940  67.5016570  37.2442490  45.9437980
  68.0975640  36.9227060  45.2672400  67.7594720  36.7714310  46.7351250
  53.8014770  20.5040800  51.9275420  53.4529590  20.9604620  52.6933600
  53.4702470  19.6097930  52.0097850  55.4079140  33.6760400  56.0928610
  55.3648770  33.3053310  56.9743070  55.5390150  34.6137970  56.2330430
  59.1085170  35.2319990  51.6938330  58.8676530  35.4994550  50.8068850
  60.0487810  35.4025720  51.7489190  61.3139590  21.6952680  55.4494840
  61.2528480  22.2874510  56.1990250  62.2539970  21.5878640  55.3045100
  63.9514150  21.3522740  55.0887130  64.5654560  21.6702030  54.4268210
  64.4963710  20.8671330  55.7082990  70.3689330  37.2514370  52.4948970
  69.8747610  37.6483240  51.7776100  69.7602620  36.6263580  52.8886250
  54.4735410  20.0317000  55.2026190  55.0218400  19.8505050  54.4392300
  54.5390720  19.2411110  55.7382500  55.2467170  36.6222650  53.2126390
  54.6527490  36.4907350  53.9516430  55.2391010  35.7860790  52.7468490
  64.6922190  19.9154880  51.4156420  63.8182030  20.2489990  51.2129350
  64.5832940  19.4428060  52.2408290  65.5994170  22.1225750  52.7998140
  65.2707530  21.3077510  52.4199870  66.5476470  22.0795560  52.6763830
  68.0528780  37.8937790  49.7735710  67.5931750  38.6453600  49.3993730
  67.4241240  37.1744260  49.7150510  54.8779400  33.9881030  52.1634430
  54.1513460  33.3686320  52.0960380  54.9388550  34.3821640  51.2932510
  58.4824500  36.2026030  48.9483840  58.9989520  35.5913390  48.4232100
  59.1321880  36.7054810  49.4394850  61.2220000  37.0934520  49.7752820
  61.5097810  36.8388820  48.8985830  61.7343220  36.5411880  50.3658390
  62.4397010  20.8324720  50.3549330  61.6568800  21.3070220  50.6346090
  62.1459940  19.9279550  50.2462510  66.9918080  21.5347820  48.3998420
  67.4326170  21.4792920  47.5520020  66.7225670  22.4505830  48.4708600
  68.8556650  21.1663060  46.4107240  68.7945050  20.2224280  46.2638260
  69.6348680  21.2743150  46.9560700  60.3251230  23.2511470  45.8665360
  59.5125740  22.8768360  45.5261240  60.8292870  22.4956550  46.1686550
  64.8276210  19.9153920  47.1048430  65.4305580  20.4874130  47.5796950
  64.0869200  20.4793360  46.8822330  67.9710810  20.3175480  42.3788710
  68.1661440  21.2158930  42.6456140  67.1840680  20.0862560  42.8721660
  56.1562570  21.6636250  41.4165020  56.6855330  20.8766050  41.2872970
  56.7890890  22.3427440  41.6500550  58.3500410  21.4011390  44.4710410
  57.7203150  20.6998700  44.6380540  57.8105550  22.1615520  44.2543570
  61.2892360  38.0150620  57.1421020  62.2159670  37.7794890  57.1856980
  61.2742790  38.8422620  56.6607050  69.5237420  37.5576190  44.1395270
  69.6989610  36.8713930  43.4956190  68.8258990  38.0823240  43.7471940
  58.4755970  20.6795370  56.9062900  58.1940240  21.1828970  56.1423720
  58.8575670  19.8817120  56.5405030  56.5279860  34.0635760  41.6976910
  55.8988740  34.5320860  42.2462740  56.6427690  33.2184980  42.1323100
  65.0771430  20.0948950  57.4843370  64.9636880  20.4143560  58.3794890
  65.8941170  20.4961460  57.1880650  67.8569920  37.2420480  56.9662060
  68.6495240  36.7469710  56.7588020  68.1503070  37.9210620  57.5737670
  63.9829580  28.1141420  27.8478110  63.9023630  27.1996030  27.5769820
  63.5694000  28.6108490  27.1417820  62.1147620  29.8920440  29.7287380
  61.3389720  29.4120880  30.0185950  62.7660550  29.2126090  29.5543540
  56.1313450  30.2040250  30.6063140  55.2998330  29.9488960  31.0059650
  56.7394430  30.2751020  31.3421060  66.1355050  34.2980630  28.5086510
  65.6736580  33.5267870  28.8373680  66.9480600  34.3246700  29.0138960
  54.5405400  25.1642140  24.3905530  53.6522100  25.5058110  24.2885410
  54.8246590  24.9642460  23.4986360  52.5038410  27.7647790  30.2745230
  53.0754520  26.9969990  30.2748870  52.5039950  28.0636550  29.3651840
  62.3618360  36.5838640  28.1290500  61.7429800  37.0396140  27.5584940
  63.2170140  36.7390100  27.7280200  61.5556610  32.5677630  29.7357540
  61.4864890  31.6267570  29.5746670  62.3176470  32.6579040  30.3080110
  62.5861780  25.3748010  29.9626470  62.9626600  24.5019890  29.8500140
  62.4881290  25.7106710  29.0716910  56.7166790  23.7473640  25.4243910
  56.8233540  24.6477370  25.7312670  55.8059150  23.6991610  25.1338560
  66.3685900  22.8698450  26.8954810  67.1895520  22.3795020  26.9380290
  66.4019980  23.4596110  27.6486650  58.5574520  26.7160010  29.7569090
  59.0652740  27.2140980  30.3974110  59.0887760  25.9395210  29.5808450
  70.6585450  24.8865200  33.4598440  69.9537620  25.2746910  32.9413550
  70.9243370  25.5815490  34.0619370  63.2281710  31.4677880  25.5222410
  62.6098980  31.9327330  24.9585130  63.7404960  32.1605360  25.9391920
  66.6047380  24.8098830  29.6682350  65.9002950  25.0983720  30.2485460
  66.9659540  25.6198940  29.3081910  52.5964910  32.1534410  22.8962040
  52.2192890  32.6421510  22.1646940  52.8537980  32.8259690  23.5268570
  68.2210160  34.4273960  31.9309830  67.5373680  35.0973070  31.9226500
  68.7604450  34.6254610  31.1654690  69.6734300  24.2553620  30.0591560
  68.7259210  24.2892600  30.1906990  69.9984290  25.0692570  30.4440920
  60.2053840  20.5550800  28.3547550  60.5128820  19.9997690  27.6383050
  59.2754540  20.6895260  28.1720540  65.7568900  36.2718090  30.6455010
  65.7696060  35.8680380  29.7777270  65.2044120  37.0465380  30.5416440
  67.0514320  32.9934310  25.7345180  66.9410650  32.0508640  25.8594600
  67.0482570  33.3549950  26.6207940  65.1554340  31.1747930  31.9737620
  65.5723130  30.9608040  31.1391080  65.8794160  31.4320720  32.5446240
  62.5934600  28.6199630  25.0907670  61.6663880  28.5537010  25.3196140
  62.7459420  29.5579760  24.9762910  62.5803680  24.8916630  22.0874830
  61.6407350  25.0530590  22.1727290  62.8986940  25.6102310  21.5410820
  69.1016440  29.5735150  32.0653860  68.2735070  29.6428240  31.5903990
  69.6966920  30.1589460  31.5969690  66.6231890  30.1819930  25.5942920
  66.0044310  29.8439480  24.9469220  66.6056340  29.5379690  26.3022110
  66.0658450  26.3604470  33.0108730  65.6529630  27.1858180  33.2648720
  65.3334400  25.7749510  32.8185090  58.1991240  29.1464370  27.8727400
  57.7948240  28.4341620  27.3773300  58.2854360  28.8017610  28.7615440
  58.6672940  32.8331930  30.0366610  58.3701230  32.2277400  29.3574390
  59.6172760  32.8709240  29.9255970  66.7558550  36.4063800  33.6989710
  66.2789110  37.2135990  33.5062320  66.0720340  35.7542130  33.8515920
  64.7996590  29.4206740  22.6015670  65.2389870  28.5829170  22.4553490
  65.5125010  30.0536140  22.6879810  56.5862590  29.4426940  35.2631780
  56.4470360  30.3149740  35.6319180  55.7043950  29.0999750  35.1179720
  62.9091970  34.3602810  26.5696910  63.3487880  35.1027140  26.1552300
  62.8478860  34.6029380  27.4935870  68.3813730  20.6749550  20.9156710
  68.0686390  20.7676380  21.8155780  69.1426200  21.2530580  20.8654140
  54.8995870  28.0409350  25.3734050  54.7793470  28.7671440  24.7615320
  54.5896760  27.2712260  24.8961960  70.3357760  36.1675740  38.7681100
  70.8117480  36.6458630  39.4470180  70.9564920  36.0993230  38.0426600
  69.7391010  33.3588590  35.9281110  69.8654070  33.1200470  35.0098290
  69.7812390  32.5273130  36.4003190  63.6007750  37.0616590  34.4975920
  64.1152420  36.9724600  35.2998350  62.7576830  37.4076290  34.7903830
  65.5762150  37.3471930  23.9259920  65.4163290  37.0574870  24.8241750
  65.4108860  36.5712060  23.3905150  58.0550530  37.1270460  25.7031540
  57.8793010  36.2106000  25.4899340  57.2006270  37.4857750  25.9429340
  65.2788280  34.8559490  22.4857920  64.5853440  34.8536780  21.8260200
  66.0211140  34.4318810  22.0552090  64.8438210  36.4822200  26.5606410
  65.2995160  35.7011580  26.8745030  65.1830730  37.1929020  27.1047590
  69.5915020  25.4121050  36.8930850  68.9759290  25.9200720  36.3646310
  69.2711440  24.5119380  36.8356790  57.3659530  21.3844420  28.7557720
  56.9227680  22.1653960  28.4242240  57.9244520  21.7074310  29.4628660
  61.6529340  24.2512940  34.3593040  61.1908710  24.4595960  35.1712980
  61.2507450  23.4372290  34.0563710  66.6533850  25.4721890  35.4889700
  65.8027440  25.1727640  35.8098770  66.4935640  25.7163900  34.5773520
  63.7483560  26.9723640  37.5888490  64.0736970  26.1387390  37.2490720
  64.5363890  27.4952160  37.7366820  60.4818350  21.0055120  23.6363550
  59.8572530  21.0014990  24.3616860  60.3948470  20.1386080  23.2399520
  59.4035430  21.9291750  30.6147320  59.7007760  22.8354580  30.5339340
  59.9520990  21.4410530  30.0006890  57.1573750  26.5077990  26.4838970
  56.9314670  26.2915160  27.3885590  56.3766280  26.9406450  26.1384940
  64.3871510  26.5141360  25.0829620  63.7880400  27.2377160  24.8993240
  64.9351120  26.4518140  24.3006070  62.9936380  25.1504900  27.1132900
  63.3865950  25.4677100  26.3001590  63.3553230  24.2716780  27.2277420
  61.3028550  23.9012210  38.3729760  60.6126870  23.7084410  39.0075850
  62.0460850  24.1846850  38.9054060  52.2170780  25.6825820  20.5465820
  52.1345450  26.6256580  20.6880810  51.8653840  25.5400730  19.6678170
  63.5791520  27.7410650  31.2083680  62.8472640  28.2497460  31.5573780
  63.1815860  26.9240630  30.9072460  60.0168910  24.4164850  29.6136170
  60.0204970  23.9754800  28.7640710  60.9120030  24.7382180  29.7207990
  55.8671290  24.2991340  28.5730380  55.5271340  24.7766570  29.3297430
  55.1048610  23.8456460  28.2131480  60.0789060  25.4176930  22.6042930
  60.2001880  25.3763410  23.5528750  59.6937570  26.2801080  22.4489660
  64.0417430  23.1944330  30.6206620  64.0590170  23.6452980  31.4648470
  63.7933010  22.2949970  30.8340060  59.0910560  27.7278070  22.0026230
  58.5227460  27.2796320  21.3762140  59.7999560  28.0870850  21.4691380
  67.4688180  20.6076510  36.4593000  67.7933950  19.8766170  36.9850980
  67.5044690  20.2890150  35.5573990  60.3176880  28.4766630  31.3601580
  60.6847010  28.0025200  32.1062920  60.1281940  29.3508200  31.7009920
  53.1817370  23.2210320  27.4895050  52.8964290  22.8565990  28.3273670
  53.1196230  22.4890780  26.8758190  58.1076250  27.5175270  33.6785790
  57.8033320  28.3967250  33.9036150  59.0622710  27.5775060  33.7143230
  56.6358040  31.7236260  24.2752640  55.8620300  31.1833880  24.1151360
  57.3652670  31.2042870  23.9370400  67.3946020  30.7201620  30.0679030
  68.1145140  31.2156910  29.6775140  67.1927840  30.0419510  29.4232900
  62.8555960  22.1139580  24.2108420  62.0420570  21.6152750  24.1353730
  62.6617910  22.9537830  23.7944770  62.7764820  30.7910680  35.9548030
  62.7102130  29.8706350  35.7005620  62.1469960  30.8886120  36.6692670
  65.5704350  26.4859230  22.5070580  66.4583970  26.7976460  22.3321920
  65.5409440  25.6131480  22.1151160  56.6795440  31.3916640  27.9131450
  57.1974110  30.5884900  27.8588340  56.2279460  31.3295780  28.7548280
  61.5664940  32.6582920  23.1858750  61.9080640  33.4025150  22.6902070
  60.7377650  32.9714040  23.5483580  62.7081550  33.6131250  35.7051830
  62.7226090  32.6812210  35.4870740  62.0006650  33.6991010  36.3441600
  67.8418620  27.7971070  21.9750440  67.7582340  28.2285290  21.1246880
  68.5612810  28.2569420  22.4077260  68.9192760  30.2538590  35.0520410
  68.1940950  30.8467370  34.8549800  69.4468220  30.2462130  34.2533780
  68.8705870  34.6513330  24.7032570  68.2282030  33.9968950  24.9776290
  68.4836530  35.0568420  23.9273240  64.4492350  31.9798760  28.5504260
  64.8016170  31.3826890  27.8905630  63.5654680  31.6542990  28.7212510
  60.5355630  32.7396450  25.9574670  61.2226760  33.2865660  26.3382260
  59.7488050  33.2837180  25.9924280  52.6748030  28.3569270  21.4491750
  53.5442880  28.6394070  21.7327670  52.1838350  29.1705140  21.3340560
  59.8382840  29.7442480  25.5700030  60.2945620  30.5547730  25.7960220
  59.4871050  29.4265620  26.4018520  62.1415450  35.2548820  32.7992330
  62.7857670  35.4608200  33.4765750  62.5044890  34.4937220  32.3463180
  55.7394620  20.0880130  26.0422550  55.6109250  20.0798030  26.9907470
  54.9156640  20.4263220  25.6913560  63.4147530  33.2581170  31.5169780
  64.0569760  32.5574330  31.6301950  63.9396880  34.0379610  31.3366670
  67.2603250  33.5429790  21.2408920  67.0340830  32.8260230  21.8333560
  66.8699450  33.2942230  20.4030670  65.1885150  34.0576070  34.7205840
  65.5241390  34.6442760  35.3983760  64.2685490  33.9268780  34.9503630
  53.0419280  37.5696650  22.0153380  53.4016920  38.1685990  21.3610650
  52.9011620  38.1156540  22.7888410  66.8419500  31.4601730  22.9023080
  66.5541200  31.9214420  23.6900960  67.6371670  30.9999500  23.1707300
  61.0173730  34.1067400  37.8893900  60.6970600  33.3876640  38.4339590
  60.3432090  34.7822470  37.9629960  59.0587900  34.9527850  22.8327050
  59.0498000  35.6857540  22.2171560  58.1386260  34.7059430  22.9254010
  54.6594540  30.1742740  23.5773810  54.0522490  30.9141640  23.5869110
  55.1343890  30.2642100  22.7512010  64.2327330  24.3393560  33.2530700
  64.6008150  23.5188770  33.5810270  63.3725530  24.3995450  33.6686350
  67.5989360  23.2950500  24.0618260  66.9702520  23.3996170  23.3476490
  67.1041280  23.5147280  24.8512140  62.0447500  35.0156090  21.4952240
  62.1459480  34.8120080  20.5654220  61.1449240  34.7614370  21.7000020
  59.5673390  25.5736450  25.4776140  58.8589540  26.0422790  25.9189750
  59.8517870  24.9158460  26.1121330  61.1929320  26.9933150  33.4768670
  61.6914570  27.4678970  34.1420520  61.3352270  26.0696670  33.6838700
  63.5988820  22.2987110  26.9171930  63.4756600  22.3173240  25.9681440
  64.5473380  22.3466050  27.0370330  60.6865610  37.5342410  26.1899910
  60.9407110  37.4963800  25.2679280  59.7378090  37.4075740  26.1828160
  57.7708410  23.8821530  22.8526850  58.6198940  24.3191680  22.7867040
  57.4039680  24.1941790  23.6798910  68.3996180  23.2101110  34.3197060
  67.8969780  23.9506510  34.6590870  69.2152840  23.5985110  34.0033850
  66.6918190  28.4534290  27.7658420  65.7508330  28.4684520  27.9406110
  67.0062260  27.6670250  28.2118720  56.6699830  30.1353890  21.3262380
  57.4363100  30.0235250  21.8887810  56.7474520  29.4391860  20.6739150
  55.3646590  27.5678960  22.0095270  55.4450180  26.6206470  22.1212670
  56.2566340  27.8985840  22.1155930  68.6943770  35.6243140  29.4412680
  68.8191190  36.4474310  29.9136490  69.5609330  35.4133870  29.0936830
  56.1661300  37.7174350  29.1129810  56.9023780  37.1689810  29.3838380
  56.5502220  38.5830360  28.9735800  53.0506780  33.7847920  24.9871320
  52.1246560  34.0269060  24.9776730  53.5163210  34.6122180  24.8656070
  59.2763610  36.8904660  20.9355380  60.0692220  37.1793490  20.4837170
  58.7567960  36.4596830  20.2567860  64.0084210  33.0100290  38.2490800
  63.4022370  33.0331890  37.5086550  63.7038320  32.2783330  38.7858050
  65.4384580  36.7380580  36.8600210  66.3906330  36.6538600  36.8100450
  65.2912800  37.4022290  37.5334000  68.3293780  36.1174790  22.3592120
  68.0435290  35.7039930  21.5446300  68.1313330  37.0462500  22.2392640
  59.7941010  32.1108070  20.7997730  59.6891650  31.4960420  21.5259110
  59.6265230  31.5873960  20.0160740  59.9455330  30.7964870  36.7786960
  59.1801000  31.3649870  36.6941630  60.1271290  30.5041080  35.8855190
  63.0343740  31.1728100  21.4039720  62.4853840  31.6197400  22.0482460
  63.6563000  30.6677350  21.9277390  67.0878680  32.5270200  37.3361980
  67.8288150  32.8645960  36.8329440  66.3251360  32.6962260  36.7831750
  58.7018860  30.1319020  23.3005020  59.1235280  29.9658890  24.1436410
  58.8269700  29.3219250  22.8060160  61.2146500  29.1556630  20.5482120
  61.7352160  28.4405650  20.1823270  61.8614900  29.7942500  20.8482630
  65.7624340  30.5785030  35.8717190  66.1765360  30.7330110  36.7207610
  64.8275340  30.7040250  36.0342970  66.2346510  27.9181190  37.8756340
  66.8167280  27.1633510  37.7876820  66.4108280  28.4488630  37.0987820
  60.1180020  21.6351180  33.2200680  59.6697320  21.6575440  32.3746230
  59.4845220  21.2370200  33.8170980  60.5239570  30.5305510  33.8413120
  60.9427680  31.3738240  33.6689360  59.6048200  30.6677550  33.6119900
  62.8603470  28.2621690  35.2250960  62.9799680  27.6662830  35.9645800
  63.7197470  28.2991380  34.8052260  65.1991370  28.8158880  33.8013470
  64.6726590  29.3401500  33.1978610  65.5422710  29.4486270  34.4323200
  57.5977760  26.2052250  20.2463180  57.3966820  25.3419610  20.6076520
  57.4269810  26.1185610  19.3084780  59.6272240  24.8043040  36.4826780
  60.2171930  24.4958890  37.1704600  58.8092480  24.3322790  36.6386680
  64.4465670  24.4208850  36.7159800  63.7581190  23.7590390  36.6509790
  65.1671690  23.9747120  37.1608260  65.0766070  21.0160480  22.7750060
  65.3568360  20.1728380  23.1309480  64.3031800  21.2483590  23.2888810
  56.3960560  23.3052870  20.2341060  56.6986460  23.3120300  19.3260210
  57.1355150  22.9550730  20.7308720  61.2309200  38.0709730  35.2157500
  61.1567900  38.9744870  35.5229870  60.3288040  37.7521630  35.1879570
  59.6145490  22.2487490  21.2197260  59.2667490  21.5711480  20.6399710
  59.8158260  21.7877000  22.0340650  61.7794530  37.2368240  22.8383860
  62.6745320  37.5753210  22.8602620  61.8112160  36.5147650  22.2108140
  55.4190690  32.6095290  21.0670860  55.8565560  33.1524960  21.7228440
  55.9038420  31.7842240  21.0767200  57.2298410  33.7293330  26.1793090
  56.9293950  33.6058300  27.0797000  57.1235900  32.8701920  25.7708820
  68.7588880  35.7671910  35.5450060  68.1590870  35.8264470  34.8013980
  68.8882780  34.8276890  35.6746910  69.9990330  33.5089730  20.8819770
  69.1683290  33.5766380  21.3527000  70.1762160  34.3993850  20.5786630
  69.4546790  30.2537210  23.3853970  70.2165700  30.8233860  23.4913660
  69.4701160  29.6864410  24.1562280  52.9551130  28.7775140  27.6161630
  52.2999970  28.5086780  26.9721330  53.7929080  28.6679620  27.1663610
  70.4606760  31.1087310  28.2295900  70.8315590  30.3254630  27.8231870
  71.1008690  31.7976410  28.0513200  67.4440520  32.4923890  33.6426220
  66.6300360  32.9221050  33.9052010  67.8514720  33.1042300  33.0295270
  69.5065960  30.5471580  20.5426490  69.7814800  31.4550460  20.4145710
  69.3176700  30.4834110  21.4788480  65.9041570  23.5716430  21.8380120
  66.3226450  23.3847410  20.9976780  65.5977630  22.7195480  22.1483050
  69.4031300  28.4840570  25.5355920  69.0274900  27.7168500  25.1037210
  68.6734420  28.8663270  26.0230850  53.9927060  29.1627710  32.1564970
  54.3600100  29.0755110  33.0360990  53.4237880  28.3994260  32.0571830
  68.7930920  27.6312090  35.1695440  68.5617010  27.4024840  34.2693390
  69.0535470  28.5511640  35.1240330  67.2318990  22.8568520  37.9475140
  68.1089170  22.8651920  38.3309140  67.2439830  22.1199360  37.3367490
  52.1689210  25.9874070  23.5586960  51.2653290  26.2504270  23.3838620
  52.6529830  26.2585240  22.7786920  68.6782260  26.7098060  28.8363160
  69.2019740  26.2160710  28.2053330  69.2641680  26.8448420  29.5810730
  68.8571980  26.7937930  32.3582710  67.9074690  26.7601470  32.4727700
  69.0384990  27.7038040  32.1232480  54.7116420  25.0439610  21.4681340
  55.4208120  24.6222830  20.9828620  53.9956360  25.1114840  20.8364690
  54.3590580  21.0978940  20.5083990  55.0818710  21.6387880  20.8265210
  54.6315100  20.8242360  19.6325530  68.1682230  25.9671410  24.7755570
  68.6641350  25.7342280  25.5604450  67.9698300  25.1283250  24.3593210
  54.0482770  20.3485130  30.4106610  54.6958960  19.7982510  29.9701770
  54.4684610  20.6028280  31.2322420  69.5969390  24.6032360  27.3093250
  69.4868670  24.4488400  28.2475520  70.3576980  24.0753300  27.0668660
  67.9435110  20.5426490  33.7676250  68.5807330  21.1560630  34.1335440
  68.0910000  20.5787150  32.8225480  70.4859660  22.4340280  20.5499390
  71.4108970  22.3021460  20.3417680  70.4635450  22.5133100  21.5035840
  70.5598150  23.2050940  23.1756100  69.7649650  23.1396060  23.7049010
  70.7641430  24.1401580  23.1641450  67.5016570  37.2442490  27.1694490
  68.0975640  36.9227060  26.4928910  67.7594720  36.7714310  27.9607760
  61.3139590  21.6952680  36.6751350  61.2528480  22.2874510  37.4246760
  62.2539970  21.5878640  36.5301610  63.9514150  21.3522740  36.3143640
  64.5654560  21.6702030  35.6524720  64.4963710  20.8671330  36.9339500
  70.3689330  37.2514370  33.7205480  69.8747610  37.6483240  33.0032610
  69.7602620  36.6263580  34.1142760  54.4735410  20.0317000  36.4282700
  55.0218400  19.8505050  35.6648810  54.5390720  19.2411110  36.9639010
  64.6922190  19.9154880  32.6412930  63.8182030  20.2489990  32.4385860
  64.5832940  19.4428060  33.4664800  65.5994170  22.1225750  34.0254650
  65.2707530  21.3077510  33.6456380  66.5476470  22.0795560  33.9020340
  68.0528780  37.8937790  30.9992220  67.5931750  38.6453600  30.6250240
  67.4241240  37.1744260  30.9407020  58.4824500  36.2026030  30.1740350
  58.9989520  35.5913390  29.6488610  59.1321880  36.7054810  30.6651360
  61.2220000  37.0934520  31.0009330  61.5097810  36.8388820  30.1242340
  61.7343220  36.5411880  31.5914900  62.4397010  20.8324720  31.5805840
  61.6568800  21.3070220  31.8602600  62.1459940  19.9279550  31.4719020
  66.9918080  21.5347820  29.6254930  67.4326170  21.4792920  28.7776530
  66.7225670  22.4505830  29.6965110  68.8556650  21.1663060  27.6363750
  68.7945050  20.2224280  27.4894770  69.6348680  21.2743150  28.1817210
  53.1609400  37.3055420  26.5987700  52.9931440  36.6726100  27.2969590
  52.2943910  37.5114820  26.2481890  53.7837420  21.1372200  24.1019560
  54.5416780  21.2501080  23.5283590  53.3214590  21.9741400  24.0562990
  60.3251230  23.2511470  27.0921870  59.5125740  22.8768360  26.7517750
  60.8292870  22.4956550  27.3943060  64.8276210  19.9153920  28.3304940
  65.4305580  20.4874130  28.8053460  64.0869200  20.4793360  28.1078840
  67.9710810  20.3175480  23.6045220  68.1661440  21.2158930  23.8712650
  67.1840680  20.0862560  24.0978170  54.7672100  35.9988650  24.0437840
  54.2419720  36.3796680  23.3399800  54.6916680  36.6239420  24.7647550
  56.1562570  21.6636250  22.6421530  56.6855330  20.8766050  22.5129480
  56.7890890  22.3427440  22.8757060  58.3500410  21.4011390  25.6966920
  57.7203150  20.6998700  25.8637050  57.8105550  22.1615520  25.4800080
  61.2892360  38.0150620  38.3677530  62.2159670  37.7794890  38.4113490
  61.2742790  38.8422620  37.8863560  69.5237420  37.5576190  25.3651780
  69.6989610  36.8713930  24.7212700  68.8258990  38.0823240  24.9728450
  58.4755970  20.6795370  38.1319410  58.1940240  21.1828970  37.3680230
  58.8575670  19.8817120  37.7661540  57.3665070  37.9471030  22.9187090
  58.0983890  37.6630310  22.3710980  57.6258740  37.7084310  23.8086470
  56.5279860  34.0635760  22.9233420  55.8988740  34.5320860  23.4719250
  56.6427690  33.2184980  23.3579610  65.0771430  20.0948950  38.7099880
  64.9636880  20.4143560  39.6051400  65.8941170  20.4961460  38.4137160
  67.8569920  37.2420480  38.1918570  68.6495240  36.7469710  37.9844530
  68.1503070  37.9210620  38.7994180  63.9829580  28.1141420   9.0734620
  63.9023630  27.1996030   8.8026330  63.5694000  28.6108490   8.3674330
  62.1147620  29.8920440  10.9543890  61.3389720  29.4120880  11.2442460
  62.7660550  29.2126090  10.7800050  56.1313450  30.2040250  11.8319650
  55.2998330  29.9488960  12.2316160  56.7394430  30.2751020  12.5677570
  66.1355050  34.2980630   9.7343020  65.6736580  33.5267870  10.0630190
  66.9480600  34.3246700  10.2395470  56.1114710  34.2380340  12.0277670
  56.4142750  33.3478080  11.8487890  56.8558300  34.7950560  11.7999920
  54.5405400  25.1642140   5.6162040  53.6522100  25.5058110   5.5141920
  54.8246590  24.9642460   4.7242870  52.5038410  27.7647790  11.5001740
  53.0754520  26.9969990  11.5005380  52.5039950  28.0636550  10.5908350
  62.3618360  36.5838640   9.3547010  61.7429800  37.0396140   8.7841450
  63.2170140  36.7390100   8.9536710  61.5556610  32.5677630  10.9614050
  61.4864890  31.6267570  10.8003180  62.3176470  32.6579040  11.5336620
  53.7463280  23.1732150  13.2870670  53.5666120  22.2757900  13.5673430
  53.3443360  23.7204020  13.9617620  62.5861780  25.3748010  11.1882980
  62.9626600  24.5019890  11.0756650  62.4881290  25.7106710  10.2973420
  56.7166790  23.7473640   6.6500420  56.8233540  24.6477370   6.9569180
  55.8059150  23.6991610   6.3595070  66.3685900  22.8698450   8.1211320
  67.1895520  22.3795020   8.1636800  66.4019980  23.4596110   8.8743160
  54.3649950  25.6692650  11.8953010  55.0460060  25.9331020  12.5140410
  54.0498000  24.8293520  12.2291020  58.5574520  26.7160010  10.9825600
  59.0652740  27.2140980  11.6230620  59.0887760  25.9395210  10.8064960
  70.6585450  24.8865200  14.6854950  69.9537620  25.2746910  14.1670060
  70.9243370  25.5815490  15.2875880  56.8410620  21.3558570  15.2489020
  56.8429060  21.8730960  14.4434920  56.0114930  20.8788750  15.2258950
  63.2281710  31.4677880   6.7478920  62.6098980  31.9327330   6.1841640
  63.7404960  32.1605360   7.1648430  58.0913470  30.9953750  13.4262520
  57.7582850  31.6222670  14.0683590  58.2680150  31.5215630  12.6464190
  66.6047380  24.8098830  10.8938860  65.9002950  25.0983720  11.4741970
  66.9659540  25.6198940  10.5338420  56.5225950  23.0668530  13.2559470
  56.8642760  23.9110580  12.9613340  55.5841760  23.2152270  13.3724810
  57.3032570  32.9634550  15.2411700  57.9206570  33.6385630  14.9596150
  56.4425690  33.3722530  15.1499200  52.5964910  32.1534410   4.1218550
  52.2192890  32.6421510   3.3903450  52.8537980  32.8259690   4.7525080
  68.2210160  34.4273960  13.1566340  67.5373680  35.0973070  13.1483010
  68.7604450  34.6254610  12.3911200  69.6734300  24.2553620  11.2848070
  68.7259210  24.2892600  11.4163500  69.9984290  25.0692570  11.6697430
  60.2053840  20.5550800   9.5804060  60.5128820  19.9997690   8.8639560
  59.2754540  20.6895260   9.3977050  65.7568900  36.2718090  11.8711520
  65.7696060  35.8680380  11.0033780  65.2044120  37.0465380  11.7672950
  67.0514320  32.9934310   6.9601690  66.9410650  32.0508640   7.0851110
  67.0482570  33.3549950   7.8464450  65.1554340  31.1747930  13.1994130
  65.5723130  30.9608040  12.3647590  65.8794160  31.4320720  13.7702750
  62.5934600  28.6199630   6.3164180  61.6663880  28.5537010   6.5452650
  62.7459420  29.5579760   6.2019420  62.5803680  24.8916630   3.3131340
  61.6407350  25.0530590   3.3983800  62.8986940  25.6102310   2.7667330
  69.1016440  29.5735150  13.2910370  68.2735070  29.6428240  12.8160500
  69.6966920  30.1589460  12.8226200  66.6231890  30.1819930   6.8199430
  66.0044310  29.8439480   6.1725730  66.6056340  29.5379690   7.5278620
  66.0658450  26.3604470  14.2365240  65.6529630  27.1858180  14.4905230
  65.3334400  25.7749510  14.0441600  58.1991240  29.1464370   9.0983910
  57.7948240  28.4341620   8.6029810  58.2854360  28.8017610   9.9871950
  58.6672940  32.8331930  11.2623120  58.3701230  32.2277400  10.5830900
  59.6172760  32.8709240  11.1512480  56.9119860  25.9207580  12.8782950
  57.4634450  26.0302920  12.1036200  57.4263370  26.2945180  13.5938180
  66.7558550  36.4063800  14.9246220  66.2789110  37.2135990  14.7318830
  66.0720340  35.7542130  15.0772430  57.7591370  32.5713620  17.9130920
  56.8619900  32.7953590  18.1604320  57.7844240  32.6948560  16.9642320
  64.7996590  29.4206740   3.8272180  65.2389870  28.5829170   3.6810000
  65.5125010  30.0536140   3.9136320  56.5862590  29.4426940  16.4888290
  56.4470360  30.3149740  16.8575690  55.7043950  29.0999750  16.3436230
  62.9091970  34.3602810   7.7953420  63.3487880  35.1027140   7.3808810
  62.8478860  34.6029380   8.7192380  58.3842940  35.3848640  18.6973440
  58.3558370  35.7891590  17.8301870  58.2207910  34.4559000  18.5345040
  68.3813730  20.6749550   2.1413220  68.0686390  20.7676380   3.0412290
  69.1426200  21.2530580   2.0910650  54.8995870  28.0409350   6.5990560
  54.7793470  28.7671440   5.9871830  54.5896760  27.2712260   6.1218470
  70.3357760  36.1675740  19.9937610  70.8117480  36.6458630  20.6726690
  70.9564920  36.0993230  19.2683110  52.5381240  31.2124490  12.4059200
  52.6161660  31.3473260  11.4614920  53.1522920  30.5040380  12.5987320
  53.7828870  32.9124680   8.8165380  53.3756950  33.0539270   7.9618980
  54.6741880  32.6284840   8.6136590  69.7391010  33.3588590  17.1537620
  69.8654070  33.1200470  16.2354800  69.7812390  32.5273130  17.6259700
  63.6007750  37.0616590  15.7232430  64.1152420  36.9724600  16.5254860
  62.7576830  37.4076290  16.0160340  65.5762150  37.3471930   5.1516430
  65.4163290  37.0574870   6.0498260  65.4108860  36.5712060   4.6161660
  58.0550530  37.1270460   6.9288050  57.8793010  36.2106000   6.7155850
  57.2006270  37.4857750   7.1685850  65.2788280  34.8559490   3.7114430
  64.5853440  34.8536780   3.0516710  66.0211140  34.4318810   3.2808600
  64.8438210  36.4822200   7.7862920  65.2995160  35.7011580   8.1001540
  65.1830730  37.1929020   8.3304100  69.5915020  25.4121050  18.1187360
  68.9759290  25.9200720  17.5902820  69.2711440  24.5119380  18.0613300
  52.5940760  32.2538660  14.9453660  52.7571800  31.7844020  14.1273030
  53.0593210  31.7462220  15.6102500  57.3659530  21.3844420   9.9814230
  56.9227680  22.1653960   9.6498750  57.9244520  21.7074310  10.6885170
  61.6529340  24.2512940  15.5849550  61.1908710  24.4595960  16.3969490
  61.2507450  23.4372290  15.2820220  66.6533850  25.4721890  16.7146210
  65.8027440  25.1727640  17.0355280  66.4935640  25.7163900  15.8030030
  63.7483560  26.9723640  18.8145000  64.0736970  26.1387390  18.4747230
  64.5363890  27.4952160  18.9623330  60.4818350  21.0055120   4.8620060
  59.8572530  21.0014990   5.5873370  60.3948470  20.1386080   4.4656030
  59.4035430  21.9291750  11.8403830  59.7007760  22.8354580  11.7595850
  59.9520990  21.4410530  11.2263400  57.1573750  26.5077990   7.7095480
  56.9314670  26.2915160   8.6142100  56.3766280  26.9406450   7.3641450
  64.3871510  26.5141360   6.3086130  63.7880400  27.2377160   6.1249750
  64.9351120  26.4518140   5.5262580  59.5972960  27.4063570  18.3755750
  59.5016560  26.4658300  18.2256150  60.4404940  27.6278640  17.9803820
  62.9936380  25.1504900   8.3389410  63.3865950  25.4677100   7.5258100
  63.3553230  24.2716780   8.4533930  54.7283500  23.8177240  16.5289530
  54.3346890  24.6652450  16.7362310  54.0401900  23.1803610  16.7198170
  61.3028550  23.9012210  19.5986270  60.6126870  23.7084410  20.2332360
  62.0460850  24.1846850  20.1310570  52.0300550  21.7405700  10.5619610
  51.7413600  22.3108560  11.2744590  52.7746310  21.2610150  10.9250840
  63.5791520  27.7410650  12.4340190  62.8472640  28.2497460  12.7830290
  63.1815860  26.9240630  12.1328970  60.0168910  24.4164850  10.8392680
  60.0204970  23.9754800   9.9897220  60.9120030  24.7382180  10.9464500
  55.8671290  24.2991340   9.7986890  55.5271340  24.7766570  10.5553940
  55.1048610  23.8456460   9.4387990  60.0789060  25.4176930   3.8299440
  60.2001880  25.3763410   4.7785260  59.6937570  26.2801080   3.6746170
  64.0417430  23.1944330  11.8463130  64.0590170  23.6452980  12.6904980
  63.7933010  22.2949970  12.0596570  59.0910560  27.7278070   3.2282740
  58.5227460  27.2796320   2.6018650  59.7999560  28.0870850   2.6947890
  67.4688180  20.6076510  17.6849510  67.7933950  19.8766170  18.2107490
  67.5044690  20.2890150  16.7830500  54.1679740  31.6290090  17.1049470
  53.7834530  30.9883760  17.7032430  54.4791930  32.3326210  17.6744200
  60.3176880  28.4766630  12.5858090  60.6847010  28.0025200  13.3319430
  60.1281940  29.3508200  12.9266430  53.1817370  23.2210320   8.7151560
  52.8964290  22.8565990   9.5530180  53.1196230  22.4890780   8.1014700
  58.1076250  27.5175270  14.9042300  57.8033320  28.3967250  15.1292660
  59.0622710  27.5775060  14.9399740  56.6358040  31.7236260   5.5009150
  55.8620300  31.1833880   5.3407870  57.3652670  31.2042870   5.1626910
  67.3946020  30.7201620  11.2935540  68.1145140  31.2156910  10.9031650
  67.1927840  30.0419510  10.6489410  62.8555960  22.1139580   5.4364930
  62.0420570  21.6152750   5.3610240  62.6617910  22.9537830   5.0201280
  62.7764820  30.7910680  17.1804540  62.7102130  29.8706350  16.9262130
  62.1469960  30.8886120  17.8949180  65.5704350  26.4859230   3.7327090
  66.4583970  26.7976460   3.5578430  65.5409440  25.6131480   3.3407670
  56.6795440  31.3916640   9.1387960  57.1974110  30.5884900   9.0844850
  56.2279460  31.3295780   9.9804790  61.5664940  32.6582920   4.4115260
  61.9080640  33.4025150   3.9158580  60.7377650  32.9714040   4.7740090
  54.1639980  28.3578010  16.0513660  53.8054920  29.0231860  16.6387000
  53.8694540  27.5261560  16.4226280  57.3653100  28.8162250  18.9353210
  57.0653240  28.9619430  18.0381030  58.1364340  28.2567540  18.8426600
  62.7081550  33.6131250  16.9308340  62.7226090  32.6812210  16.7127250
  62.0006650  33.6991010  17.5698110  67.8418620  27.7971070   3.2006950
  67.7582340  28.2285290   2.3503390  68.5612810  28.2569420   3.6333770
  68.9192760  30.2538590  16.2776920  68.1940950  30.8467370  16.0806310
  69.4468220  30.2462130  15.4790290  68.8705870  34.6513330   5.9289080
  68.2282030  33.9968950   6.2032800  68.4836530  35.0568420   5.1529750
  64.4492350  31.9798760   9.7760770  64.8016170  31.3826890   9.1162140
  63.5654680  31.6542990   9.9469020  60.5355630  32.7396450   7.1831180
  61.2226760  33.2865660   7.5638770  59.7488050  33.2837180   7.2180790
  52.6748030  28.3569270   2.6748260  53.5442880  28.6394070   2.9584180
  52.1838350  29.1705140   2.5597070  59.8382840  29.7442480   6.7956540
  60.2945620  30.5547730   7.0216730  59.4871050  29.4265620   7.6275030
  62.1415450  35.2548820  14.0248840  62.7857670  35.4608200  14.7022260
  62.5044890  34.4937220  13.5719690  55.7394620  20.0880130   7.2679060
  55.6109250  20.0798030   8.2163980  54.9156640  20.4263220   6.9170070
  63.4147530  33.2581170  12.7426290  64.0569760  32.5574330  12.8558460
  63.9396880  34.0379610  12.5623180  67.2603250  33.5429790   2.4665430
  67.0340830  32.8260230   3.0590070  66.8699450  33.2942230   1.6287180
  65.1885150  34.0576070  15.9462350  65.5241390  34.6442760  16.6240270
  64.2685490  33.9268780  16.1760140  53.0419280  37.5696650   3.2409890
  53.4016920  38.1685990   2.5867160  52.9011620  38.1156540   4.0144920
  52.7388550  21.8471250  16.7285760  52.0247070  22.0468170  17.3338370
  53.1583590  21.0710820  17.1000560  66.8419500  31.4601730   4.1279590
  66.5541200  31.9214420   4.9157470  67.6371670  30.9999500   4.3963810
  53.0261140  35.8351510  17.7152290  53.1352260  34.8946250  17.5747680
  52.3741700  36.1006260  17.0666020  61.0173730  34.1067400  19.1150410
  60.6970600  33.3876640  19.6596100  60.3432090  34.7822470  19.1886470
  59.0587900  34.9527850   4.0583560  59.0498000  35.6857540   3.4428070
  58.1386260  34.7059430   4.1510520  54.6594540  30.1742740   4.8030320
  54.0522490  30.9141640   4.8125620  55.1343890  30.2642100   3.9768520
  64.2327330  24.3393560  14.4787210  64.6008150  23.5188770  14.8066780
  63.3725530  24.3995450  14.8942860  67.5989360  23.2950500   5.2874770
  66.9702520  23.3996170   4.5733000  67.1041280  23.5147280   6.0768650
  62.0447500  35.0156090   2.7208750  62.1459480  34.8120080   1.7910730
  61.1449240  34.7614370   2.9256530  59.5673390  25.5736450   6.7032650
  58.8589540  26.0422790   7.1446260  59.8517870  24.9158460   7.3377840
  61.1929320  26.9933150  14.7025180  61.6914570  27.4678970  15.3677030
  61.3352270  26.0696670  14.9095210  63.5988820  22.2987110   8.1428440
  63.4756600  22.3173240   7.1937950  64.5473380  22.3466050   8.2626840
  60.6865610  37.5342410   7.4156420  60.9407110  37.4963800   6.4935790
  59.7378090  37.4075740   7.4084670  57.7708410  23.8821530   4.0783360
  58.6198940  24.3191680   4.0123550  57.4039680  24.1941790   4.9055420
  68.3996180  23.2101110  15.5453570  67.8969780  23.9506510  15.8847380
  69.2152840  23.5985110  15.2290360  66.6918190  28.4534290   8.9914930
  65.7508330  28.4684520   9.1662620  67.0062260  27.6670250   9.4375230
  56.6699830  30.1353890   2.5518890  57.4363100  30.0235250   3.1144320
  56.7474520  29.4391860   1.8995660  55.3646590  27.5678960   3.2351780
  55.4450180  26.6206470   3.3469180  56.2566340  27.8985840   3.3412440
  68.6943770  35.6243140  10.6669190  68.8191190  36.4474310  11.1393000
  69.5609330  35.4133870  10.3193340  56.1661300  37.7174350  10.3386320
  56.9023780  37.1689810  10.6094890  56.5502220  38.5830360  10.1992310
  53.0506780  33.7847920   6.2127830  52.1246560  34.0269060   6.2033240
  53.5163210  34.6122180   6.0912580  55.1719580  36.9020420  19.5271900
  55.9732310  37.2232470  19.9407300  54.6571400  36.5416000  20.2491810
  64.0084210  33.0100290  19.4747310  63.4022370  33.0331890  18.7343060
  63.7038320  32.2783330  20.0114560  65.4384580  36.7380580  18.0856720
  66.3906330  36.6538600  18.0356960  65.2912800  37.4022290  18.7590510
  68.3293780  36.1174790   3.5848630  68.0435290  35.7039930   2.7702810
  68.1313330  37.0462500   3.4649150  52.8917390  29.3893880  18.4707950
  53.3956410  28.8101160  19.0424180  52.1524810  29.6734110  19.0084320
  59.9455330  30.7964870  18.0043470  59.1801000  31.3649870  17.9198140
  60.1271290  30.5041080  17.1111700  63.0343740  31.1728100   2.6296230
  62.4853840  31.6197400   3.2738970  63.6563000  30.6677350   3.1533900
  67.0878680  32.5270200  18.5618490  67.8288150  32.8645960  18.0585950
  66.3251360  32.6962260  18.0088260  54.9240470  27.5323470  19.3658020
  54.9645810  27.2337340  20.2743250  55.7785970  27.9331080  19.2065540
  58.7018860  30.1319020   4.5261530  59.1235280  29.9658890   5.3692920
  58.8269700  29.3219250   4.0316670  56.8646280  26.1115570  17.3332510
  56.3342740  25.6206520  16.7055850  57.5334350  26.5399770  16.7990440
  65.7624340  30.5785030  17.0973700  66.1765360  30.7330110  17.9464120
  64.8275340  30.7040250  17.2599480  66.2346510  27.9181190  19.1012850
  66.8167280  27.1633510  19.0133330  66.4108280  28.4488630  18.3244330
  57.3518580  23.0777940  17.4129800  57.2575450  22.4598690  16.6880670
  56.7715970  23.8044230  17.1859710  60.1180020  21.6351180  14.4457190
  59.6697320  21.6575440  13.6002740  59.4845220  21.2370200  15.0427490
  60.5239570  30.5305510  15.0669630  60.9427680  31.3738240  14.8945870
  59.6048200  30.6677550  14.8376410  62.8603470  28.2621690  16.4507470
  62.9799680  27.6662830  17.1902310  63.7197470  28.2991380  16.0308770
  65.1991370  28.8158880  15.0269980  64.6726590  29.3401500  14.4235120
  65.5422710  29.4486270  15.6579710  58.3746990  36.8358520  16.1827360
  57.8368080  37.5604580  15.8636060  58.6280950  36.3588860  15.3924700
  59.6272240  24.8043040  17.7083290  60.2171930  24.4958890  18.3961110
  58.8092480  24.3322790  17.8643190  64.4465670  24.4208850  17.9416310
  63.7581190  23.7590390  17.8766300  65.1671690  23.9747120  18.3864770
  65.0766070  21.0160480   4.0006570  65.3568360  20.1728380   4.3565990
  64.3031800  21.2483590   4.5145320  61.2309200  38.0709730  16.4414010
  61.1567900  38.9744870  16.7486380  60.3288040  37.7521630  16.4136080
  59.6145490  22.2487490   2.4453770  59.2667490  21.5711480   1.8656220
  59.8158260  21.7877000   3.2597160  61.7794530  37.2368240   4.0640370
  62.6745320  37.5753210   4.0859130  61.8112160  36.5147650   3.4364650
  55.4190690  32.6095290   2.2927370  55.8565560  33.1524960   2.9484950
  55.9038420  31.7842240   2.3023710  52.6336490  35.3984320   9.7447630
  52.9639500  34.5305380   9.5126270  53.0627490  35.6042840  10.5752590
  57.2298410  33.7293330   7.4049600  56.9293950  33.6058300   8.3053510
  57.1235900  32.8701920   6.9965330  53.1226700  36.2654910  12.4829260
  52.6857690  36.4455710  13.3153410  53.6904380  37.0229530  12.3410980
  68.7588880  35.7671910  16.7706570  68.1590870  35.8264470  16.0270490
  68.8882780  34.8276890  16.9003420  69.9990330  33.5089730   2.1076280
  69.1683290  33.5766380   2.5783510  70.1762160  34.3993850   1.8043140
  69.4546790  30.2537210   4.6110480  70.2165700  30.8233860   4.7170170
  69.4701160  29.6864410   5.3818790  52.9551130  28.7775140   8.8418140
  52.2999970  28.5086780   8.1977840  53.7929080  28.6679620   8.3920120
  70.4606760  31.1087310   9.4552410  70.8315590  30.3254630   9.0488380
  71.1008690  31.7976410   9.2769710  67.4440520  32.4923890  14.8682730
  66.6300360  32.9221050  15.1308520  67.8514720  33.1042300  14.2551780
  69.5065960  30.5471580   1.7683000  69.7814800  31.4550460   1.6402220
  69.3176700  30.4834110   2.7044990  65.9041570  23.5716430   3.0636630
  66.3226450  23.3847410   2.2233290  65.5977630  22.7195480   3.3739560
  69.4031300  28.4840570   6.7612430  69.0274900  27.7168500   6.3293720
  68.6734420  28.8663270   7.2487360  53.9927060  29.1627710  13.3821480
  54.3600100  29.0755110  14.2617500  53.4237880  28.3994260  13.2828340
  68.7930920  27.6312090  16.3951950  68.5617010  27.4024840  15.4949900
  69.0535470  28.5511640  16.3496840  53.5443060  26.0736800  17.2879900
  52.6499110  26.0403560  17.6273610  54.0840610  26.2723590  18.0531150
  67.2318990  22.8568520  19.1731650  68.1089170  22.8651920  19.5565650
  67.2439830  22.1199360  18.5624000  52.1689210  25.9874070   4.7843470
  51.2653290  26.2504270   4.6095130  52.6529830  26.2585240   4.0043430
  68.6782260  26.7098060  10.0619670  69.2019740  26.2160710   9.4309840
  69.2641680  26.8448420  10.8067240  68.8571980  26.7937930  13.5839220
  67.9074690  26.7601470  13.6984210  69.0384990  27.7038040  13.3488990
  54.7116420  25.0439610   2.6937850  55.4208120  24.6222830   2.2085130
  53.9956360  25.1114840   2.0621200  68.1682230  25.9671410   6.0012080
  68.6641350  25.7342280   6.7860960  67.9698300  25.1283250   5.5849720
  54.0482770  20.3485130  11.6363120  54.6958960  19.7982510  11.1958280
  54.4684610  20.6028280  12.4578930  69.5969390  24.6032360   8.5349760
  69.4868670  24.4488400   9.4732030  70.3576980  24.0753300   8.2925170
  67.9435110  20.5426490  14.9932760  68.5807330  21.1560630  15.3591950
  68.0910000  20.5787150  14.0481990  70.4859660  22.4340280   1.7755900
  71.4108970  22.3021460   1.5674190  70.4635450  22.5133100   2.7292350
  70.5598150  23.2050940   4.4012610  69.7649650  23.1396060   4.9305520
  70.7641430  24.1401580   4.3897960  67.5016570  37.2442490   8.3951000
  68.0975640  36.9227060   7.7185420  67.7594720  36.7714310   9.1864270
  53.8014770  20.5040800  14.3788440  53.4529590  20.9604620  15.1446620
  53.4702470  19.6097930  14.4610870  55.4079140  33.6760400  18.5441630
  55.3648770  33.3053310  19.4256090  55.5390150  34.6137970  18.6843450
  59.1085170  35.2319990  14.1451350  58.8676530  35.4994550  13.2581870
  60.0487810  35.4025720  14.2002210  61.3139590  21.6952680  17.9007860
  61.2528480  22.2874510  18.6503270  62.2539970  21.5878640  17.7558120
  63.9514150  21.3522740  17.5400150  64.5654560  21.6702030  16.8781230
  64.4963710  20.8671330  18.1596010  70.3689330  37.2514370  14.9461990
  69.8747610  37.6483240  14.2289120  69.7602620  36.6263580  15.3399270
  54.4735410  20.0317000  17.6539210  55.0218400  19.8505050  16.8905320
  54.5390720  19.2411110  18.1895520  55.2467170  36.6222650  15.6639410
  54.6527490  36.4907350  16.4029450  55.2391010  35.7860790  15.1981510
  64.6922190  19.9154880  13.8669440  63.8182030  20.2489990  13.6642370
  64.5832940  19.4428060  14.6921310  65.5994170  22.1225750  15.2511160
  65.2707530  21.3077510  14.8712890  66.5476470  22.0795560  15.1276850
  68.0528780  37.8937790  12.2248730  67.5931750  38.6453600  11.8506750
  67.4241240  37.1744260  12.1663530  54.8779400  33.9881030  14.6147450
  54.1513460  33.3686320  14.5473400  54.9388550  34.3821640  13.7445530
  58.4824500  36.2026030  11.3996860  58.9989520  35.5913390  10.8745120
  59.1321880  36.7054810  11.8907870  61.2220000  37.0934520  12.2265840
  61.5097810  36.8388820  11.3498850  61.7343220  36.5411880  12.8171410
  62.4397010  20.8324720  12.8062350  61.6568800  21.3070220  13.0859110
  62.1459940  19.9279550  12.6975530  66.9918080  21.5347820  10.8511440
  67.4326170  21.4792920  10.0033040  66.7225670  22.4505830  10.9221620
  68.8556650  21.1663060   8.8620260  68.7945050  20.2224280   8.7151280
  69.6348680  21.2743150   9.4073720  53.1609400  37.3055420   7.8244210
  52.9931440  36.6726100   8.5226100  52.2943910  37.5114820   7.4738400
  53.7837420  21.1372200   5.3276070  54.5416780  21.2501080   4.7540100
  53.3214590  21.9741400   5.2819500  60.3251230  23.2511470   8.3178380
  59.5125740  22.8768360   7.9774260  60.8292870  22.4956550   8.6199570
  64.8276210  19.9153920   9.5561450  65.4305580  20.4874130  10.0309970
  64.0869200  20.4793360   9.3335350  67.9710810  20.3175480   4.8301730
  68.1661440  21.2158930   5.0969160  67.1840680  20.0862560   5.3234680
  54.7672100  35.9988650   5.2694350  54.2419720  36.3796680   4.5656310
  54.6916680  36.6239420   5.9904060  56.1562570  21.6636250   3.8678040
  56.6855330  20.8766050   3.7385990  56.7890890  22.3427440   4.1013570
  58.3500410  21.4011390   6.9223430  57.7203150  20.6998700   7.0893560
  57.8105550  22.1615520   6.7056590  61.2892360  38.0150620  19.5934040
  62.2159670  37.7794890  19.6370000  61.2742790  38.8422620  19.1120070
  69.5237420  37.5576190   6.5908290  69.6989610  36.8713930   5.9469210
  68.8258990  38.0823240   6.1984960  58.4755970  20.6795370  19.3575920
  58.1940240  21.1828970  18.5936740  58.8575670  19.8817120  18.9918050
  57.3665070  37.9471030   4.1443600  58.0983890  37.6630310   3.5967490
  57.6258740  37.7084310   5.0342980  56.5279860  34.0635760   4.1489930
  55.8988740  34.5320860   4.6975760  56.6427690  33.2184980   4.5836120
  65.0771430  20.0948950  19.9356390  64.9636880  20.4143560  20.8307910
  65.8941170  20.4961460  19.6393670  67.8569920  37.2420480  19.4175080
  68.6495240  36.7469710  19.2101040  68.1503070  37.9210620  20.0250690
  63.9829580   9.3397930  65.3965090  63.9023630   8.4252540  65.1256800
  63.5694000   9.8365000  64.6904800  62.1147620  11.1176950  67.2774360
  61.3389720  10.6377390  67.5672930  62.7660550  10.4382600  67.1030520
  56.1313450  11.4296760  68.1550120  55.2998330  11.1745470  68.5546630
  56.7394430  11.5007530  68.8908040  66.1355050  15.5237140  66.0573490
  65.6736580  14.7524380  66.3860660  66.9480600  15.5503210  66.5625940
  56.1114710  15.4636850  68.3508140  56.4142750  14.5734590  68.1718360
  56.8558300  16.0207070  68.1230390  54.5405400   6.3898650  61.9392510
  53.6522100   6.7314620  61.8372390  54.8246590   6.1898970  61.0473340
  52.5038410   8.9904300  67.8232210  53.0754520   8.2226500  67.8235850
  52.5039950   9.2893060  66.9138820  62.3618360  17.8095150  65.6777480
  61.7429800  18.2652650  65.1071920  63.2170140  17.9646610  65.2767180
  61.5556610  13.7934140  67.2844520  61.4864890  12.8524080  67.1233650
  62.3176470  13.8835550  67.8567090  53.7463280   4.3988660  69.6101140
  53.5666120   3.5014410  69.8903900  53.3443360   4.9460530  70.2848090
  62.5861780   6.6004520  67.5113450  62.9626600   5.7276400  67.3987120
  62.4881290   6.9363220  66.6203890  56.7166790   4.9730150  62.9730890
  56.8233540   5.8733880  63.2799650  55.8059150   4.9248120  62.6825540
  66.3685900   4.0954960  64.4441790  67.1895520   3.6051530  64.4867270
  66.4019980   4.6852620  65.1973630  54.3649950   6.8949160  68.2183480
  55.0460060   7.1587530  68.8370880  54.0498000   6.0550030  68.5521490
  58.5574520   7.9416520  67.3056070  59.0652740   8.4397490  67.9461090
  59.0887760   7.1651720  67.1295430  70.6585450   6.1121710  71.0085420
  69.9537620   6.5003420  70.4900530  70.9243370   6.8072000  71.6106350
  56.8410620   2.5815080  71.5719490  56.8429060   3.0987470  70.7665390
  56.0114930   2.1045260  71.5489420  63.2281710  12.6934390  63.0709390
  62.6098980  13.1583840  62.5072110  63.7404960  13.3861870  63.4878900
  58.0913470  12.2210260  69.7492990  57.7582850  12.8479180  70.3914060
  58.2680150  12.7472140  68.9694660  66.6047380   6.0355340  67.2169330
  65.9002950   6.3240230  67.7972440  66.9659540   6.8455450  66.8568890
  56.5225950   4.2925040  69.5789940  56.8642760   5.1367090  69.2843810
  55.5841760   4.4408780  69.6955280  57.3032570  14.1891060  71.5642170
  57.9206570  14.8642140  71.2826620  56.4425690  14.5979040  71.4729670
  52.5964910  13.3790920  60.4449020  52.2192890  13.8678020  59.7133920
  52.8537980  14.0516200  61.0755550  68.2210160  15.6530470  69.4796810
  67.5373680  16.3229580  69.4713480  68.7604450  15.8511120  68.7141670
  69.6734300   5.4810130  67.6078540  68.7259210   5.5149110  67.7393970
  69.9984290   6.2949080  67.9927900  65.7568900  17.4974600  68.1941990
  65.7696060  17.0936890  67.3264250  65.2044120  18.2721890  68.0903420
  67.0514320  14.2190820  63.2832160  66.9410650  13.2765150  63.4081580
  67.0482570  14.5806460  64.1694920  65.1554340  12.4004440  69.5224600
  65.5723130  12.1864550  68.6878060  65.8794160  12.6577230  70.0933220
  62.5934600   9.8456140  62.6394650  61.6663880   9.7793520  62.8683120
  62.7459420  10.7836270  62.5249890  62.5803680   6.1173140  59.6361810
  61.6407350   6.2787100  59.7214270  62.8986940   6.8358820  59.0897800
  69.1016440  10.7991660  69.6140840  68.2735070  10.8684750  69.1390970
  69.6966920  11.3845970  69.1456670  66.6231890  11.4076440  63.1429900
  66.0044310  11.0695990  62.4956200  66.6056340  10.7636200  63.8509090
  66.0658450   7.5860980  70.5595710  65.6529630   8.4114690  70.8135700
  65.3334400   7.0006020  70.3672070  58.1991240  10.3720880  65.4214380
  57.7948240   9.6598130  64.9260280  58.2854360  10.0274120  66.3102420
  58.6672940  14.0588440  67.5853590  58.3701230  13.4533910  66.9061370
  59.6172760  14.0965750  67.4742950  56.9119860   7.1464090  69.2013420
  57.4634450   7.2559430  68.4266670  57.4263370   7.5201690  69.9168650
  66.7558550  17.6320310  71.2476690  66.2789110  18.4392500  71.0549300
  66.0720340  16.9798640  71.4002900  57.7591370  13.7970130  74.2361390
  56.8619900  14.0210100  74.4834790  57.7844240  13.9205070  73.2872790
  64.7996590  10.6463250  60.1502650  65.2389870   9.8085680  60.0040470
  65.5125010  11.2792650  60.2366790  56.5862590  10.6683450  72.8118760
  56.4470360  11.5406250  73.1806160  55.7043950  10.3256260  72.6666700
  62.9091970  15.5859320  64.1183890  63.3487880  16.3283650  63.7039280
  62.8478860  15.8285890  65.0422850  58.3842940  16.6105150  75.0203910
  58.3558370  17.0148100  74.1532340  58.2207910  15.6815510  74.8575510
  68.3813730   1.9006060  58.4643690  68.0686390   1.9932890  59.3642760
  69.1426200   2.4787090  58.4141120  54.8995870   9.2665860  62.9221030
  54.7793470   9.9927950  62.3102300  54.5896760   8.4968770  62.4448940
  52.5381240  12.4381000  68.7289670  52.6161660  12.5729770  67.7845390
  53.1522920  11.7296890  68.9217790  53.7828870  14.1381190  65.1395850
  53.3756950  14.2795780  64.2849450  54.6741880  13.8541350  64.9367060
  69.7391010  14.5845100  73.4768090  69.8654070  14.3456980  72.5585270
  69.7812390  13.7529640  73.9490170  63.6007750  18.2873100  72.0462900
  64.1152420  18.1981110  72.8485330  62.7576830  18.6332800  72.3390810
  65.5762150  18.5728440  61.4746900  65.4163290  18.2831380  62.3728730
  65.4108860  17.7968570  60.9392130  58.0550530  18.3526970  63.2518520
  57.8793010  17.4362510  63.0386320  57.2006270  18.7114260  63.4916320
  65.2788280  16.0816000  60.0344900  64.5853440  16.0793290  59.3747180
  66.0211140  15.6575320  59.6039070  64.8438210  17.7078710  64.1093390
  65.2995160  16.9268090  64.4232010  65.1830730  18.4185530  64.6534570
  69.5915020   6.6377560  74.4417830  68.9759290   7.1457230  73.9133290
  69.2711440   5.7375890  74.3843770  52.5940760  13.4795170  71.2684130
  52.7571800  13.0100530  70.4503500  53.0593210  12.9718730  71.9332970
  57.3659530   2.6100930  66.3044700  56.9227680   3.3910470  65.9729220
  57.9244520   2.9330820  67.0115640  61.6529340   5.4769450  71.9080020
  61.1908710   5.6852470  72.7199960  61.2507450   4.6628800  71.6050690
  66.6533850   6.6978400  73.0376680  65.8027440   6.3984150  73.3585750
  66.4935640   6.9420410  72.1260500  63.7483560   8.1980150  75.1375470
  64.0736970   7.3643900  74.7977700  64.5363890   8.7208670  75.2853800
  59.4035430   3.1548260  68.1634300  59.7007760   4.0611090  68.0826320
  59.9520990   2.6667040  67.5493870  57.1573750   7.7334500  64.0325950
  56.9314670   7.5171670  64.9372570  56.3766280   8.1662960  63.6871920
  64.3871510   7.7397870  62.6316600  63.7880400   8.4633670  62.4480220
  64.9351120   7.6774650  61.8493050  59.5972960   8.6320080  74.6986220
  59.5016560   7.6914810  74.5486620  60.4404940   8.8535150  74.3034290
  62.9936380   6.3761410  64.6619880  63.3865950   6.6933610  63.8488570
  63.3553230   5.4973290  64.7764400  54.7283500   5.0433750  72.8520000
  54.3346890   5.8908960  73.0592780  54.0401900   4.4060120  73.0428640
  52.0300550   2.9662210  66.8850080  51.7413600   3.5365070  67.5975060
  52.7746310   2.4866660  67.2481310  52.2170780   6.9082330  58.0952800
  52.1345450   7.8513090  58.2367790  51.8653840   6.7657240  57.2165150
  63.5791520   8.9667160  68.7570660  62.8472640   9.4753970  69.1060760
  63.1815860   8.1497140  68.4559440  60.0168910   5.6421360  67.1623150
  60.0204970   5.2011310  66.3127690  60.9120030   5.9638690  67.2694970
  55.8671290   5.5247850  66.1217360  55.5271340   6.0023080  66.8784410
  55.1048610   5.0712970  65.7618460  60.0789060   6.6433440  60.1529910
  60.2001880   6.6019920  61.1015730  59.6937570   7.5057590  59.9976640
  64.0417430   4.4200840  68.1693600  64.0590170   4.8709490  69.0135450
  63.7933010   3.5206480  68.3827040  59.0910560   8.9534580  59.5513210
  58.5227460   8.5052830  58.9249120  59.7999560   9.3127360  59.0178360
  54.1679740  12.8546600  73.4279940  53.7834530  12.2140270  74.0262900
  54.4791930  13.5582720  73.9974670  60.3176880   9.7023140  68.9088560
  60.6847010   9.2281710  69.6549900  60.1281940  10.5764710  69.2496900
  53.1817370   4.4466830  65.0382030  52.8964290   4.0822500  65.8760650
  53.1196230   3.7147290  64.4245170  58.1076250   8.7431780  71.2272770
  57.8033320   9.6223760  71.4523130  59.0622710   8.8031570  71.2630210
  56.6358040  12.9492770  61.8239620  55.8620300  12.4090390  61.6638340
  57.3652670  12.4299380  61.4857380  67.3946020  11.9458130  67.6166010
  68.1145140  12.4413420  67.2262120  67.1927840  11.2676020  66.9719880
  62.8555960   3.3396090  61.7595400  62.0420570   2.8409260  61.6840710
  62.6617910   4.1794340  61.3431750  62.7764820  12.0167190  73.5035010
  62.7102130  11.0962860  73.2492600  62.1469960  12.1142630  74.2179650
  65.5704350   7.7115740  60.0557560  66.4583970   8.0232970  59.8808900
  65.5409440   6.8387990  59.6638140  56.6795440  12.6173150  65.4618430
  57.1974110  11.8141410  65.4075320  56.2279460  12.5552290  66.3035260
  61.5664940  13.8839430  60.7345730  61.9080640  14.6281660  60.2389050
  60.7377650  14.1970550  61.0970560  54.1639980   9.5834520  72.3744130
  53.8054920  10.2488370  72.9617470  53.8694540   8.7518070  72.7456750
  57.3653100  10.0418760  75.2583680  57.0653240  10.1875940  74.3611500
  58.1364340   9.4824050  75.1657070  62.7081550  14.8387760  73.2538810
  62.7226090  13.9068720  73.0357720  62.0006650  14.9247520  73.8928580
  67.8418620   9.0227580  59.5237420  67.7582340   9.4541800  58.6733860
  68.5612810   9.4825930  59.9564240  68.9192760  11.4795100  72.6007390
  68.1940950  12.0723880  72.4036780  69.4468220  11.4718640  71.8020760
  68.8705870  15.8769840  62.2519550  68.2282030  15.2225460  62.5263270
  68.4836530  16.2824930  61.4760220  64.4492350  13.2055270  66.0991240
  64.8016170  12.6083400  65.4392610  63.5654680  12.8799500  66.2699490
  60.5355630  13.9652960  63.5061650  61.2226760  14.5122170  63.8869240
  59.7488050  14.5093690  63.5411260  52.6748030   9.5825780  58.9978730
  53.5442880   9.8650580  59.2814650  52.1838350  10.3961650  58.8827540
  59.8382840  10.9698990  63.1187010  60.2945620  11.7804240  63.3447200
  59.4871050  10.6522130  63.9505500  62.1415450  16.4805330  70.3479310
  62.7857670  16.6864710  71.0252730  62.5044890  15.7193730  69.8950160
  63.4147530  14.4837680  69.0656760  64.0569760  13.7830840  69.1788930
  63.9396880  15.2636120  68.8853650  67.2603250  14.7686300  58.7895900
  67.0340830  14.0516740  59.3820540  66.8699450  14.5198740  57.9517650
  65.1885150  15.2832580  72.2692820  65.5241390  15.8699270  72.9470740
  64.2685490  15.1525290  72.4990610  53.0419280  18.7953160  59.5640360
  53.4016920  19.3942500  58.9097630  52.9011620  19.3413050  60.3375390
  52.7388550   3.0727760  73.0516230  52.0247070   3.2724680  73.6568840
  53.1583590   2.2967330  73.4231030  66.8419500  12.6858240  60.4510060
  66.5541200  13.1470930  61.2387940  67.6371670  12.2256010  60.7194280
  53.0261140  17.0608020  74.0382760  53.1352260  16.1202760  73.8978150
  52.3741700  17.3262770  73.3896490  61.0173730  15.3323910  75.4380880
  60.6970600  14.6133150  75.9826570  60.3432090  16.0078980  75.5116940
  59.0587900  16.1784360  60.3814030  59.0498000  16.9114050  59.7658540
  58.1386260  15.9315940  60.4740990  54.6594540  11.3999250  61.1260790
  54.0522490  12.1398150  61.1356090  55.1343890  11.4898610  60.2998990
  64.2327330   5.5650070  70.8017680  64.6008150   4.7445280  71.1297250
  63.3725530   5.6251960  71.2173330  67.5989360   4.5207010  61.6105240
  66.9702520   4.6252680  60.8963470  67.1041280   4.7403790  62.3999120
  62.0447500  16.2412600  59.0439220  62.1459480  16.0376590  58.1141200
  61.1449240  15.9870880  59.2487000  59.5673390   6.7992960  63.0263120
  58.8589540   7.2679300  63.4676730  59.8517870   6.1414970  63.6608310
  61.1929320   8.2189660  71.0255650  61.6914570   8.6935480  71.6907500
  61.3352270   7.2953180  71.2325680  63.5988820   3.5243620  64.4658910
  63.4756600   3.5429750  63.5168420  64.5473380   3.5722560  64.5857310
  60.6865610  18.7598920  63.7386890  60.9407110  18.7220310  62.8166260
  59.7378090  18.6332250  63.7315140  57.7708410   5.1078040  60.4013830
  58.6198940   5.5448190  60.3354020  57.4039680   5.4198300  61.2285890
  68.3996180   4.4357620  71.8684040  67.8969780   5.1763020  72.2077850
  69.2152840   4.8241620  71.5520830  66.6918190   9.6790800  65.3145400
  65.7508330   9.6941030  65.4893090  67.0062260   8.8926760  65.7605700
  56.6699830  11.3610400  58.8749360  57.4363100  11.2491760  59.4374790
  56.7474520  10.6648370  58.2226130  55.3646590   8.7935470  59.5582250
  55.4450180   7.8462980  59.6699650  56.2566340   9.1242350  59.6642910
  68.6943770  16.8499650  66.9899660  68.8191190  17.6730820  67.4623470
  69.5609330  16.6390380  66.6423810  56.1661300  18.9430860  66.6616790
  56.9023780  18.3946320  66.9325360  56.5502220  19.8086870  66.5222780
  53.0506780  15.0104430  62.5358300  52.1246560  15.2525570  62.5263710
  53.5163210  15.8378690  62.4143050  59.2763610  18.1161170  58.4842360
  60.0692220  18.4050000  58.0324150  58.7567960  17.6853340  57.8054840
  65.4384580  17.9637090  74.4087190  66.3906330  17.8795110  74.3587430
  65.2912800  18.6278800  75.0820980  68.3293780  17.3431300  59.9079100
  68.0435290  16.9296440  59.0933280  68.1313330  18.2719010  59.7879620
  52.8917390  10.6150390  74.7938420  53.3956410  10.0357670  75.3654650
  52.1524810  10.8990620  75.3314790  59.7941010  13.3364580  58.3484710
  59.6891650  12.7216930  59.0746090  59.6265230  12.8130470  57.5647720
  59.9455330  12.0221380  74.3273940  59.1801000  12.5906380  74.2428610
  60.1271290  11.7297590  73.4342170  63.0343740  12.3984610  58.9526700
  62.4853840  12.8453910  59.5969440  63.6563000  11.8933860  59.4764370
  67.0878680  13.7526710  74.8848960  67.8288150  14.0902470  74.3816420
  66.3251360  13.9218770  74.3318730  58.7018860  11.3575530  60.8492000
  59.1235280  11.1915400  61.6923390  58.8269700  10.5475760  60.3547140
  56.8646280   7.3372080  73.6562980  56.3342740   6.8463030  73.0286320
  57.5334350   7.7656280  73.1220910  61.2146500  10.3813140  58.0969100
  61.7352160   9.6662160  57.7310250  61.8614900  11.0199010  58.3969610
  65.7624340  11.8041540  73.4204170  66.1765360  11.9586620  74.2694590
  64.8275340  11.9296760  73.5829950  66.2346510   9.1437700  75.4243320
  66.8167280   8.3890020  75.3363800  66.4108280   9.6745140  74.6474800
  57.3518580   4.3034450  73.7360270  57.2575450   3.6855200  73.0111140
  56.7715970   5.0300740  73.5090180  60.1180020   2.8607690  70.7687660
  59.6697320   2.8831950  69.9233210  59.4845220   2.4626710  71.3657960
  60.5239570  11.7562020  71.3900100  60.9427680  12.5994750  71.2176340
  59.6048200  11.8934060  71.1606880  62.8603470   9.4878200  72.7737940
  62.9799680   8.8919340  73.5132780  63.7197470   9.5247890  72.3539240
  65.1991370  10.0415390  71.3500450  64.6726590  10.5658010  70.7465590
  65.5422710  10.6742780  71.9810180  57.5977760   7.4308760  57.7950160
  57.3966820   6.5676120  58.1563500  57.4269810   7.3442120  56.8571760
  58.3746990  18.0615030  72.5057830  57.8368080  18.7861090  72.1866530
  58.6280950  17.5845370  71.7155170  59.6272240   6.0299550  74.0313760
  60.2171930   5.7215400  74.7191580  58.8092480   5.5579300  74.1873660
  64.4465670   5.6465360  74.2646780  63.7581190   4.9846900  74.1996770
  65.1671690   5.2003630  74.7095240  56.3960560   4.5309380  57.7828040
  56.6986460   4.5376810  56.8747190  57.1355150   4.1807240  58.2795700
  61.2309200  19.2966240  72.7644480  61.1567900  20.2001380  73.0716850
  60.3288040  18.9778140  72.7366550  59.6145490   3.4744000  58.7684240
  59.2667490   2.7967990  58.1886690  59.8158260   3.0133510  59.5827630
  61.7794530  18.4624750  60.3870840  62.6745320  18.8009720  60.4089600
  61.8112160  17.7404160  59.7595120  55.4190690  13.8351800  58.6157840
  55.8565560  14.3781470  59.2715420  55.9038420  13.0098750  58.6254180
  52.6336490  16.6240830  66.0678100  52.9639500  15.7561890  65.8356740
  53.0627490  16.8299350  66.8983060  57.2298410  14.9549840  63.7280070
  56.9293950  14.8314810  64.6283980  57.1235900  14.0958430  63.3195800
  53.1226700  17.4911420  68.8059730  52.6857690  17.6712220  69.6383880
  53.6904380  18.2486040  68.6641450  68.7588880  16.9928420  73.0937040
  68.1590870  17.0520980  72.3500960  68.8882780  16.0533400  73.2233890
  69.9990330  14.7346240  58.4306750  69.1683290  14.8022890  58.9013980
  70.1762160  15.6250360  58.1273610  69.4546790  11.4793720  60.9340950
  70.2165700  12.0490370  61.0400640  69.4701160  10.9120920  61.7049260
  52.9551130  10.0031650  65.1648610  52.2999970   9.7343290  64.5208310
  53.7929080   9.8936130  64.7150590  70.4606760  12.3343820  65.7782880
  70.8315590  11.5511140  65.3718850  71.1008690  13.0232920  65.6000180
  67.4440520  13.7180400  71.1913200  66.6300360  14.1477560  71.4538990
  67.8514720  14.3298810  70.5782250  69.5065960  11.7728090  58.0913470
  69.7814800  12.6806970  57.9632690  69.3176700  11.7090620  59.0275460
  65.9041570   4.7972940  59.3867100  66.3226450   4.6103920  58.5463760
  65.5977630   3.9451990  59.6970030  69.4031300   9.7097080  63.0842900
  69.0274900   8.9425010  62.6524190  68.6734420  10.0919780  63.5717830
  53.9927060  10.3884220  69.7051950  54.3600100  10.3011620  70.5847970
  53.4237880   9.6250770  69.6058810  68.7930920   8.8568600  72.7182420
  68.5617010   8.6281350  71.8180370  69.0535470   9.7768150  72.6727310
  53.5443060   7.2993310  73.6110370  52.6499110   7.2660070  73.9504080
  54.0840610   7.4980100  74.3761620  67.2318990   4.0825030  75.4962120
  68.1089170   4.0908430  75.8796120  67.2439830   3.3455870  74.8854470
  52.1689210   7.2130580  61.1073940  51.2653290   7.4760780  60.9325600
  52.6529830   7.4841750  60.3273900  68.6782260   7.9354570  66.3850140
  69.2019740   7.4417220  65.7540310  69.2641680   8.0704930  67.1297710
  68.8571980   8.0194440  69.9069690  67.9074690   7.9857980  70.0214680
  69.0384990   8.9294550  69.6719460  54.7116420   6.2696120  59.0168320
  55.4208120   5.8479340  58.5315600  53.9956360   6.3371350  58.3851670
  54.3590580   2.3235450  58.0570970  55.0818710   2.8644390  58.3752190
  54.6315100   2.0498870  57.1812510  68.1682230   7.1927920  62.3242550
  68.6641350   6.9598790  63.1091430  67.9698300   6.3539760  61.9080190
  69.5969390   5.8288870  64.8580230  69.4868670   5.6744910  65.7962500
  70.3576980   5.3009810  64.6155640  67.9435110   1.7683000  71.3163230
  68.5807330   2.3817140  71.6822420  68.0910000   1.8043660  70.3712460
  70.4859660   3.6596790  58.0986370  71.4108970   3.5277970  57.8904660
  70.4635450   3.7389610  59.0522820  70.5598150   4.4307450  60.7243080
  69.7649650   4.3652570  61.2535990  70.7641430   5.3658090  60.7128430
  67.5016570  18.4699000  64.7181470  68.0975640  18.1483570  64.0415890
  67.7594720  17.9970820  65.5094740  55.4079140  14.9016910  74.8672100
  55.3648770  14.5309820  75.7486560  55.5390150  15.8394480  75.0073920
  59.1085170  16.4576500  70.4681820  58.8676530  16.7251060  69.5812340
  60.0487810  16.6282230  70.5232680  61.3139590   2.9209190  74.2238330
  61.2528480   3.5131020  74.9733740  62.2539970   2.8135150  74.0788590
  63.9514150   2.5779250  73.8630620  64.5654560   2.8958540  73.2011700
  64.4963710   2.0927840  74.4826480  70.3689330  18.4770880  71.2692460
  69.8747610  18.8739750  70.5519590  69.7602620  17.8520090  71.6629740
  55.2467170  17.8479160  71.9869880  54.6527490  17.7163860  72.7259920
  55.2391010  17.0117300  71.5211980  65.5994170   3.3482260  71.5741630
  65.2707530   2.5334020  71.1943360  66.5476470   3.3052070  71.4507320
  68.0528780  19.1194300  68.5479200  67.5931750  19.8710110  68.1737220
  67.4241240  18.4000770  68.4894000  54.8779400  15.2137540  70.9377920
  54.1513460  14.5942830  70.8703870  54.9388550  15.6078150  70.0676000
  58.4824500  17.4282540  67.7227330  58.9989520  16.8169900  67.1975590
  59.1321880  17.9311320  68.2138340  61.2220000  18.3191030  68.5496310
  61.5097810  18.0645330  67.6729320  61.7343220  17.7668390  69.1401880
  66.9918080   2.7604330  67.1741910  67.4326170   2.7049430  66.3263510
  66.7225670   3.6762340  67.2452090  53.1609400  18.5311930  64.1474680
  52.9931440  17.8982610  64.8456570  52.2943910  18.7371330  63.7968870
  53.7837420   2.3628710  61.6506540  54.5416780   2.4757590  61.0770570
  53.3214590   3.1997910  61.6049970  60.3251230   4.4767980  64.6408850
  59.5125740   4.1024870  64.3004730  60.8292870   3.7213060  64.9430040
  54.7672100  17.2245160  61.5924820  54.2419720  17.6053190  60.8886780
  54.6916680  17.8495930  62.3134530  56.1562570   2.8892760  60.1908510
  56.6855330   2.1022560  60.0616460  56.7890890   3.5683950  60.4244040
  58.3500410   2.6267900  63.2453900  57.7203150   1.9255210  63.4124030
  57.8105550   3.3872030  63.0287060  61.2892360  19.2407130  75.9164510
  62.2159670  19.0051400  75.9600470  61.2742790  20.0679130  75.4350540
  69.5237420  18.7832700  62.9138760  69.6989610  18.0970440  62.2699680
  68.8258990  19.3079750  62.5215430  57.3665070  19.1727540  60.4674070
  58.0983890  18.8886820  59.9197960  57.6258740  18.9340820  61.3573450
  56.5279860  15.2892270  60.4720400  55.8988740  15.7577370  61.0206230
  56.6427690  14.4441490  60.9066590  63.9829580   9.3397930  46.6221600
  63.9023630   8.4252540  46.3513310  63.5694000   9.8365000  45.9161310
  62.1147620  11.1176950  48.5030870  61.3389720  10.6377390  48.7929440
  62.7660550  10.4382600  48.3287030  56.1313450  11.4296760  49.3806630
  55.2998330  11.1745470  49.7803140  56.7394430  11.5007530  50.1164550
  66.1355050  15.5237140  47.2830000  65.6736580  14.7524380  47.6117170
  66.9480600  15.5503210  47.7882450  56.1114710  15.4636850  49.5764650
  56.4142750  14.5734590  49.3974870  56.8558300  16.0207070  49.3486900
  54.5405400   6.3898650  43.1649020  53.6522100   6.7314620  43.0628900
  54.8246590   6.1898970  42.2729850  52.5038410   8.9904300  49.0488720
  53.0754520   8.2226500  49.0492360  52.5039950   9.2893060  48.1395330
  62.3618360  17.8095150  46.9033990  61.7429800  18.2652650  46.3328430
  63.2170140  17.9646610  46.5023690  61.5556610  13.7934140  48.5101030
  61.4864890  12.8524080  48.3490160  62.3176470  13.8835550  49.0823600
  53.7463280   4.3988660  50.8357650  53.5666120   3.5014410  51.1160410
  53.3443360   4.9460530  51.5104600  62.5861780   6.6004520  48.7369960
  62.9626600   5.7276400  48.6243630  62.4881290   6.9363220  47.8460400
  56.7166790   4.9730150  44.1987400  56.8233540   5.8733880  44.5056160
  55.8059150   4.9248120  43.9082050  66.3685900   4.0954960  45.6698300
  67.1895520   3.6051530  45.7123780  66.4019980   4.6852620  46.4230140
  54.3649950   6.8949160  49.4439990  55.0460060   7.1587530  50.0627390
  54.0498000   6.0550030  49.7778000  58.5574520   7.9416520  48.5312580
  59.0652740   8.4397490  49.1717600  59.0887760   7.1651720  48.3551940
  70.6585450   6.1121710  52.2341930  69.9537620   6.5003420  51.7157040
  70.9243370   6.8072000  52.8362860  56.8410620   2.5815080  52.7976000
  56.8429060   3.0987470  51.9921900  56.0114930   2.1045260  52.7745930
  63.2281710  12.6934390  44.2965900  62.6098980  13.1583840  43.7328620
  63.7404960  13.3861870  44.7135410  58.0913470  12.2210260  50.9749500
  57.7582850  12.8479180  51.6170570  58.2680150  12.7472140  50.1951170
  66.6047380   6.0355340  48.4425840  65.9002950   6.3240230  49.0228950
  66.9659540   6.8455450  48.0825400  56.5225950   4.2925040  50.8046450
  56.8642760   5.1367090  50.5100320  55.5841760   4.4408780  50.9211790
  57.3032570  14.1891060  52.7898680  57.9206570  14.8642140  52.5083130
  56.4425690  14.5979040  52.6986180  52.5964910  13.3790920  41.6705530
  52.2192890  13.8678020  40.9390430  52.8537980  14.0516200  42.3012060
  68.2210160  15.6530470  50.7053320  67.5373680  16.3229580  50.6969990
  68.7604450  15.8511120  49.9398180  69.6734300   5.4810130  48.8335050
  68.7259210   5.5149110  48.9650480  69.9984290   6.2949080  49.2184410
  65.7568900  17.4974600  49.4198500  65.7696060  17.0936890  48.5520760
  65.2044120  18.2721890  49.3159930  67.0514320  14.2190820  44.5088670
  66.9410650  13.2765150  44.6338090  67.0482570  14.5806460  45.3951430
  65.1554340  12.4004440  50.7481110  65.5723130  12.1864550  49.9134570
  65.8794160  12.6577230  51.3189730  62.5934600   9.8456140  43.8651160
  61.6663880   9.7793520  44.0939630  62.7459420  10.7836270  43.7506400
  62.5803680   6.1173140  40.8618320  61.6407350   6.2787100  40.9470780
  62.8986940   6.8358820  40.3154310  69.1016440  10.7991660  50.8397350
  68.2735070  10.8684750  50.3647480  69.6966920  11.3845970  50.3713180
  66.6231890  11.4076440  44.3686410  66.0044310  11.0695990  43.7212710
  66.6056340  10.7636200  45.0765600  66.0658450   7.5860980  51.7852220
  65.6529630   8.4114690  52.0392210  65.3334400   7.0006020  51.5928580
  58.1991240  10.3720880  46.6470890  57.7948240   9.6598130  46.1516790
  58.2854360  10.0274120  47.5358930  58.6672940  14.0588440  48.8110100
  58.3701230  13.4533910  48.1317880  59.6172760  14.0965750  48.6999460
  56.9119860   7.1464090  50.4269930  57.4634450   7.2559430  49.6523180
  57.4263370   7.5201690  51.1425160  66.7558550  17.6320310  52.4733200
  66.2789110  18.4392500  52.2805810  66.0720340  16.9798640  52.6259410
  57.7591370  13.7970130  55.4617900  56.8619900  14.0210100  55.7091300
  57.7844240  13.9205070  54.5129300  64.7996590  10.6463250  41.3759160
  65.2389870   9.8085680  41.2296980  65.5125010  11.2792650  41.4623300
  56.5862590  10.6683450  54.0375270  56.4470360  11.5406250  54.4062670
  55.7043950  10.3256260  53.8923210  62.9091970  15.5859320  45.3440400
  63.3487880  16.3283650  44.9295790  62.8478860  15.8285890  46.2679360
  58.3842940  16.6105150  56.2460420  58.3558370  17.0148100  55.3788850
  58.2207910  15.6815510  56.0832020  68.3813730   1.9006060  39.6900200
  68.0686390   1.9932890  40.5899270  69.1426200   2.4787090  39.6397630
  54.8995870   9.2665860  44.1477540  54.7793470   9.9927950  43.5358810
  54.5896760   8.4968770  43.6705450  70.3357760  17.3932250  57.5424590
  70.8117480  17.8715140  58.2213670  70.9564920  17.3249740  56.8170090
  52.5381240  12.4381000  49.9546180  52.6161660  12.5729770  49.0101900
  53.1522920  11.7296890  50.1474300  53.7828870  14.1381190  46.3652360
  53.3756950  14.2795780  45.5105960  54.6741880  13.8541350  46.1623570
  69.7391010  14.5845100  54.7024600  69.8654070  14.3456980  53.7841780
  69.7812390  13.7529640  55.1746680  63.6007750  18.2873100  53.2719410
  64.1152420  18.1981110  54.0741840  62.7576830  18.6332800  53.5647320
  65.5762150  18.5728440  42.7003410  65.4163290  18.2831380  43.5985240
  65.4108860  17.7968570  42.1648640  58.0550530  18.3526970  44.4775030
  57.8793010  17.4362510  44.2642830  57.2006270  18.7114260  44.7172830
  65.2788280  16.0816000  41.2601410  64.5853440  16.0793290  40.6003690
  66.0211140  15.6575320  40.8295580  64.8438210  17.7078710  45.3349900
  65.2995160  16.9268090  45.6488520  65.1830730  18.4185530  45.8791080
  69.5915020   6.6377560  55.6674340  68.9759290   7.1457230  55.1389800
  69.2711440   5.7375890  55.6100280  52.5940760  13.4795170  52.4940640
  52.7571800  13.0100530  51.6760010  53.0593210  12.9718730  53.1589480
  57.3659530   2.6100930  47.5301210  56.9227680   3.3910470  47.1985730
  57.9244520   2.9330820  48.2372150  61.6529340   5.4769450  53.1336530
  61.1908710   5.6852470  53.9456470  61.2507450   4.6628800  52.8307200
  66.6533850   6.6978400  54.2633190  65.8027440   6.3984150  54.5842260
  66.4935640   6.9420410  53.3517010  63.7483560   8.1980150  56.3631980
  64.0736970   7.3643900  56.0234210  64.5363890   8.7208670  56.5110310
  59.4035430   3.1548260  49.3890810  59.7007760   4.0611090  49.3082830
  59.9520990   2.6667040  48.7750380  57.1573750   7.7334500  45.2582460
  56.9314670   7.5171670  46.1629080  56.3766280   8.1662960  44.9128430
  64.3871510   7.7397870  43.8573110  63.7880400   8.4633670  43.6736730
  64.9351120   7.6774650  43.0749560  59.5972960   8.6320080  55.9242730
  59.5016560   7.6914810  55.7743130  60.4404940   8.8535150  55.5290800
  62.9936380   6.3761410  45.8876390  63.3865950   6.6933610  45.0745080
  63.3553230   5.4973290  46.0020910  54.7283500   5.0433750  54.0776510
  54.3346890   5.8908960  54.2849290  54.0401900   4.4060120  54.2685150
  61.3028550   5.1268720  57.1473250  60.6126870   4.9340920  57.7819340
  62.0460850   5.4103360  57.6797550  52.0300550   2.9662210  48.1106590
  51.7413600   3.5365070  48.8231570  52.7746310   2.4866660  48.4737820
  52.2170780   6.9082330  39.3209310  52.1345450   7.8513090  39.4624300
  51.8653840   6.7657240  38.4421660  63.5791520   8.9667160  49.9827170
  62.8472640   9.4753970  50.3317270  63.1815860   8.1497140  49.6815950
  60.0168910   5.6421360  48.3879660  60.0204970   5.2011310  47.5384200
  60.9120030   5.9638690  48.4951480  55.8671290   5.5247850  47.3473870
  55.5271340   6.0023080  48.1040920  55.1048610   5.0712970  46.9874970
  60.0789060   6.6433440  41.3786420  60.2001880   6.6019920  42.3272240
  59.6937570   7.5057590  41.2233150  64.0417430   4.4200840  49.3950110
  64.0590170   4.8709490  50.2391960  63.7933010   3.5206480  49.6083550
  59.0910560   8.9534580  40.7769720  58.5227460   8.5052830  40.1505630
  59.7999560   9.3127360  40.2434870  54.1679740  12.8546600  54.6536450
  53.7834530  12.2140270  55.2519410  54.4791930  13.5582720  55.2231180
  60.3176880   9.7023140  50.1345070  60.6847010   9.2281710  50.8806410
  60.1281940  10.5764710  50.4753410  53.1817370   4.4466830  46.2638540
  52.8964290   4.0822500  47.1017160  53.1196230   3.7147290  45.6501680
  58.1076250   8.7431780  52.4529280  57.8033320   9.6223760  52.6779640
  59.0622710   8.8031570  52.4886720  56.6358040  12.9492770  43.0496130
  55.8620300  12.4090390  42.8894850  57.3652670  12.4299380  42.7113890
  67.3946020  11.9458130  48.8422520  68.1145140  12.4413420  48.4518630
  67.1927840  11.2676020  48.1976390  62.8555960   3.3396090  42.9851910
  62.0420570   2.8409260  42.9097220  62.6617910   4.1794340  42.5688260
  62.7764820  12.0167190  54.7291520  62.7102130  11.0962860  54.4749110
  62.1469960  12.1142630  55.4436160  65.5704350   7.7115740  41.2814070
  66.4583970   8.0232970  41.1065410  65.5409440   6.8387990  40.8894650
  56.6795440  12.6173150  46.6874940  57.1974110  11.8141410  46.6331830
  56.2279460  12.5552290  47.5291770  61.5664940  13.8839430  41.9602240
  61.9080640  14.6281660  41.4645560  60.7377650  14.1970550  42.3227070
  54.1639980   9.5834520  53.6000640  53.8054920  10.2488370  54.1873980
  53.8694540   8.7518070  53.9713260  57.3653100  10.0418760  56.4840190
  57.0653240  10.1875940  55.5868010  58.1364340   9.4824050  56.3913580
  62.7081550  14.8387760  54.4795320  62.7226090  13.9068720  54.2614230
  62.0006650  14.9247520  55.1185090  67.8418620   9.0227580  40.7493930
  67.7582340   9.4541800  39.8990370  68.5612810   9.4825930  41.1820750
  68.9192760  11.4795100  53.8263900  68.1940950  12.0723880  53.6293290
  69.4468220  11.4718640  53.0277270  68.8705870  15.8769840  43.4776060
  68.2282030  15.2225460  43.7519780  68.4836530  16.2824930  42.7016730
  64.4492350  13.2055270  47.3247750  64.8016170  12.6083400  46.6649120
  63.5654680  12.8799500  47.4956000  60.5355630  13.9652960  44.7318160
  61.2226760  14.5122170  45.1125750  59.7488050  14.5093690  44.7667770
  52.6748030   9.5825780  40.2235240  53.5442880   9.8650580  40.5071160
  52.1838350  10.3961650  40.1084050  59.8382840  10.9698990  44.3443520
  60.2945620  11.7804240  44.5703710  59.4871050  10.6522130  45.1762010
  62.1415450  16.4805330  51.5735820  62.7857670  16.6864710  52.2509240
  62.5044890  15.7193730  51.1206670  63.4147530  14.4837680  50.2913270
  64.0569760  13.7830840  50.4045440  63.9396880  15.2636120  50.1110160
  67.2603250  14.7686300  40.0152410  67.0340830  14.0516740  40.6077050
  66.8699450  14.5198740  39.1774160  65.1885150  15.2832580  53.4949330
  65.5241390  15.8699270  54.1727250  64.2685490  15.1525290  53.7247120
  53.0419280  18.7953160  40.7896870  53.4016920  19.3942500  40.1354140
  52.9011620  19.3413050  41.5631900  52.7388550   3.0727760  54.2772740
  52.0247070   3.2724680  54.8825350  53.1583590   2.2967330  54.6487540
  66.8419500  12.6858240  41.6766570  66.5541200  13.1470930  42.4644450
  67.6371670  12.2256010  41.9450790  53.0261140  17.0608020  55.2639270
  53.1352260  16.1202760  55.1234660  52.3741700  17.3262770  54.6153000
  61.0173730  15.3323910  56.6637390  60.6970600  14.6133150  57.2083080
  60.3432090  16.0078980  56.7373450  59.0587900  16.1784360  41.6070540
  59.0498000  16.9114050  40.9915050  58.1386260  15.9315940  41.6997500
  54.6594540  11.3999250  42.3517300  54.0522490  12.1398150  42.3612600
  55.1343890  11.4898610  41.5255500  64.2327330   5.5650070  52.0274190
  64.6008150   4.7445280  52.3553760  63.3725530   5.6251960  52.4429840
  67.5989360   4.5207010  42.8361750  66.9702520   4.6252680  42.1219980
  67.1041280   4.7403790  43.6255630  62.0447500  16.2412600  40.2695730
  62.1459480  16.0376590  39.3397710  61.1449240  15.9870880  40.4743510
  59.5673390   6.7992960  44.2519630  58.8589540   7.2679300  44.6933240
  59.8517870   6.1414970  44.8864820  61.1929320   8.2189660  52.2512160
  61.6914570   8.6935480  52.9164010  61.3352270   7.2953180  52.4582190
  63.5988820   3.5243620  45.6915420  63.4756600   3.5429750  44.7424930
  64.5473380   3.5722560  45.8113820  60.6865610  18.7598920  44.9643400
  60.9407110  18.7220310  44.0422770  59.7378090  18.6332250  44.9571650
  57.7708410   5.1078040  41.6270340  58.6198940   5.5448190  41.5610530
  57.4039680   5.4198300  42.4542400  68.3996180   4.4357620  53.0940550
  67.8969780   5.1763020  53.4334360  69.2152840   4.8241620  52.7777340
  66.6918190   9.6790800  46.5401910  65.7508330   9.6941030  46.7149600
  67.0062260   8.8926760  46.9862210  56.6699830  11.3610400  40.1005870
  57.4363100  11.2491760  40.6631300  56.7474520  10.6648370  39.4482640
  55.3646590   8.7935470  40.7838760  55.4450180   7.8462980  40.8956160
  56.2566340   9.1242350  40.8899420  68.6943770  16.8499650  48.2156170
  68.8191190  17.6730820  48.6879980  69.5609330  16.6390380  47.8680320
  56.1661300  18.9430860  47.8873300  56.9023780  18.3946320  48.1581870
  56.5502220  19.8086870  47.7479290  53.0506780  15.0104430  43.7614810
  52.1246560  15.2525570  43.7520220  53.5163210  15.8378690  43.6399560
  55.1719580  18.1276930  57.0758880  55.9732310  18.4488980  57.4894280
  54.6571400  17.7672510  57.7978790  59.2763610  18.1161170  39.7098870
  60.0692220  18.4050000  39.2580660  58.7567960  17.6853340  39.0311350
  64.0084210  14.2356800  57.0234290  63.4022370  14.2588400  56.2830040
  63.7038320  13.5039840  57.5601540  65.4384580  17.9637090  55.6343700
  66.3906330  17.8795110  55.5843940  65.2912800  18.6278800  56.3077490
  68.3293780  17.3431300  41.1335610  68.0435290  16.9296440  40.3189790
  68.1313330  18.2719010  41.0136130  52.8917390  10.6150390  56.0194930
  53.3956410  10.0357670  56.5911160  52.1524810  10.8990620  56.5571300
  59.7941010  13.3364580  39.5741220  59.6891650  12.7216930  40.3002600
  59.6265230  12.8130470  38.7904230  59.9455330  12.0221380  55.5530450
  59.1801000  12.5906380  55.4685120  60.1271290  11.7297590  54.6598680
  63.0343740  12.3984610  40.1783210  62.4853840  12.8453910  40.8225950
  63.6563000  11.8933860  40.7020880  67.0878680  13.7526710  56.1105470
  67.8288150  14.0902470  55.6072930  66.3251360  13.9218770  55.5575240
  54.9240470   8.7579980  56.9145000  54.9645810   8.4593850  57.8230230
  55.7785970   9.1587590  56.7552520  58.7018860  11.3575530  42.0748510
  59.1235280  11.1915400  42.9179900  58.8269700  10.5475760  41.5803650
  56.8646280   7.3372080  54.8819490  56.3342740   6.8463030  54.2542830
  57.5334350   7.7656280  54.3477420  61.2146500  10.3813140  39.3225610
  61.7352160   9.6662160  38.9566760  61.8614900  11.0199010  39.6226120
  65.7624340  11.8041540  54.6460680  66.1765360  11.9586620  55.4951100
  64.8275340  11.9296760  54.8086460  66.2346510   9.1437700  56.6499830
  66.8167280   8.3890020  56.5620310  66.4108280   9.6745140  55.8731310
  57.3518580   4.3034450  54.9616780  57.2575450   3.6855200  54.2367650
  56.7715970   5.0300740  54.7346690  60.1180020   2.8607690  51.9944170
  59.6697320   2.8831950  51.1489720  59.4845220   2.4626710  52.5914470
  60.5239570  11.7562020  52.6156610  60.9427680  12.5994750  52.4432850
  59.6048200  11.8934060  52.3863390  62.8603470   9.4878200  53.9994450
  62.9799680   8.8919340  54.7389290  63.7197470   9.5247890  53.5795750
  65.1991370  10.0415390  52.5756960  64.6726590  10.5658010  51.9722100
  65.5422710  10.6742780  53.2066690  57.5977760   7.4308760  39.0206670
  57.3966820   6.5676120  39.3820010  57.4269810   7.3442120  38.0828270
  58.3746990  18.0615030  53.7314340  57.8368080  18.7861090  53.4123040
  58.6280950  17.5845370  52.9411680  59.6272240   6.0299550  55.2570270
  60.2171930   5.7215400  55.9448090  58.8092480   5.5579300  55.4130170
  64.4465670   5.6465360  55.4903290  63.7581190   4.9846900  55.4253280
  65.1671690   5.2003630  55.9351750  56.3960560   4.5309380  39.0084550
  56.6986460   4.5376810  38.1003700  57.1355150   4.1807240  39.5052210
  61.2309200  19.2966240  53.9900990  61.1567900  20.2001380  54.2973360
  60.3288040  18.9778140  53.9623060  59.6145490   3.4744000  39.9940750
  59.2667490   2.7967990  39.4143200  59.8158260   3.0133510  40.8084140
  61.7794530  18.4624750  41.6127350  62.6745320  18.8009720  41.6346110
  61.8112160  17.7404160  40.9851630  55.4190690  13.8351800  39.8414350
  55.8565560  14.3781470  40.4971930  55.9038420  13.0098750  39.8510690
  52.6336490  16.6240830  47.2934610  52.9639500  15.7561890  47.0613250
  53.0627490  16.8299350  48.1239570  57.2298410  14.9549840  44.9536580
  56.9293950  14.8314810  45.8540490  57.1235900  14.0958430  44.5452310
  53.1226700  17.4911420  50.0316240  52.6857690  17.6712220  50.8640390
  53.6904380  18.2486040  49.8897960  68.7588880  16.9928420  54.3193550
  68.1590870  17.0520980  53.5757470  68.8882780  16.0533400  54.4490400
  69.9990330  14.7346240  39.6563260  69.1683290  14.8022890  40.1270490
  70.1762160  15.6250360  39.3530120  69.4546790  11.4793720  42.1597460
  70.2165700  12.0490370  42.2657150  69.4701160  10.9120920  42.9305770
  52.9551130  10.0031650  46.3905120  52.2999970   9.7343290  45.7464820
  53.7929080   9.8936130  45.9407100  70.4606760  12.3343820  47.0039390
  70.8315590  11.5511140  46.5975360  71.1008690  13.0232920  46.8256690
  67.4440520  13.7180400  52.4169710  66.6300360  14.1477560  52.6795500
  67.8514720  14.3298810  51.8038760  69.5065960  11.7728090  39.3169980
  69.7814800  12.6806970  39.1889200  69.3176700  11.7090620  40.2531970
  65.9041570   4.7972940  40.6123610  66.3226450   4.6103920  39.7720270
  65.5977630   3.9451990  40.9226540  69.4031300   9.7097080  44.3099410
  69.0274900   8.9425010  43.8780700  68.6734420  10.0919780  44.7974340
  53.9927060  10.3884220  50.9308460  54.3600100  10.3011620  51.8104480
  53.4237880   9.6250770  50.8315320  68.7930920   8.8568600  53.9438930
  68.5617010   8.6281350  53.0436880  69.0535470   9.7768150  53.8983820
  53.5443060   7.2993310  54.8366880  52.6499110   7.2660070  55.1760590
  54.0840610   7.4980100  55.6018130  67.2318990   4.0825030  56.7218630
  68.1089170   4.0908430  57.1052630  67.2439830   3.3455870  56.1110980
  52.1689210   7.2130580  42.3330450  51.2653290   7.4760780  42.1582110
  52.6529830   7.4841750  41.5530410  68.6782260   7.9354570  47.6106650
  69.2019740   7.4417220  46.9796820  69.2641680   8.0704930  48.3554220
  68.8571980   8.0194440  51.1326200  67.9074690   7.9857980  51.2471190
  69.0384990   8.9294550  50.8975970  54.7116420   6.2696120  40.2424830
  55.4208120   5.8479340  39.7572110  53.9956360   6.3371350  39.6108180
  54.3590580   2.3235450  39.2827480  55.0818710   2.8644390  39.6008700
  54.6315100   2.0498870  38.4069020  68.1682230   7.1927920  43.5499060
  68.6641350   6.9598790  44.3347940  67.9698300   6.3539760  43.1336700
  69.5969390   5.8288870  46.0836740  69.4868670   5.6744910  47.0219010
  70.3576980   5.3009810  45.8412150  67.9435110   1.7683000  52.5419740
  68.5807330   2.3817140  52.9078930  68.0910000   1.8043660  51.5968970
  70.4859660   3.6596790  39.3242880  71.4108970   3.5277970  39.1161170
  70.4635450   3.7389610  40.2779330  70.5598150   4.4307450  41.9499590
  69.7649650   4.3652570  42.4792500  70.7641430   5.3658090  41.9384940
  67.5016570  18.4699000  45.9437980  68.0975640  18.1483570  45.2672400
  67.7594720  17.9970820  46.7351250  55.4079140  14.9016910  56.0928610
  55.3648770  14.5309820  56.9743070  55.5390150  15.8394480  56.2330430
  59.1085170  16.4576500  51.6938330  58.8676530  16.7251060  50.8068850
  60.0487810  16.6282230  51.7489190  61.3139590   2.9209190  55.4494840
  61.2528480   3.5131020  56.1990250  62.2539970   2.8135150  55.3045100
  63.9514150   2.5779250  55.0887130  64.5654560   2.8958540  54.4268210
  64.4963710   2.0927840  55.7082990  70.3689330  18.4770880  52.4948970
  69.8747610  18.8739750  51.7776100  69.7602620  17.8520090  52.8886250
  55.2467170  17.8479160  53.2126390  54.6527490  17.7163860  53.9516430
  55.2391010  17.0117300  52.7468490  65.5994170   3.3482260  52.7998140
  65.2707530   2.5334020  52.4199870  66.5476470   3.3052070  52.6763830
  68.0528780  19.1194300  49.7735710  67.5931750  19.8710110  49.3993730
  67.4241240  18.4000770  49.7150510  54.8779400  15.2137540  52.1634430
  54.1513460  14.5942830  52.0960380  54.9388550  15.6078150  51.2932510
  58.4824500  17.4282540  48.9483840  58.9989520  16.8169900  48.4232100
  59.1321880  17.9311320  49.4394850  61.2220000  18.3191030  49.7752820
  61.5097810  18.0645330  48.8985830  61.7343220  17.7668390  50.3658390
  66.9918080   2.7604330  48.3998420  67.4326170   2.7049430  47.5520020
  66.7225670   3.6762340  48.4708600  53.1609400  18.5311930  45.3731190
  52.9931440  17.8982610  46.0713080  52.2943910  18.7371330  45.0225380
  53.7837420   2.3628710  42.8763050  54.5416780   2.4757590  42.3027080
  53.3214590   3.1997910  42.8306480  60.3251230   4.4767980  45.8665360
  59.5125740   4.1024870  45.5261240  60.8292870   3.7213060  46.1686550
  54.7672100  17.2245160  42.8181330  54.2419720  17.6053190  42.1143290
  54.6916680  17.8495930  43.5391040  56.1562570   2.8892760  41.4165020
  56.6855330   2.1022560  41.2872970  56.7890890   3.5683950  41.6500550
  58.3500410   2.6267900  44.4710410  57.7203150   1.9255210  44.6380540
  57.8105550   3.3872030  44.2543570  61.2892360  19.2407130  57.1421020
  62.2159670  19.0051400  57.1856980  61.2742790  20.0679130  56.6607050
  69.5237420  18.7832700  44.1395270  69.6989610  18.0970440  43.4956190
  68.8258990  19.3079750  43.7471940  57.3665070  19.1727540  41.6930580
  58.0983890  18.8886820  41.1454470  57.6258740  18.9340820  42.5829960
  56.5279860  15.2892270  41.6976910  55.8988740  15.7577370  42.2462740
  56.6427690  14.4441490  42.1323100  67.8569920  18.4676990  56.9662060
  68.6495240  17.9726220  56.7588020  68.1503070  19.1467130  57.5737670
  63.9829580   9.3397930  27.8478110  63.9023630   8.4252540  27.5769820
  63.5694000   9.8365000  27.1417820  62.1147620  11.1176950  29.7287380
  61.3389720  10.6377390  30.0185950  62.7660550  10.4382600  29.5543540
  56.1313450  11.4296760  30.6063140  55.2998330  11.1745470  31.0059650
  56.7394430  11.5007530  31.3421060  66.1355050  15.5237140  28.5086510
  65.6736580  14.7524380  28.8373680  66.9480600  15.5503210  29.0138960
  56.1114710  15.4636850  30.8021160  56.4142750  14.5734590  30.6231380
  56.8558300  16.0207070  30.5743410  54.5405400   6.3898650  24.3905530
  53.6522100   6.7314620  24.2885410  54.8246590   6.1898970  23.4986360
  52.5038410   8.9904300  30.2745230  53.0754520   8.2226500  30.2748870
  52.5039950   9.2893060  29.3651840  62.3618360  17.8095150  28.1290500
  61.7429800  18.2652650  27.5584940  63.2170140  17.9646610  27.7280200
  61.5556610  13.7934140  29.7357540  61.4864890  12.8524080  29.5746670
  62.3176470  13.8835550  30.3080110  53.7463280   4.3988660  32.0614160
  53.5666120   3.5014410  32.3416920  53.3443360   4.9460530  32.7361110
  62.5861780   6.6004520  29.9626470  62.9626600   5.7276400  29.8500140
  62.4881290   6.9363220  29.0716910  56.7166790   4.9730150  25.4243910
  56.8233540   5.8733880  25.7312670  55.8059150   4.9248120  25.1338560
  66.3685900   4.0954960  26.8954810  67.1895520   3.6051530  26.9380290
  66.4019980   4.6852620  27.6486650  54.3649950   6.8949160  30.6696500
  55.0460060   7.1587530  31.2883900  54.0498000   6.0550030  31.0034510
  58.5574520   7.9416520  29.7569090  59.0652740   8.4397490  30.3974110
  59.0887760   7.1651720  29.5808450  70.6585450   6.1121710  33.4598440
  69.9537620   6.5003420  32.9413550  70.9243370   6.8072000  34.0619370
  56.8410620   2.5815080  34.0232510  56.8429060   3.0987470  33.2178410
  56.0114930   2.1045260  34.0002440  63.2281710  12.6934390  25.5222410
  62.6098980  13.1583840  24.9585130  63.7404960  13.3861870  25.9391920
  58.0913470  12.2210260  32.2006010  57.7582850  12.8479180  32.8427080
  58.2680150  12.7472140  31.4207680  66.6047380   6.0355340  29.6682350
  65.9002950   6.3240230  30.2485460  66.9659540   6.8455450  29.3081910
  56.5225950   4.2925040  32.0302960  56.8642760   5.1367090  31.7356830
  55.5841760   4.4408780  32.1468300  57.3032570  14.1891060  34.0155190
  57.9206570  14.8642140  33.7339640  56.4425690  14.5979040  33.9242690
  52.5964910  13.3790920  22.8962040  52.2192890  13.8678020  22.1646940
  52.8537980  14.0516200  23.5268570  68.2210160  15.6530470  31.9309830
  67.5373680  16.3229580  31.9226500  68.7604450  15.8511120  31.1654690
  69.6734300   5.4810130  30.0591560  68.7259210   5.5149110  30.1906990
  69.9984290   6.2949080  30.4440920  65.7568900  17.4974600  30.6455010
  65.7696060  17.0936890  29.7777270  65.2044120  18.2721890  30.5416440
  67.0514320  14.2190820  25.7345180  66.9410650  13.2765150  25.8594600
  67.0482570  14.5806460  26.6207940  65.1554340  12.4004440  31.9737620
  65.5723130  12.1864550  31.1391080  65.8794160  12.6577230  32.5446240
  62.5934600   9.8456140  25.0907670  61.6663880   9.7793520  25.3196140
  62.7459420  10.7836270  24.9762910  62.5803680   6.1173140  22.0874830
  61.6407350   6.2787100  22.1727290  62.8986940   6.8358820  21.5410820
  69.1016440  10.7991660  32.0653860  68.2735070  10.8684750  31.5903990
  69.6966920  11.3845970  31.5969690  66.6231890  11.4076440  25.5942920
  66.0044310  11.0695990  24.9469220  66.6056340  10.7636200  26.3022110
  66.0658450   7.5860980  33.0108730  65.6529630   8.4114690  33.2648720
  65.3334400   7.0006020  32.8185090  58.1991240  10.3720880  27.8727400
  57.7948240   9.6598130  27.3773300  58.2854360  10.0274120  28.7615440
  58.6672940  14.0588440  30.0366610  58.3701230  13.4533910  29.3574390
  59.6172760  14.0965750  29.9255970  56.9119860   7.1464090  31.6526440
  57.4634450   7.2559430  30.8779690  57.4263370   7.5201690  32.3681670
  66.7558550  17.6320310  33.6989710  66.2789110  18.4392500  33.5062320
  66.0720340  16.9798640  33.8515920  57.7591370  13.7970130  36.6874410
  56.8619900  14.0210100  36.9347810  57.7844240  13.9205070  35.7385810
  64.7996590  10.6463250  22.6015670  65.2389870   9.8085680  22.4553490
  65.5125010  11.2792650  22.6879810  56.5862590  10.6683450  35.2631780
  56.4470360  11.5406250  35.6319180  55.7043950  10.3256260  35.1179720
  62.9091970  15.5859320  26.5696910  63.3487880  16.3283650  26.1552300
  62.8478860  15.8285890  27.4935870  58.3842940  16.6105150  37.4716930
  58.3558370  17.0148100  36.6045360  58.2207910  15.6815510  37.3088530
  68.3813730   1.9006060  20.9156710  68.0686390   1.9932890  21.8155780
  69.1426200   2.4787090  20.8654140  54.8995870   9.2665860  25.3734050
  54.7793470   9.9927950  24.7615320  54.5896760   8.4968770  24.8961960
  70.3357760  17.3932250  38.7681100  70.8117480  17.8715140  39.4470180
  70.9564920  17.3249740  38.0426600  52.5381240  12.4381000  31.1802690
  52.6161660  12.5729770  30.2358410  53.1522920  11.7296890  31.3730810
  53.7828870  14.1381190  27.5908870  53.3756950  14.2795780  26.7362470
  54.6741880  13.8541350  27.3880080  69.7391010  14.5845100  35.9281110
  69.8654070  14.3456980  35.0098290  69.7812390  13.7529640  36.4003190
  63.6007750  18.2873100  34.4975920  64.1152420  18.1981110  35.2998350
  62.7576830  18.6332800  34.7903830  65.5762150  18.5728440  23.9259920
  65.4163290  18.2831380  24.8241750  65.4108860  17.7968570  23.3905150
  58.0550530  18.3526970  25.7031540  57.8793010  17.4362510  25.4899340
  57.2006270  18.7114260  25.9429340  65.2788280  16.0816000  22.4857920
  64.5853440  16.0793290  21.8260200  66.0211140  15.6575320  22.0552090
  64.8438210  17.7078710  26.5606410  65.2995160  16.9268090  26.8745030
  65.1830730  18.4185530  27.1047590  69.5915020   6.6377560  36.8930850
  68.9759290   7.1457230  36.3646310  69.2711440   5.7375890  36.8356790
  52.5940760  13.4795170  33.7197150  52.7571800  13.0100530  32.9016520
  53.0593210  12.9718730  34.3845990  57.3659530   2.6100930  28.7557720
  56.9227680   3.3910470  28.4242240  57.9244520   2.9330820  29.4628660
  61.6529340   5.4769450  34.3593040  61.1908710   5.6852470  35.1712980
  61.2507450   4.6628800  34.0563710  66.6533850   6.6978400  35.4889700
  65.8027440   6.3984150  35.8098770  66.4935640   6.9420410  34.5773520
  63.7483560   8.1980150  37.5888490  64.0736970   7.3643900  37.2490720
  64.5363890   8.7208670  37.7366820  59.4035430   3.1548260  30.6147320
  59.7007760   4.0611090  30.5339340  59.9520990   2.6667040  30.0006890
  57.1573750   7.7334500  26.4838970  56.9314670   7.5171670  27.3885590
  56.3766280   8.1662960  26.1384940  64.3871510   7.7397870  25.0829620
  63.7880400   8.4633670  24.8993240  64.9351120   7.6774650  24.3006070
  59.5972960   8.6320080  37.1499240  59.5016560   7.6914810  36.9999640
  60.4404940   8.8535150  36.7547310  62.9936380   6.3761410  27.1132900
  63.3865950   6.6933610  26.3001590  63.3553230   5.4973290  27.2277420
  54.7283500   5.0433750  35.3033020  54.3346890   5.8908960  35.5105800
  54.0401900   4.4060120  35.4941660  61.3028550   5.1268720  38.3729760
  60.6126870   4.9340920  39.0075850  62.0460850   5.4103360  38.9054060
  52.0300550   2.9662210  29.3363100  51.7413600   3.5365070  30.0488080
  52.7746310   2.4866660  29.6994330  52.2170780   6.9082330  20.5465820
  52.1345450   7.8513090  20.6880810  51.8653840   6.7657240  19.6678170
  63.5791520   8.9667160  31.2083680  62.8472640   9.4753970  31.5573780
  63.1815860   8.1497140  30.9072460  60.0168910   5.6421360  29.6136170
  60.0204970   5.2011310  28.7640710  60.9120030   5.9638690  29.7207990
  55.8671290   5.5247850  28.5730380  55.5271340   6.0023080  29.3297430
  55.1048610   5.0712970  28.2131480  60.0789060   6.6433440  22.6042930
  60.2001880   6.6019920  23.5528750  59.6937570   7.5057590  22.4489660
  64.0417430   4.4200840  30.6206620  64.0590170   4.8709490  31.4648470
  63.7933010   3.5206480  30.8340060  59.0910560   8.9534580  22.0026230
  58.5227460   8.5052830  21.3762140  59.7999560   9.3127360  21.4691380
  54.1679740  12.8546600  35.8792960  53.7834530  12.2140270  36.4775920
  54.4791930  13.5582720  36.4487690  60.3176880   9.7023140  31.3601580
  60.6847010   9.2281710  32.1062920  60.1281940  10.5764710  31.7009920
  53.1817370   4.4466830  27.4895050  52.8964290   4.0822500  28.3273670
  53.1196230   3.7147290  26.8758190  58.1076250   8.7431780  33.6785790
  57.8033320   9.6223760  33.9036150  59.0622710   8.8031570  33.7143230
  56.6358040  12.9492770  24.2752640  55.8620300  12.4090390  24.1151360
  57.3652670  12.4299380  23.9370400  67.3946020  11.9458130  30.0679030
  68.1145140  12.4413420  29.6775140  67.1927840  11.2676020  29.4232900
  62.8555960   3.3396090  24.2108420  62.0420570   2.8409260  24.1353730
  62.6617910   4.1794340  23.7944770  62.7764820  12.0167190  35.9548030
  62.7102130  11.0962860  35.7005620  62.1469960  12.1142630  36.6692670
  65.5704350   7.7115740  22.5070580  66.4583970   8.0232970  22.3321920
  65.5409440   6.8387990  22.1151160  56.6795440  12.6173150  27.9131450
  57.1974110  11.8141410  27.8588340  56.2279460  12.5552290  28.7548280
  61.5664940  13.8839430  23.1858750  61.9080640  14.6281660  22.6902070
  60.7377650  14.1970550  23.5483580  54.1639980   9.5834520  34.8257150
  53.8054920  10.2488370  35.4130490  53.8694540   8.7518070  35.1969770
  57.3653100  10.0418760  37.7096700  57.0653240  10.1875940  36.8124520
  58.1364340   9.4824050  37.6170090  62.7081550  14.8387760  35.7051830
  62.7226090  13.9068720  35.4870740  62.0006650  14.9247520  36.3441600
  67.8418620   9.0227580  21.9750440  67.7582340   9.4541800  21.1246880
  68.5612810   9.4825930  22.4077260  68.9192760  11.4795100  35.0520410
  68.1940950  12.0723880  34.8549800  69.4468220  11.4718640  34.2533780
  68.8705870  15.8769840  24.7032570  68.2282030  15.2225460  24.9776290
  68.4836530  16.2824930  23.9273240  64.4492350  13.2055270  28.5504260
  64.8016170  12.6083400  27.8905630  63.5654680  12.8799500  28.7212510
  60.5355630  13.9652960  25.9574670  61.2226760  14.5122170  26.3382260
  59.7488050  14.5093690  25.9924280  52.6748030   9.5825780  21.4491750
  53.5442880   9.8650580  21.7327670  52.1838350  10.3961650  21.3340560
  59.8382840  10.9698990  25.5700030  60.2945620  11.7804240  25.7960220
  59.4871050  10.6522130  26.4018520  62.1415450  16.4805330  32.7992330
  62.7857670  16.6864710  33.4765750  62.5044890  15.7193730  32.3463180
  63.4147530  14.4837680  31.5169780  64.0569760  13.7830840  31.6301950
  63.9396880  15.2636120  31.3366670  67.2603250  14.7686300  21.2408920
  67.0340830  14.0516740  21.8333560  66.8699450  14.5198740  20.4030670
  65.1885150  15.2832580  34.7205840  65.5241390  15.8699270  35.3983760
  64.2685490  15.1525290  34.9503630  53.0419280  18.7953160  22.0153380
  53.4016920  19.3942500  21.3610650  52.9011620  19.3413050  22.7888410
  52.7388550   3.0727760  35.5029250  52.0247070   3.2724680  36.1081860
  53.1583590   2.2967330  35.8744050  66.8419500  12.6858240  22.9023080
  66.5541200  13.1470930  23.6900960  67.6371670  12.2256010  23.1707300
  53.0261140  17.0608020  36.4895780  53.1352260  16.1202760  36.3491170
  52.3741700  17.3262770  35.8409510  61.0173730  15.3323910  37.8893900
  60.6970600  14.6133150  38.4339590  60.3432090  16.0078980  37.9629960
  59.0587900  16.1784360  22.8327050  59.0498000  16.9114050  22.2171560
  58.1386260  15.9315940  22.9254010  54.6594540  11.3999250  23.5773810
  54.0522490  12.1398150  23.5869110  55.1343890  11.4898610  22.7512010
  64.2327330   5.5650070  33.2530700  64.6008150   4.7445280  33.5810270
  63.3725530   5.6251960  33.6686350  67.5989360   4.5207010  24.0618260
  66.9702520   4.6252680  23.3476490  67.1041280   4.7403790  24.8512140
  62.0447500  16.2412600  21.4952240  62.1459480  16.0376590  20.5654220
  61.1449240  15.9870880  21.7000020  59.5673390   6.7992960  25.4776140
  58.8589540   7.2679300  25.9189750  59.8517870   6.1414970  26.1121330
  61.1929320   8.2189660  33.4768670  61.6914570   8.6935480  34.1420520
  61.3352270   7.2953180  33.6838700  63.5988820   3.5243620  26.9171930
  63.4756600   3.5429750  25.9681440  64.5473380   3.5722560  27.0370330
  60.6865610  18.7598920  26.1899910  60.9407110  18.7220310  25.2679280
  59.7378090  18.6332250  26.1828160  57.7708410   5.1078040  22.8526850
  58.6198940   5.5448190  22.7867040  57.4039680   5.4198300  23.6798910
  68.3996180   4.4357620  34.3197060  67.8969780   5.1763020  34.6590870
  69.2152840   4.8241620  34.0033850  66.6918190   9.6790800  27.7658420
  65.7508330   9.6941030  27.9406110  67.0062260   8.8926760  28.2118720
  56.6699830  11.3610400  21.3262380  57.4363100  11.2491760  21.8887810
  56.7474520  10.6648370  20.6739150  55.3646590   8.7935470  22.0095270
  55.4450180   7.8462980  22.1212670  56.2566340   9.1242350  22.1155930
  68.6943770  16.8499650  29.4412680  68.8191190  17.6730820  29.9136490
  69.5609330  16.6390380  29.0936830  56.1661300  18.9430860  29.1129810
  56.9023780  18.3946320  29.3838380  56.5502220  19.8086870  28.9735800
  53.0506780  15.0104430  24.9871320  52.1246560  15.2525570  24.9776730
  53.5163210  15.8378690  24.8656070  55.1719580  18.1276930  38.3015390
  55.9732310  18.4488980  38.7150790  54.6571400  17.7672510  39.0235300
  59.2763610  18.1161170  20.9355380  60.0692220  18.4050000  20.4837170
  58.7567960  17.6853340  20.2567860  64.0084210  14.2356800  38.2490800
  63.4022370  14.2588400  37.5086550  63.7038320  13.5039840  38.7858050
  65.4384580  17.9637090  36.8600210  66.3906330  17.8795110  36.8100450
  65.2912800  18.6278800  37.5334000  68.3293780  17.3431300  22.3592120
  68.0435290  16.9296440  21.5446300  68.1313330  18.2719010  22.2392640
  52.8917390  10.6150390  37.2451440  53.3956410  10.0357670  37.8167670
  52.1524810  10.8990620  37.7827810  59.7941010  13.3364580  20.7997730
  59.6891650  12.7216930  21.5259110  59.6265230  12.8130470  20.0160740
  59.9455330  12.0221380  36.7786960  59.1801000  12.5906380  36.6941630
  60.1271290  11.7297590  35.8855190  63.0343740  12.3984610  21.4039720
  62.4853840  12.8453910  22.0482460  63.6563000  11.8933860  21.9277390
  67.0878680  13.7526710  37.3361980  67.8288150  14.0902470  36.8329440
  66.3251360  13.9218770  36.7831750  54.9240470   8.7579980  38.1401510
  54.9645810   8.4593850  39.0486740  55.7785970   9.1587590  37.9809030
  58.7018860  11.3575530  23.3005020  59.1235280  11.1915400  24.1436410
  58.8269700  10.5475760  22.8060160  56.8646280   7.3372080  36.1076000
  56.3342740   6.8463030  35.4799340  57.5334350   7.7656280  35.5733930
  61.2146500  10.3813140  20.5482120  61.7352160   9.6662160  20.1823270
  61.8614900  11.0199010  20.8482630  65.7624340  11.8041540  35.8717190
  66.1765360  11.9586620  36.7207610  64.8275340  11.9296760  36.0342970
  66.2346510   9.1437700  37.8756340  66.8167280   8.3890020  37.7876820
  66.4108280   9.6745140  37.0987820  57.3518580   4.3034450  36.1873290
  57.2575450   3.6855200  35.4624160  56.7715970   5.0300740  35.9603200
  60.1180020   2.8607690  33.2200680  59.6697320   2.8831950  32.3746230
  59.4845220   2.4626710  33.8170980  60.5239570  11.7562020  33.8413120
  60.9427680  12.5994750  33.6689360  59.6048200  11.8934060  33.6119900
  62.8603470   9.4878200  35.2250960  62.9799680   8.8919340  35.9645800
  63.7197470   9.5247890  34.8052260  65.1991370  10.0415390  33.8013470
  64.6726590  10.5658010  33.1978610  65.5422710  10.6742780  34.4323200
  57.5977760   7.4308760  20.2463180  57.3966820   6.5676120  20.6076520
  57.4269810   7.3442120  19.3084780  58.3746990  18.0615030  34.9570850
  57.8368080  18.7861090  34.6379550  58.6280950  17.5845370  34.1668190
  59.6272240   6.0299550  36.4826780  60.2171930   5.7215400  37.1704600
  58.8092480   5.5579300  36.6386680  64.4465670   5.6465360  36.7159800
  63.7581190   4.9846900  36.6509790  65.1671690   5.2003630  37.1608260
  56.3960560   4.5309380  20.2341060  56.6986460   4.5376810  19.3260210
  57.1355150   4.1807240  20.7308720  61.2309200  19.2966240  35.2157500
  61.1567900  20.2001380  35.5229870  60.3288040  18.9778140  35.1879570
  59.6145490   3.4744000  21.2197260  59.2667490   2.7967990  20.6399710
  59.8158260   3.0133510  22.0340650  61.7794530  18.4624750  22.8383860
  62.6745320  18.8009720  22.8602620  61.8112160  17.7404160  22.2108140
  55.4190690  13.8351800  21.0670860  55.8565560  14.3781470  21.7228440
  55.9038420  13.0098750  21.0767200  52.6336490  16.6240830  28.5191120
  52.9639500  15.7561890  28.2869760  53.0627490  16.8299350  29.3496080
  57.2298410  14.9549840  26.1793090  56.9293950  14.8314810  27.0797000
  57.1235900  14.0958430  25.7708820  53.1226700  17.4911420  31.2572750
  52.6857690  17.6712220  32.0896900  53.6904380  18.2486040  31.1154470
  68.7588880  16.9928420  35.5450060  68.1590870  17.0520980  34.8013980
  68.8882780  16.0533400  35.6746910  69.9990330  14.7346240  20.8819770
  69.1683290  14.8022890  21.3527000  70.1762160  15.6250360  20.5786630
  69.4546790  11.4793720  23.3853970  70.2165700  12.0490370  23.4913660
  69.4701160  10.9120920  24.1562280  52.9551130  10.0031650  27.6161630
  52.2999970   9.7343290  26.9721330  53.7929080   9.8936130  27.1663610
  70.4606760  12.3343820  28.2295900  70.8315590  11.5511140  27.8231870
  71.1008690  13.0232920  28.0513200  67.4440520  13.7180400  33.6426220
  66.6300360  14.1477560  33.9052010  67.8514720  14.3298810  33.0295270
  69.5065960  11.7728090  20.5426490  69.7814800  12.6806970  20.4145710
  69.3176700  11.7090620  21.4788480  65.9041570   4.7972940  21.8380120
  66.3226450   4.6103920  20.9976780  65.5977630   3.9451990  22.1483050
  69.4031300   9.7097080  25.5355920  69.0274900   8.9425010  25.1037210
  68.6734420  10.0919780  26.0230850  53.9927060  10.3884220  32.1564970
  54.3600100  10.3011620  33.0360990  53.4237880   9.6250770  32.0571830
  68.7930920   8.8568600  35.1695440  68.5617010   8.6281350  34.2693390
  69.0535470   9.7768150  35.1240330  53.5443060   7.2993310  36.0623390
  52.6499110   7.2660070  36.4017100  54.0840610   7.4980100  36.8274640
  67.2318990   4.0825030  37.9475140  68.1089170   4.0908430  38.3309140
  67.2439830   3.3455870  37.3367490  52.1689210   7.2130580  23.5586960
  51.2653290   7.4760780  23.3838620  52.6529830   7.4841750  22.7786920
  68.6782260   7.9354570  28.8363160  69.2019740   7.4417220  28.2053330
  69.2641680   8.0704930  29.5810730  68.8571980   8.0194440  32.3582710
  67.9074690   7.9857980  32.4727700  69.0384990   8.9294550  32.1232480
  54.7116420   6.2696120  21.4681340  55.4208120   5.8479340  20.9828620
  53.9956360   6.3371350  20.8364690  54.3590580   2.3235450  20.5083990
  55.0818710   2.8644390  20.8265210  54.6315100   2.0498870  19.6325530
  68.1682230   7.1927920  24.7755570  68.6641350   6.9598790  25.5604450
  67.9698300   6.3539760  24.3593210  69.5969390   5.8288870  27.3093250
  69.4868670   5.6744910  28.2475520  70.3576980   5.3009810  27.0668660
  67.9435110   1.7683000  33.7676250  68.5807330   2.3817140  34.1335440
  68.0910000   1.8043660  32.8225480  70.4859660   3.6596790  20.5499390
  71.4108970   3.5277970  20.3417680  70.4635450   3.7389610  21.5035840
  70.5598150   4.4307450  23.1756100  69.7649650   4.3652570  23.7049010
  70.7641430   5.3658090  23.1641450  67.5016570  18.4699000  27.1694490
  68.0975640  18.1483570  26.4928910  67.7594720  17.9970820  27.9607760
  55.4079140  14.9016910  37.3185120  55.3648770  14.5309820  38.1999580
  55.5390150  15.8394480  37.4586940  59.1085170  16.4576500  32.9194840
  58.8676530  16.7251060  32.0325360  60.0487810  16.6282230  32.9745700
  61.3139590   2.9209190  36.6751350  61.2528480   3.5131020  37.4246760
  62.2539970   2.8135150  36.5301610  63.9514150   2.5779250  36.3143640
  64.5654560   2.8958540  35.6524720  64.4963710   2.0927840  36.9339500
  70.3689330  18.4770880  33.7205480  69.8747610  18.8739750  33.0032610
  69.7602620  17.8520090  34.1142760  55.2467170  17.8479160  34.4382900
  54.6527490  17.7163860  35.1772940  55.2391010  17.0117300  33.9725000
  65.5994170   3.3482260  34.0254650  65.2707530   2.5334020  33.6456380
  66.5476470   3.3052070  33.9020340  68.0528780  19.1194300  30.9992220
  67.5931750  19.8710110  30.6250240  67.4241240  18.4000770  30.9407020
  54.8779400  15.2137540  33.3890940  54.1513460  14.5942830  33.3216890
  54.9388550  15.6078150  32.5189020  58.4824500  17.4282540  30.1740350
  58.9989520  16.8169900  29.6488610  59.1321880  17.9311320  30.6651360
  61.2220000  18.3191030  31.0009330  61.5097810  18.0645330  30.1242340
  61.7343220  17.7668390  31.5914900  66.9918080   2.7604330  29.6254930
  67.4326170   2.7049430  28.7776530  66.7225670   3.6762340  29.6965110
  53.1609400  18.5311930  26.5987700  52.9931440  17.8982610  27.2969590
  52.2943910  18.7371330  26.2481890  53.7837420   2.3628710  24.1019560
  54.5416780   2.4757590  23.5283590  53.3214590   3.1997910  24.0562990
  60.3251230   4.4767980  27.0921870  59.5125740   4.1024870  26.7517750
  60.8292870   3.7213060  27.3943060  54.7672100  17.2245160  24.0437840
  54.2419720  17.6053190  23.3399800  54.6916680  17.8495930  24.7647550
  56.1562570   2.8892760  22.6421530  56.6855330   2.1022560  22.5129480
  56.7890890   3.5683950  22.8757060  58.3500410   2.6267900  25.6966920
  57.7203150   1.9255210  25.8637050  57.8105550   3.3872030  25.4800080
  61.2892360  19.2407130  38.3677530  62.2159670  19.0051400  38.4113490
  61.2742790  20.0679130  37.8863560  69.5237420  18.7832700  25.3651780
  69.6989610  18.0970440  24.7212700  68.8258990  19.3079750  24.9728450
  57.3665070  19.1727540  22.9187090  58.0983890  18.8886820  22.3710980
  57.6258740  18.9340820  23.8086470  56.5279860  15.2892270  22.9233420
  55.8988740  15.7577370  23.4719250  56.6427690  14.4441490  23.3579610
  67.8569920  18.4676990  38.1918570  68.6495240  17.9726220  37.9844530
  68.1503070  19.1467130  38.7994180  63.9829580   9.3397930   9.0734620
  63.9023630   8.4252540   8.8026330  63.5694000   9.8365000   8.3674330
  62.1147620  11.1176950  10.9543890  61.3389720  10.6377390  11.2442460
  62.7660550  10.4382600  10.7800050  56.1313450  11.4296760  11.8319650
  55.2998330  11.1745470  12.2316160  56.7394430  11.5007530  12.5677570
  66.1355050  15.5237140   9.7343020  65.6736580  14.7524380  10.0630190
  66.9480600  15.5503210  10.2395470  56.1114710  15.4636850  12.0277670
  56.4142750  14.5734590  11.8487890  56.8558300  16.0207070  11.7999920
  54.5405400   6.3898650   5.6162040  53.6522100   6.7314620   5.5141920
  54.8246590   6.1898970   4.7242870  52.5038410   8.9904300  11.5001740
  53.0754520   8.2226500  11.5005380  52.5039950   9.2893060  10.5908350
  62.3618360  17.8095150   9.3547010  61.7429800  18.2652650   8.7841450
  63.2170140  17.9646610   8.9536710  61.5556610  13.7934140  10.9614050
  61.4864890  12.8524080  10.8003180  62.3176470  13.8835550  11.5336620
  53.7463280   4.3988660  13.2870670  53.5666120   3.5014410  13.5673430
  53.3443360   4.9460530  13.9617620  62.5861780   6.6004520  11.1882980
  62.9626600   5.7276400  11.0756650  62.4881290   6.9363220  10.2973420
  56.7166790   4.9730150   6.6500420  56.8233540   5.8733880   6.9569180
  55.8059150   4.9248120   6.3595070  66.3685900   4.0954960   8.1211320
  67.1895520   3.6051530   8.1636800  66.4019980   4.6852620   8.8743160
  54.3649950   6.8949160  11.8953010  55.0460060   7.1587530  12.5140410
  54.0498000   6.0550030  12.2291020  58.5574520   7.9416520  10.9825600
  59.0652740   8.4397490  11.6230620  59.0887760   7.1651720  10.8064960
  70.6585450   6.1121710  14.6854950  69.9537620   6.5003420  14.1670060
  70.9243370   6.8072000  15.2875880  56.8410620   2.5815080  15.2489020
  56.8429060   3.0987470  14.4434920  56.0114930   2.1045260  15.2258950
  63.2281710  12.6934390   6.7478920  62.6098980  13.1583840   6.1841640
  63.7404960  13.3861870   7.1648430  58.0913470  12.2210260  13.4262520
  57.7582850  12.8479180  14.0683590  58.2680150  12.7472140  12.6464190
  66.6047380   6.0355340  10.8938860  65.9002950   6.3240230  11.4741970
  66.9659540   6.8455450  10.5338420  56.5225950   4.2925040  13.2559470
  56.8642760   5.1367090  12.9613340  55.5841760   4.4408780  13.3724810
  57.3032570  14.1891060  15.2411700  57.9206570  14.8642140  14.9596150
  56.4425690  14.5979040  15.1499200  52.5964910  13.3790920   4.1218550
  52.2192890  13.8678020   3.3903450  52.8537980  14.0516200   4.7525080
  68.2210160  15.6530470  13.1566340  67.5373680  16.3229580  13.1483010
  68.7604450  15.8511120  12.3911200  69.6734300   5.4810130  11.2848070
  68.7259210   5.5149110  11.4163500  69.9984290   6.2949080  11.6697430
  65.7568900  17.4974600  11.8711520  65.7696060  17.0936890  11.0033780
  65.2044120  18.2721890  11.7672950  67.0514320  14.2190820   6.9601690
  66.9410650  13.2765150   7.0851110  67.0482570  14.5806460   7.8464450
  65.1554340  12.4004440  13.1994130  65.5723130  12.1864550  12.3647590
  65.8794160  12.6577230  13.7702750  62.5934600   9.8456140   6.3164180
  61.6663880   9.7793520   6.5452650  62.7459420  10.7836270   6.2019420
  62.5803680   6.1173140   3.3131340  61.6407350   6.2787100   3.3983800
  62.8986940   6.8358820   2.7667330  69.1016440  10.7991660  13.2910370
  68.2735070  10.8684750  12.8160500  69.6966920  11.3845970  12.8226200
  66.6231890  11.4076440   6.8199430  66.0044310  11.0695990   6.1725730
  66.6056340  10.7636200   7.5278620  66.0658450   7.5860980  14.2365240
  65.6529630   8.4114690  14.4905230  65.3334400   7.0006020  14.0441600
  58.1991240  10.3720880   9.0983910  57.7948240   9.6598130   8.6029810
  58.2854360  10.0274120   9.9871950  58.6672940  14.0588440  11.2623120
  58.3701230  13.4533910  10.5830900  59.6172760  14.0965750  11.1512480
  56.9119860   7.1464090  12.8782950  57.4634450   7.2559430  12.1036200
  57.4263370   7.5201690  13.5938180  66.7558550  17.6320310  14.9246220
  66.2789110  18.4392500  14.7318830  66.0720340  16.9798640  15.0772430
  57.7591370  13.7970130  17.9130920  56.8619900  14.0210100  18.1604320
  57.7844240  13.9205070  16.9642320  64.7996590  10.6463250   3.8272180
  65.2389870   9.8085680   3.6810000  65.5125010  11.2792650   3.9136320
  56.5862590  10.6683450  16.4888290  56.4470360  11.5406250  16.8575690
  55.7043950  10.3256260  16.3436230  62.9091970  15.5859320   7.7953420
  63.3487880  16.3283650   7.3808810  62.8478860  15.8285890   8.7192380
  58.3842940  16.6105150  18.6973440  58.3558370  17.0148100  17.8301870
  58.2207910  15.6815510  18.5345040  68.3813730   1.9006060   2.1413220
  68.0686390   1.9932890   3.0412290  69.1426200   2.4787090   2.0910650
  54.8995870   9.2665860   6.5990560  54.7793470   9.9927950   5.9871830
  54.5896760   8.4968770   6.1218470  70.3357760  17.3932250  19.9937610
  70.8117480  17.8715140  20.6726690  70.9564920  17.3249740  19.2683110
  52.5381240  12.4381000  12.4059200  52.6161660  12.5729770  11.4614920
  53.1522920  11.7296890  12.5987320  53.7828870  14.1381190   8.8165380
  53.3756950  14.2795780   7.9618980  54.6741880  13.8541350   8.6136590
  69.7391010  14.5845100  17.1537620  69.8654070  14.3456980  16.2354800
  69.7812390  13.7529640  17.6259700  63.6007750  18.2873100  15.7232430
  64.1152420  18.1981110  16.5254860  62.7576830  18.6332800  16.0160340
  65.5762150  18.5728440   5.1516430  65.4163290  18.2831380   6.0498260
  65.4108860  17.7968570   4.6161660  58.0550530  18.3526970   6.9288050
  57.8793010  17.4362510   6.7155850  57.2006270  18.7114260   7.1685850
  65.2788280  16.0816000   3.7114430  64.5853440  16.0793290   3.0516710
  66.0211140  15.6575320   3.2808600  64.8438210  17.7078710   7.7862920
  65.2995160  16.9268090   8.1001540  65.1830730  18.4185530   8.3304100
  69.5915020   6.6377560  18.1187360  68.9759290   7.1457230  17.5902820
  69.2711440   5.7375890  18.0613300  52.5940760  13.4795170  14.9453660
  52.7571800  13.0100530  14.1273030  53.0593210  12.9718730  15.6102500
  57.3659530   2.6100930   9.9814230  56.9227680   3.3910470   9.6498750
  57.9244520   2.9330820  10.6885170  61.6529340   5.4769450  15.5849550
  61.1908710   5.6852470  16.3969490  61.2507450   4.6628800  15.2820220
  66.6533850   6.6978400  16.7146210  65.8027440   6.3984150  17.0355280
  66.4935640   6.9420410  15.8030030  63.7483560   8.1980150  18.8145000
  64.0736970   7.3643900  18.4747230  64.5363890   8.7208670  18.9623330
  59.4035430   3.1548260  11.8403830  59.7007760   4.0611090  11.7595850
  59.9520990   2.6667040  11.2263400  57.1573750   7.7334500   7.7095480
  56.9314670   7.5171670   8.6142100  56.3766280   8.1662960   7.3641450
  64.3871510   7.7397870   6.3086130  63.7880400   8.4633670   6.1249750
  64.9351120   7.6774650   5.5262580  59.5972960   8.6320080  18.3755750
  59.5016560   7.6914810  18.2256150  60.4404940   8.8535150  17.9803820
  62.9936380   6.3761410   8.3389410  63.3865950   6.6933610   7.5258100
  63.3553230   5.4973290   8.4533930  54.7283500   5.0433750  16.5289530
  54.3346890   5.8908960  16.7362310  54.0401900   4.4060120  16.7198170
  61.3028550   5.1268720  19.5986270  60.6126870   4.9340920  20.2332360
  62.0460850   5.4103360  20.1310570  52.0300550   2.9662210  10.5619610
  51.7413600   3.5365070  11.2744590  52.7746310   2.4866660  10.9250840
  63.5791520   8.9667160  12.4340190  62.8472640   9.4753970  12.7830290
  63.1815860   8.1497140  12.1328970  60.0168910   5.6421360  10.8392680
  60.0204970   5.2011310   9.9897220  60.9120030   5.9638690  10.9464500
  55.8671290   5.5247850   9.7986890  55.5271340   6.0023080  10.5553940
  55.1048610   5.0712970   9.4387990  60.0789060   6.6433440   3.8299440
  60.2001880   6.6019920   4.7785260  59.6937570   7.5057590   3.6746170
  64.0417430   4.4200840  11.8463130  64.0590170   4.8709490  12.6904980
  63.7933010   3.5206480  12.0596570  59.0910560   8.9534580   3.2282740
  58.5227460   8.5052830   2.6018650  59.7999560   9.3127360   2.6947890
  54.1679740  12.8546600  17.1049470  53.7834530  12.2140270  17.7032430
  54.4791930  13.5582720  17.6744200  60.3176880   9.7023140  12.5858090
  60.6847010   9.2281710  13.3319430  60.1281940  10.5764710  12.9266430
  53.1817370   4.4466830   8.7151560  52.8964290   4.0822500   9.5530180
  53.1196230   3.7147290   8.1014700  58.1076250   8.7431780  14.9042300
  57.8033320   9.6223760  15.1292660  59.0622710   8.8031570  14.9399740
  56.6358040  12.9492770   5.5009150  55.8620300  12.4090390   5.3407870
  57.3652670  12.4299380   5.1626910  67.3946020  11.9458130  11.2935540
  68.1145140  12.4413420  10.9031650  67.1927840  11.2676020  10.6489410
  62.8555960   3.3396090   5.4364930  62.0420570   2.8409260   5.3610240
  62.6617910   4.1794340   5.0201280  62.7764820  12.0167190  17.1804540
  62.7102130  11.0962860  16.9262130  62.1469960  12.1142630  17.8949180
  65.5704350   7.7115740   3.7327090  66.4583970   8.0232970   3.5578430
  65.5409440   6.8387990   3.3407670  56.6795440  12.6173150   9.1387960
  57.1974110  11.8141410   9.0844850  56.2279460  12.5552290   9.9804790
  61.5664940  13.8839430   4.4115260  61.9080640  14.6281660   3.9158580
  60.7377650  14.1970550   4.7740090  54.1639980   9.5834520  16.0513660
  53.8054920  10.2488370  16.6387000  53.8694540   8.7518070  16.4226280
  57.3653100  10.0418760  18.9353210  57.0653240  10.1875940  18.0381030
  58.1364340   9.4824050  18.8426600  62.7081550  14.8387760  16.9308340
  62.7226090  13.9068720  16.7127250  62.0006650  14.9247520  17.5698110
  67.8418620   9.0227580   3.2006950  67.7582340   9.4541800   2.3503390
  68.5612810   9.4825930   3.6333770  68.9192760  11.4795100  16.2776920
  68.1940950  12.0723880  16.0806310  69.4468220  11.4718640  15.4790290
  68.8705870  15.8769840   5.9289080  68.2282030  15.2225460   6.2032800
  68.4836530  16.2824930   5.1529750  64.4492350  13.2055270   9.7760770
  64.8016170  12.6083400   9.1162140  63.5654680  12.8799500   9.9469020
  60.5355630  13.9652960   7.1831180  61.2226760  14.5122170   7.5638770
  59.7488050  14.5093690   7.2180790  52.6748030   9.5825780   2.6748260
  53.5442880   9.8650580   2.9584180  52.1838350  10.3961650   2.5597070
  59.8382840  10.9698990   6.7956540  60.2945620  11.7804240   7.0216730
  59.4871050  10.6522130   7.6275030  62.1415450  16.4805330  14.0248840
  62.7857670  16.6864710  14.7022260  62.5044890  15.7193730  13.5719690
  63.4147530  14.4837680  12.7426290  64.0569760  13.7830840  12.8558460
  63.9396880  15.2636120  12.5623180  67.2603250  14.7686300   2.4665430
  67.0340830  14.0516740   3.0590070  66.8699450  14.5198740   1.6287180
  65.1885150  15.2832580  15.9462350  65.5241390  15.8699270  16.6240270
  64.2685490  15.1525290  16.1760140  53.0419280  18.7953160   3.2409890
  53.4016920  19.3942500   2.5867160  52.9011620  19.3413050   4.0144920
  52.7388550   3.0727760  16.7285760  52.0247070   3.2724680  17.3338370
  53.1583590   2.2967330  17.1000560  66.8419500  12.6858240   4.1279590
  66.5541200  13.1470930   4.9157470  67.6371670  12.2256010   4.3963810
  53.0261140  17.0608020  17.7152290  53.1352260  16.1202760  17.5747680
  52.3741700  17.3262770  17.0666020  61.0173730  15.3323910  19.1150410
  60.6970600  14.6133150  19.6596100  60.3432090  16.0078980  19.1886470
  59.0587900  16.1784360   4.0583560  59.0498000  16.9114050   3.4428070
  58.1386260  15.9315940   4.1510520  54.6594540  11.3999250   4.8030320
  54.0522490  12.1398150   4.8125620  55.1343890  11.4898610   3.9768520
  64.2327330   5.5650070  14.4787210  64.6008150   4.7445280  14.8066780
  63.3725530   5.6251960  14.8942860  67.5989360   4.5207010   5.2874770
  66.9702520   4.6252680   4.5733000  67.1041280   4.7403790   6.0768650
  62.0447500  16.2412600   2.7208750  62.1459480  16.0376590   1.7910730
  61.1449240  15.9870880   2.9256530  59.5673390   6.7992960   6.7032650
  58.8589540   7.2679300   7.1446260  59.8517870   6.1414970   7.3377840
  61.1929320   8.2189660  14.7025180  61.6914570   8.6935480  15.3677030
  61.3352270   7.2953180  14.9095210  63.5988820   3.5243620   8.1428440
  63.4756600   3.5429750   7.1937950  64.5473380   3.5722560   8.2626840
  60.6865610  18.7598920   7.4156420  60.9407110  18.7220310   6.4935790
  59.7378090  18.6332250   7.4084670  57.7708410   5.1078040   4.0783360
  58.6198940   5.5448190   4.0123550  57.4039680   5.4198300   4.9055420
  68.3996180   4.4357620  15.5453570  67.8969780   5.1763020  15.8847380
  69.2152840   4.8241620  15.2290360  66.6918190   9.6790800   8.9914930
  65.7508330   9.6941030   9.1662620  67.0062260   8.8926760   9.4375230
  56.6699830  11.3610400   2.5518890  57.4363100  11.2491760   3.1144320
  56.7474520  10.6648370   1.8995660  55.3646590   8.7935470   3.2351780
  55.4450180   7.8462980   3.3469180  56.2566340   9.1242350   3.3412440
  68.6943770  16.8499650  10.6669190  68.8191190  17.6730820  11.1393000
  69.5609330  16.6390380  10.3193340  56.1661300  18.9430860  10.3386320
  56.9023780  18.3946320  10.6094890  56.5502220  19.8086870  10.1992310
  53.0506780  15.0104430   6.2127830  52.1246560  15.2525570   6.2033240
  53.5163210  15.8378690   6.0912580  55.1719580  18.1276930  19.5271900
  55.9732310  18.4488980  19.9407300  54.6571400  17.7672510  20.2491810
  64.0084210  14.2356800  19.4747310  63.4022370  14.2588400  18.7343060
  63.7038320  13.5039840  20.0114560  65.4384580  17.9637090  18.0856720
  66.3906330  17.8795110  18.0356960  65.2912800  18.6278800  18.7590510
  68.3293780  17.3431300   3.5848630  68.0435290  16.9296440   2.7702810
  68.1313330  18.2719010   3.4649150  52.8917390  10.6150390  18.4707950
  53.3956410  10.0357670  19.0424180  52.1524810  10.8990620  19.0084320
  59.9455330  12.0221380  18.0043470  59.1801000  12.5906380  17.9198140
  60.1271290  11.7297590  17.1111700  63.0343740  12.3984610   2.6296230
  62.4853840  12.8453910   3.2738970  63.6563000  11.8933860   3.1533900
  67.0878680  13.7526710  18.5618490  67.8288150  14.0902470  18.0585950
  66.3251360  13.9218770  18.0088260  54.9240470   8.7579980  19.3658020
  54.9645810   8.4593850  20.2743250  55.7785970   9.1587590  19.2065540
  58.7018860  11.3575530   4.5261530  59.1235280  11.1915400   5.3692920
  58.8269700  10.5475760   4.0316670  56.8646280   7.3372080  17.3332510
  56.3342740   6.8463030  16.7055850  57.5334350   7.7656280  16.7990440
  65.7624340  11.8041540  17.0973700  66.1765360  11.9586620  17.9464120
  64.8275340  11.9296760  17.2599480  66.2346510   9.1437700  19.1012850
  66.8167280   8.3890020  19.0133330  66.4108280   9.6745140  18.3244330
  57.3518580   4.3034450  17.4129800  57.2575450   3.6855200  16.6880670
  56.7715970   5.0300740  17.1859710  60.1180020   2.8607690  14.4457190
  59.6697320   2.8831950  13.6002740  59.4845220   2.4626710  15.0427490
  60.5239570  11.7562020  15.0669630  60.9427680  12.5994750  14.8945870
  59.6048200  11.8934060  14.8376410  62.8603470   9.4878200  16.4507470
  62.9799680   8.8919340  17.1902310  63.7197470   9.5247890  16.0308770
  65.1991370  10.0415390  15.0269980  64.6726590  10.5658010  14.4235120
  65.5422710  10.6742780  15.6579710  58.3746990  18.0615030  16.1827360
  57.8368080  18.7861090  15.8636060  58.6280950  17.5845370  15.3924700
  59.6272240   6.0299550  17.7083290  60.2171930   5.7215400  18.3961110
  58.8092480   5.5579300  17.8643190  64.4465670   5.6465360  17.9416310
  63.7581190   4.9846900  17.8766300  65.1671690   5.2003630  18.3864770
  61.2309200  19.2966240  16.4414010  61.1567900  20.2001380  16.7486380
  60.3288040  18.9778140  16.4136080  59.6145490   3.4744000   2.4453770
  59.2667490   2.7967990   1.8656220  59.8158260   3.0133510   3.2597160
  61.7794530  18.4624750   4.0640370  62.6745320  18.8009720   4.0859130
  61.8112160  17.7404160   3.4364650  55.4190690  13.8351800   2.2927370
  55.8565560  14.3781470   2.9484950  55.9038420  13.0098750   2.3023710
  52.6336490  16.6240830   9.7447630  52.9639500  15.7561890   9.5126270
  53.0627490  16.8299350  10.5752590  57.2298410  14.9549840   7.4049600
  56.9293950  14.8314810   8.3053510  57.1235900  14.0958430   6.9965330
  53.1226700  17.4911420  12.4829260  52.6857690  17.6712220  13.3153410
  53.6904380  18.2486040  12.3410980  68.7588880  16.9928420  16.7706570
  68.1590870  17.0520980  16.0270490  68.8882780  16.0533400  16.9003420
  69.9990330  14.7346240   2.1076280  69.1683290  14.8022890   2.5783510
  70.1762160  15.6250360   1.8043140  69.4546790  11.4793720   4.6110480
  70.2165700  12.0490370   4.7170170  69.4701160  10.9120920   5.3818790
  52.9551130  10.0031650   8.8418140  52.2999970   9.7343290   8.1977840
  53.7929080   9.8936130   8.3920120  70.4606760  12.3343820   9.4552410
  70.8315590  11.5511140   9.0488380  71.1008690  13.0232920   9.2769710
  67.4440520  13.7180400  14.8682730  66.6300360  14.1477560  15.1308520
  67.8514720  14.3298810  14.2551780  69.5065960  11.7728090   1.7683000
  69.7814800  12.6806970   1.6402220  69.3176700  11.7090620   2.7044990
  65.9041570   4.7972940   3.0636630  66.3226450   4.6103920   2.2233290
  65.5977630   3.9451990   3.3739560  69.4031300   9.7097080   6.7612430
  69.0274900   8.9425010   6.3293720  68.6734420  10.0919780   7.2487360
  53.9927060  10.3884220  13.3821480  54.3600100  10.3011620  14.2617500
  53.4237880   9.6250770  13.2828340  68.7930920   8.8568600  16.3951950
  68.5617010   8.6281350  15.4949900  69.0535470   9.7768150  16.3496840
  53.5443060   7.2993310  17.2879900  52.6499110   7.2660070  17.6273610
  54.0840610   7.4980100  18.0531150  67.2318990   4.0825030  19.1731650
  68.1089170   4.0908430  19.5565650  67.2439830   3.3455870  18.5624000
  52.1689210   7.2130580   4.7843470  51.2653290   7.4760780   4.6095130
  52.6529830   7.4841750   4.0043430  68.6782260   7.9354570  10.0619670
  69.2019740   7.4417220   9.4309840  69.2641680   8.0704930  10.8067240
  68.8571980   8.0194440  13.5839220  67.9074690   7.9857980  13.6984210
  69.0384990   8.9294550  13.3488990  54.7116420   6.2696120   2.6937850
  55.4208120   5.8479340   2.2085130  53.9956360   6.3371350   2.0621200
  68.1682230   7.1927920   6.0012080  68.6641350   6.9598790   6.7860960
  67.9698300   6.3539760   5.5849720  69.5969390   5.8288870   8.5349760
  69.4868670   5.6744910   9.4732030  70.3576980   5.3009810   8.2925170
  67.9435110   1.7683000  14.9932760  68.5807330   2.3817140  15.3591950
  68.0910000   1.8043660  14.0481990  70.4859660   3.6596790   1.7755900
  71.4108970   3.5277970   1.5674190  70.4635450   3.7389610   2.7292350
  70.5598150   4.4307450   4.4012610  69.7649650   4.3652570   4.9305520
  70.7641430   5.3658090   4.3897960  67.5016570  18.4699000   8.3951000
  68.0975640  18.1483570   7.7185420  67.7594720  17.9970820   9.1864270
  55.4079140  14.9016910  18.5441630  55.3648770  14.5309820  19.4256090
  55.5390150  15.8394480  18.6843450  59.1085170  16.4576500  14.1451350
  58.8676530  16.7251060  13.2581870  60.0487810  16.6282230  14.2002210
  61.3139590   2.9209190  17.9007860  61.2528480   3.5131020  18.6503270
  62.2539970   2.8135150  17.7558120  63.9514150   2.5779250  17.5400150
  64.5654560   2.8958540  16.8781230  64.4963710   2.0927840  18.1596010
  70.3689330  18.4770880  14.9461990  69.8747610  18.8739750  14.2289120
  69.7602620  17.8520090  15.3399270  55.2467170  17.8479160  15.6639410
  54.6527490  17.7163860  16.4029450  55.2391010  17.0117300  15.1981510
  65.5994170   3.3482260  15.2511160  65.2707530   2.5334020  14.8712890
  66.5476470   3.3052070  15.1276850  68.0528780  19.1194300  12.2248730
  67.5931750  19.8710110  11.8506750  67.4241240  18.4000770  12.1663530
  54.8779400  15.2137540  14.6147450  54.1513460  14.5942830  14.5473400
  54.9388550  15.6078150  13.7445530  58.4824500  17.4282540  11.3996860
  58.9989520  16.8169900  10.8745120  59.1321880  17.9311320  11.8907870
  61.2220000  18.3191030  12.2265840  61.5097810  18.0645330  11.3498850
  61.7343220  17.7668390  12.8171410  66.9918080   2.7604330  10.8511440
  67.4326170   2.7049430  10.0033040  66.7225670   3.6762340  10.9221620
  53.1609400  18.5311930   7.8244210  52.9931440  17.8982610   8.5226100
  52.2943910  18.7371330   7.4738400  53.7837420   2.3628710   5.3276070
  54.5416780   2.4757590   4.7540100  53.3214590   3.1997910   5.2819500
  60.3251230   4.4767980   8.3178380  59.5125740   4.1024870   7.9774260
  60.8292870   3.7213060   8.6199570  54.7672100  17.2245160   5.2694350
  54.2419720  17.6053190   4.5656310  54.6916680  17.8495930   5.9904060
  56.1562570   2.8892760   3.8678040  56.6855330   2.1022560   3.7385990
  56.7890890   3.5683950   4.1013570  58.3500410   2.6267900   6.9223430
  57.7203150   1.9255210   7.0893560  57.8105550   3.3872030   6.7056590
  61.2892360  19.2407130  19.5934040  62.2159670  19.0051400  19.6370000
  61.2742790  20.0679130  19.1120070  69.5237420  18.7832700   6.5908290
  69.6989610  18.0970440   5.9469210  68.8258990  19.3079750   6.1984960
  57.3665070  19.1727540   4.1443600  58.0983890  18.8886820   3.5967490
  57.6258740  18.9340820   5.0342980  56.5279860  15.2892270   4.1489930
  55.8988740  15.7577370   4.6975760  56.6427690  14.4441490   4.5836120
  67.8569920  18.4676990  19.4175080  68.6495240  17.9726220  19.2101040
  68.1503070  19.1467130  20.0250690  45.2086090  84.4371890  65.3965090
  45.1280140  83.5226500  65.1256800  44.7950510  84.9338960  64.6904800
  43.3404130  86.2150910  67.2774360  42.5646230  85.7351350  67.5672930
  43.9917060  85.5356560  67.1030520  37.3569960  86.5270720  68.1550120
  36.5254840  86.2719430  68.5546630  37.9650940  86.5981490  68.8908040
  47.3611560  90.6211100  66.0573490  46.8993090  89.8498340  66.3860660
  48.1737110  90.6477170  66.5625940  37.3371220  90.5610810  68.3508140
  37.6399260  89.6708550  68.1718360  38.0814810  91.1181030  68.1230390
  35.7661910  81.4872610  61.9392510  34.8778610  81.8288580  61.8372390
  36.0503100  81.2872930  61.0473340  33.7294920  84.0878260  67.8232210
  34.3011030  83.3200460  67.8235850  33.7296460  84.3867020  66.9138820
  43.5874870  92.9069110  65.6777480  42.9686310  93.3626610  65.1071920
  44.4426650  93.0620570  65.2767180  42.7813120  88.8908100  67.2844520
  42.7121400  87.9498040  67.1233650  43.5432980  88.9809510  67.8567090
  34.9719790  79.4962620  69.6101140  34.7922630  78.5988370  69.8903900
  34.5699870  80.0434490  70.2848090  43.8118290  81.6978480  67.5113450
  44.1883110  80.8250360  67.3987120  43.7137800  82.0337180  66.6203890
  37.9423300  80.0704110  62.9730890  38.0490050  80.9707840  63.2799650
  37.0315660  80.0222080  62.6825540  47.5942410  79.1928920  64.4441790
  48.4152030  78.7025490  64.4867270  47.6276490  79.7826580  65.1973630
  35.5906460  81.9923120  68.2183480  36.2716570  82.2561490  68.8370880
  35.2754510  81.1523990  68.5521490  39.7831030  83.0390480  67.3056070
  40.2909250  83.5371450  67.9461090  40.3144270  82.2625680  67.1295430
  51.8841960  81.2095670  71.0085420  51.1794130  81.5977380  70.4900530
  52.1499880  81.9045960  71.6106350  38.0667130  77.6789040  71.5719490
  38.0685570  78.1961430  70.7665390  37.2371440  77.2019220  71.5489420
  44.4538220  87.7908350  63.0709390  43.8355490  88.2557800  62.5072110
  44.9661470  88.4835830  63.4878900  39.3169980  87.3184220  69.7492990
  38.9839360  87.9453140  70.3914060  39.4936660  87.8446100  68.9694660
  47.8303890  81.1329300  67.2169330  47.1259460  81.4214190  67.7972440
  48.1916050  81.9429410  66.8568890  37.7482460  79.3899000  69.5789940
  38.0899270  80.2341050  69.2843810  36.8098270  79.5382740  69.6955280
  38.5289080  89.2865020  71.5642170  39.1463080  89.9616100  71.2826620
  37.6682200  89.6953000  71.4729670  33.8221420  88.4764880  60.4449020
  33.4449400  88.9651980  59.7133920  34.0794490  89.1490160  61.0755550
  49.4466670  90.7504430  69.4796810  48.7630190  91.4203540  69.4713480
  49.9860960  90.9485080  68.7141670  50.8990810  80.5784090  67.6078540
  49.9515720  80.6123070  67.7393970  51.2240800  81.3923040  67.9927900
  41.4310350  76.8781270  65.9034530  41.7385330  76.3228160  65.1870030
  40.5011050  77.0125730  65.7207520  46.9825410  92.5948560  68.1941990
  46.9952570  92.1910850  67.3264250  46.4300630  93.3695850  68.0903420
  48.2770830  89.3164780  63.2832160  48.1667160  88.3739110  63.4081580
  48.2739080  89.6780420  64.1694920  46.3810850  87.4978400  69.5224600
  46.7979640  87.2838510  68.6878060  47.1050670  87.7551190  70.0933220
  43.8191110  84.9430100  62.6394650  42.8920390  84.8767480  62.8683120
  43.9715930  85.8810230  62.5249890  43.8060190  81.2147100  59.6361810
  42.8663860  81.3761060  59.7214270  44.1243450  81.9332780  59.0897800
  50.3272950  85.8965620  69.6140840  49.4991580  85.9658710  69.1390970
  50.9223430  86.4819930  69.1456670  47.8488400  86.5050400  63.1429900
  47.2300820  86.1669950  62.4956200  47.8312850  85.8610160  63.8509090
  47.2914960  82.6834940  70.5595710  46.8786140  83.5088650  70.8135700
  46.5590910  82.0979980  70.3672070  39.4247750  85.4694840  65.4214380
  39.0204750  84.7572090  64.9260280  39.5110870  85.1248080  66.3102420
  39.8929450  89.1562400  67.5853590  39.5957740  88.5507870  66.9061370
  40.8429270  89.1939710  67.4742950  38.1376370  82.2438050  69.2013420
  38.6890960  82.3533390  68.4266670  38.6519880  82.6175650  69.9168650
  47.9815060  92.7294270  71.2476690  47.5045620  93.5366460  71.0549300
  47.2976850  92.0772600  71.4002900  38.9847880  88.8944090  74.2361390
  38.0876410  89.1184060  74.4834790  39.0100750  89.0179030  73.2872790
  46.0253100  85.7437210  60.1502650  46.4646380  84.9059640  60.0040470
  46.7381520  86.3766610  60.2366790  37.8119100  85.7657410  72.8118760
  37.6726870  86.6380210  73.1806160  36.9300460  85.4230220  72.6666700
  44.1348480  90.6833280  64.1183890  44.5744390  91.4257610  63.7039280
  44.0735370  90.9259850  65.0422850  39.6099450  91.7079110  75.0203910
  39.5814880  92.1122060  74.1532340  39.4464420  90.7789470  74.8575510
  49.6070240  76.9980020  58.4643690  49.2942900  77.0906850  59.3642760
  50.3682710  77.5761050  58.4141120  36.1252380  84.3639820  62.9221030
  36.0049980  85.0901910  62.3102300  35.8153270  83.5942730  62.4448940
  33.7637750  87.5354960  68.7289670  33.8418170  87.6703730  67.7845390
  34.3779430  86.8270850  68.9217790  35.0085380  89.2355150  65.1395850
  34.6013460  89.3769740  64.2849450  35.8998390  88.9515310  64.9367060
  50.9647520  89.6819060  73.4768090  51.0910580  89.4430940  72.5585270
  51.0068900  88.8503600  73.9490170  44.8264260  93.3847060  72.0462900
  45.3408930  93.2955070  72.8485330  43.9833340  93.7306760  72.3390810
  46.8018660  93.6702400  61.4746900  46.6419800  93.3805340  62.3728730
  46.6365370  92.8942530  60.9392130  46.5044790  91.1789960  60.0344900
  45.8109950  91.1767250  59.3747180  47.2467650  90.7549280  59.6039070
  46.0694720  92.8052670  64.1093390  46.5251670  92.0242050  64.4232010
  46.4087240  93.5159490  64.6534570  50.8171530  81.7351520  74.4417830
  50.2015800  82.2431190  73.9133290  50.4967950  80.8349850  74.3843770
  33.8197270  88.5769130  71.2684130  33.9828310  88.1074490  70.4503500
  34.2849720  88.0692690  71.9332970  38.5916040  77.7074890  66.3044700
  38.1484190  78.4884430  65.9729220  39.1501030  78.0304780  67.0115640
  42.8785850  80.5743410  71.9080020  42.4165220  80.7826430  72.7199960
  42.4763960  79.7602760  71.6050690  47.8790360  81.7952360  73.0376680
  47.0283950  81.4958110  73.3585750  47.7192150  82.0394370  72.1260500
  44.9740070  83.2954110  75.1375470  45.2993480  82.4617860  74.7977700
  45.7620400  83.8182630  75.2853800  41.7074860  77.3285590  61.1850530
  41.0829040  77.3245460  61.9103840  41.6204980  76.4616550  60.7886500
  40.6291940  78.2522220  68.1634300  40.9264270  79.1585050  68.0826320
  41.1777500  77.7641000  67.5493870  38.3830260  82.8308460  64.0325950
  38.1571180  82.6145630  64.9372570  37.6022790  83.2636920  63.6871920
  45.6128020  82.8371830  62.6316600  45.0136910  83.5607630  62.4480220
  46.1607630  82.7748610  61.8493050  40.8229470  83.7294040  74.6986220
  40.7273070  82.7888770  74.5486620  41.6661450  83.9509110  74.3034290
  44.2192890  81.4735370  64.6619880  44.6122460  81.7907570  63.8488570
  44.5809740  80.5947250  64.7764400  35.9540010  80.1407710  72.8520000
  35.5603400  80.9882920  73.0592780  35.2658410  79.5034080  73.0428640
  33.2557060  78.0636170  66.8850080  32.9670110  78.6339030  67.5975060
  34.0002820  77.5840620  67.2481310  33.4427290  82.0056290  58.0952800
  33.3601960  82.9487050  58.2367790  33.0910350  81.8631200  57.2165150
  44.8048030  84.0641120  68.7570660  44.0729150  84.5727930  69.1060760
  44.4072370  83.2471100  68.4559440  41.2425420  80.7395320  67.1623150
  41.2461480  80.2985270  66.3127690  42.1376540  81.0612650  67.2694970
  37.0927800  80.6221810  66.1217360  36.7527850  81.0997040  66.8784410
  36.3305120  80.1686930  65.7618460  41.3045570  81.7407400  60.1529910
  41.4258390  81.6993880  61.1015730  40.9194080  82.6031550  59.9976640
  45.2673940  79.5174800  68.1693600  45.2846680  79.9683450  69.0135450
  45.0189520  78.6180440  68.3827040  40.3167070  84.0508540  59.5513210
  39.7483970  83.6026790  58.9249120  41.0256070  84.4101320  59.0178360
  48.6944690  76.9306980  74.0079980  49.0190460  76.1996640  74.5337960
  48.7301200  76.6120620  73.1060970  35.3936250  87.9520560  73.4279940
  35.0091040  87.3114230  74.0262900  35.7048440  88.6556680  73.9974670
  41.5433390  84.7997100  68.9088560  41.9103520  84.3255670  69.6549900
  41.3538450  85.6738670  69.2496900  34.4073880  79.5440790  65.0382030
  34.1220800  79.1796460  65.8760650  34.3452740  78.8121250  64.4245170
  39.3332760  83.8405740  71.2272770  39.0289830  84.7197720  71.4523130
  40.2879220  83.9005530  71.2630210  37.8614550  88.0466730  61.8239620
  37.0876810  87.5064350  61.6638340  38.5909180  87.5273340  61.4857380
  48.6202530  87.0432090  67.6166010  49.3401650  87.5387380  67.2262120
  48.4184350  86.3649980  66.9719880  44.0812470  78.4370050  61.7595400
  43.2677080  77.9383220  61.6840710  43.8874420  79.2768300  61.3431750
  44.0021330  87.1141150  73.5035010  43.9358640  86.1936820  73.2492600
  43.3726470  87.2116590  74.2179650  46.7960860  82.8089700  60.0557560
  47.6840480  83.1206930  59.8808900  46.7665950  81.9361950  59.6638140
  37.9051950  87.7147110  65.4618430  38.4230620  86.9115370  65.4075320
  37.4535970  87.6526250  66.3035260  42.7921450  88.9813390  60.7345730
  43.1337150  89.7255620  60.2389050  41.9634160  89.2944510  61.0970560
  35.3896490  84.6808480  72.3744130  35.0311430  85.3462330  72.9617470
  35.0951050  83.8492030  72.7456750  38.5909610  85.1392720  75.2583680
  38.2909750  85.2849900  74.3611500  39.3620850  84.5798010  75.1657070
  43.9338060  89.9361720  73.2538810  43.9482600  89.0042680  73.0357720
  43.2263160  90.0221480  73.8928580  49.0675130  84.1201540  59.5237420
  48.9838850  84.5515760  58.6733860  49.7869320  84.5799890  59.9564240
  50.1449270  86.5769060  72.6007390  49.4197460  87.1697840  72.4036780
  50.6724730  86.5692600  71.8020760  50.0962380  90.9743800  62.2519550
  49.4538540  90.3199420  62.5263270  49.7093040  91.3798890  61.4760220
  45.6748860  88.3029230  66.0991240  46.0272680  87.7057360  65.4392610
  44.7911190  87.9773460  66.2699490  41.7612140  89.0626920  63.5061650
  42.4483270  89.6096130  63.8869240  40.9744560  89.6067650  63.5411260
  33.9004540  84.6799740  58.9978730  34.7699390  84.9624540  59.2814650
  33.4094860  85.4935610  58.8827540  41.0639350  86.0672950  63.1187010
  41.5202130  86.8778200  63.3447200  40.7127560  85.7496090  63.9505500
  43.3671960  91.5779290  70.3479310  44.0114180  91.7838670  71.0252730
  43.7301400  90.8167690  69.8950160  36.9651130  76.4110600  63.5909530
  36.8365760  76.4028500  64.5394450  36.1413150  76.7493690  63.2400540
  44.6404040  89.5811640  69.0656760  45.2826270  88.8804800  69.1788930
  45.1653390  90.3610080  68.8853650  48.4859760  89.8660260  58.7895900
  48.2597340  89.1490700  59.3820540  48.0955960  89.6172700  57.9517650
  46.4141660  90.3806540  72.2692820  46.7497900  90.9673230  72.9470740
  45.4942000  90.2499250  72.4990610  33.9645060  78.1701720  73.0516230
  33.2503580  78.3698640  73.6568840  34.3840100  77.3941290  73.4231030
  48.0676010  87.7832200  60.4510060  47.7797710  88.2444890  61.2387940
  48.8628180  87.3229970  60.7194280  34.2517650  92.1581980  74.0382760
  34.3608770  91.2176720  73.8978150  33.5998210  92.4236730  73.3896490
  42.2430240  90.4297870  75.4380880  41.9227110  89.7107110  75.9826570
  41.5688600  91.1052940  75.5116940  40.2844410  91.2758320  60.3814030
  40.2754510  92.0088010  59.7658540  39.3642770  91.0289900  60.4740990
  35.8851050  86.4973210  61.1260790  35.2779000  87.2372110  61.1356090
  36.3600400  86.5872570  60.2998990  45.4583840  80.6624030  70.8017680
  45.8264660  79.8419240  71.1297250  44.5982040  80.7225920  71.2173330
  48.8245870  79.6180970  61.6105240  48.1959030  79.7226640  60.8963470
  48.3297790  79.8377750  62.3999120  43.2704010  91.3386560  59.0439220
  43.3715990  91.1350550  58.1141200  42.3705750  91.0844840  59.2487000
  40.7929900  81.8966920  63.0263120  40.0846050  82.3653260  63.4676730
  41.0774380  81.2388930  63.6608310  42.4185830  83.3163620  71.0255650
  42.9171080  83.7909440  71.6907500  42.5608780  82.3927140  71.2325680
  44.8245330  78.6217580  64.4658910  44.7013110  78.6403710  63.5168420
  45.7729890  78.6696520  64.5857310  38.9964920  80.2052000  60.4013830
  39.8455450  80.6422150  60.3354020  38.6296190  80.5172260  61.2285890
  49.6252690  79.5331580  71.8684040  49.1226290  80.2736980  72.2077850
  50.4409350  79.9215580  71.5520830  47.9174700  84.7764760  65.3145400
  46.9764840  84.7914990  65.4893090  48.2318770  83.9900720  65.7605700
  37.8956340  86.4584360  58.8749360  38.6619610  86.3465720  59.4374790
  37.9731030  85.7622330  58.2226130  36.5903100  83.8909430  59.5582250
  36.6706690  82.9436940  59.6699650  37.4822850  84.2216310  59.6642910
  49.9200280  91.9473610  66.9899660  50.0447700  92.7704780  67.4623470
  50.7865840  91.7364340  66.6423810  34.2763290  90.1078390  62.5358300
  33.3503070  90.3499530  62.5263710  34.7419720  90.9352650  62.4143050
  40.5020120  93.2135130  58.4842360  41.2948730  93.5023960  58.0324150
  39.9824470  92.7827300  57.8054840  46.6641090  93.0611050  74.4087190
  47.6162840  92.9769070  74.3587430  46.5169310  93.7252760  75.0820980
  49.5550290  92.4405260  59.9079100  49.2691800  92.0270400  59.0933280
  49.3569840  93.3692970  59.7879620  34.1173900  85.7124350  74.7938420
  34.6212920  85.1331630  75.3654650  33.3781320  85.9964580  75.3314790
  41.0197520  88.4338540  58.3484710  40.9148160  87.8190890  59.0746090
  40.8521740  87.9104430  57.5647720  41.1711840  87.1195340  74.3273940
  40.4057510  87.6880340  74.2428610  41.3527800  86.8271550  73.4342170
  44.2600250  87.4958570  58.9526700  43.7110350  87.9427870  59.5969440
  44.8819510  86.9907820  59.4764370  48.3135190  88.8500670  74.8848960
  49.0544660  89.1876430  74.3816420  47.5507870  89.0192730  74.3318730
  39.9275370  86.4549490  60.8492000  40.3491790  86.2889360  61.6923390
  40.0526210  85.6449720  60.3547140  38.0902790  82.4346040  73.6562980
  37.5599250  81.9436990  73.0286320  38.7590860  82.8630240  73.1220910
  42.4403010  85.4787100  58.0969100  42.9608670  84.7636120  57.7310250
  43.0871410  86.1172970  58.3969610  46.9880850  86.9015500  73.4204170
  47.4021870  87.0560580  74.2694590  46.0531850  87.0270720  73.5829950
  47.4603020  84.2411660  75.4243320  48.0423790  83.4863980  75.3363800
  47.6364790  84.7719100  74.6474800  38.5775090  79.4008410  73.7360270
  38.4831960  78.7829160  73.0111140  37.9972480  80.1274700  73.5090180
  41.3436530  77.9581650  70.7687660  40.8953830  77.9805910  69.9233210
  40.7101730  77.5600670  71.3657960  41.7496080  86.8535980  71.3900100
  42.1684190  87.6968710  71.2176340  40.8304710  86.9908020  71.1606880
  44.0859980  84.5852160  72.7737940  44.2056190  83.9893300  73.5132780
  44.9453980  84.6221850  72.3539240  46.4247880  85.1389350  71.3500450
  45.8983100  85.6631970  70.7465590  46.7679220  85.7716740  71.9810180
  38.8234270  82.5282720  57.7950160  38.6223330  81.6650080  58.1563500
  38.6526320  82.4416080  56.8571760  40.8528750  81.1273510  74.0313760
  41.4428440  80.8189360  74.7191580  40.0348990  80.6553260  74.1873660
  45.6722180  80.7439320  74.2646780  44.9837700  80.0820860  74.1996770
  46.3928200  80.2977590  74.7095240  46.3022580  77.3390950  60.3237040
  46.5824870  76.4958850  60.6796460  45.5288310  77.5714060  60.8375790
  37.6217070  79.6283340  57.7828040  37.9242970  79.6350770  56.8747190
  38.3611660  79.2781200  58.2795700  40.8402000  78.5717960  58.7684240
  40.4924000  77.8941950  58.1886690  41.0414770  78.1107470  59.5827630
  36.6447200  88.9325760  58.6157840  37.0822070  89.4755430  59.2715420
  37.1294930  88.1072710  58.6254180  33.8593000  91.7214790  66.0678100
  34.1896010  90.8535850  65.8356740  34.2884000  91.9273310  66.8983060
  38.4554920  90.0523800  63.7280070  38.1550460  89.9288770  64.6283980
  38.3492410  89.1932390  63.3195800  34.3483210  92.5885380  68.8059730
  33.9114200  92.7686180  69.6383880  34.9160890  93.3460000  68.6641450
  49.9845390  92.0902380  73.0937040  49.3847380  92.1494940  72.3500960
  50.1139290  91.1507360  73.2233890  51.2246840  89.8320200  58.4306750
  50.3939800  89.8996850  58.9013980  51.4018670  90.7224320  58.1273610
  50.6803300  86.5767680  60.9340950  51.4422210  87.1464330  61.0400640
  50.6957670  86.0094880  61.7049260  34.1807640  85.1005610  65.1648610
  33.5256480  84.8317250  64.5208310  35.0185590  84.9910090  64.7150590
  51.6863270  87.4317780  65.7782880  52.0572100  86.6485100  65.3718850
  52.3265200  88.1206880  65.6000180  48.6697030  88.8154360  71.1913200
  47.8556870  89.2451520  71.4538990  49.0771230  89.4272770  70.5782250
  50.7322470  86.8702050  58.0913470  51.0071310  87.7780930  57.9632690
  50.5433210  86.8064580  59.0275460  47.1298080  79.8946900  59.3867100
  47.5482960  79.7077880  58.5463760  46.8234140  79.0425950  59.6970030
  50.6287810  84.8071040  63.0842900  50.2531410  84.0398970  62.6524190
  49.8990930  85.1893740  63.5717830  35.2183570  85.4858180  69.7051950
  35.5856610  85.3985580  70.5847970  34.6494390  84.7224730  69.6058810
  50.0187430  83.9542560  72.7182420  49.7873520  83.7255310  71.8180370
  50.2791980  84.8742110  72.6727310  34.7699570  82.3967270  73.6110370
  33.8755620  82.3634030  73.9504080  35.3097120  82.5954060  74.3761620
  48.4575500  79.1798990  75.4962120  49.3345680  79.1882390  75.8796120
  48.4696340  78.4429830  74.8854470  33.3945720  82.3104540  61.1073940
  32.4909800  82.5734740  60.9325600  33.8786340  82.5815710  60.3273900
  49.9038770  83.0328530  66.3850140  50.4276250  82.5391180  65.7540310
  50.4898190  83.1678890  67.1297710  50.0828490  83.1168400  69.9069690
  49.1331200  83.0831940  70.0214680  50.2641500  84.0268510  69.6719460
  35.9372930  81.3670080  59.0168320  36.6464630  80.9453300  58.5315600
  35.2212870  81.4345310  58.3851670  35.5847090  77.4209410  58.0570970
  36.3075220  77.9618350  58.3752190  35.8571610  77.1472830  57.1812510
  49.3938740  82.2901880  62.3242550  49.8897860  82.0572750  63.1091430
  49.1954810  81.4513720  61.9080190  35.2739280  76.6715600  67.9593590
  35.9215470  76.1212980  67.5188750  35.6941120  76.9258750  68.7809400
  50.8225900  80.9262830  64.8580230  50.7125180  80.7718870  65.7962500
  51.5833490  80.3983770  64.6155640  49.1691620  76.8656960  71.3163230
  49.8063840  77.4791100  71.6822420  49.3166510  76.9017620  70.3712460
  51.7116170  78.7570750  58.0986370  52.6365480  78.6251930  57.8904660
  51.6891960  78.8363570  59.0522820  51.7854660  79.5281410  60.7243080
  50.9906160  79.4626530  61.2535990  51.9897940  80.4632050  60.7128430
  48.7273080  93.5672960  64.7181470  49.3232150  93.2457530  64.0415890
  48.9851230  93.0944780  65.5094740  35.0271280  76.8271270  70.7018910
  34.6786100  77.2835090  71.4677090  34.6958980  75.9328400  70.7841340
  36.6335650  89.9990870  74.8672100  36.5905280  89.6283780  75.7486560
  36.7646660  90.9368440  75.0073920  40.3341680  91.5550460  70.4681820
  40.0933040  91.8225020  69.5812340  41.2744320  91.7256190  70.5232680
  42.5396100  78.0183150  74.2238330  42.4784990  78.6104980  74.9733740
  43.4796480  77.9109110  74.0788590  45.1770660  77.6753210  73.8630620
  45.7911070  77.9932500  73.2011700  45.7220220  77.1901800  74.4826480
  35.6991920  76.3547470  73.9769680  36.2474910  76.1735520  73.2135790
  35.7647230  75.5641580  74.5125990  36.4723680  92.9453120  71.9869880
  35.8784000  92.8137820  72.7259920  36.4647520  92.1091260  71.5211980
  45.9178700  76.2385350  70.1899910  45.0438540  76.5720460  69.9872840
  45.8089450  75.7658530  71.0151780  46.8250680  78.4456220  71.5741630
  46.4964040  77.6307980  71.1943360  47.7732980  78.4026030  71.4507320
  36.1035910  90.3111500  70.9377920  35.3769970  89.6916790  70.8703870
  36.1645060  90.7052110  70.0676000  39.7081010  92.5256500  67.7227330
  40.2246030  91.9143860  67.1975590  40.3578390  93.0285280  68.2138340
  42.4476510  93.4164990  68.5496310  42.7354320  93.1619290  67.6729320
  42.9599730  92.8642350  69.1401880  43.6653520  77.1555190  69.1292820
  42.8825310  77.6300690  69.4089580  43.3716450  76.2510020  69.0206000
  48.2174590  77.8578290  67.1741910  48.6582680  77.8023390  66.3263510
  47.9482180  78.7736300  67.2452090  50.0813160  77.4893530  65.1850730
  50.0201560  76.5454750  65.0381750  50.8605190  77.5973620  65.7304190
  35.0093930  77.4602670  61.6506540  35.7673290  77.5731550  61.0770570
  34.5471100  78.2971870  61.6049970  41.5507740  79.5741940  64.6408850
  40.7382250  79.1998830  64.3004730  42.0549380  78.8187020  64.9430040
  46.0532720  76.2384390  65.8791920  46.6562090  76.8104600  66.3540440
  45.3125710  76.8023830  65.6565820  49.1967320  76.6405950  61.1532200
  49.3917950  77.5389400  61.4199630  48.4097190  76.4093030  61.6465150
  35.9928610  92.3219120  61.5924820  35.4676230  92.7027150  60.8886780
  35.9173190  92.9469890  62.3134530  37.3819080  77.9866720  60.1908510
  37.9111840  77.1996520  60.0616460  38.0147400  78.6657910  60.4244040
  39.5756920  77.7241860  63.2453900  38.9459660  77.0229170  63.4124030
  39.0362060  78.4845990  63.0287060  39.7012480  77.0025840  75.6806390
  39.4196750  77.5059440  74.9167210  40.0832180  76.2047590  75.3148520
  37.7536370  90.3866230  60.4720400  37.1245250  90.8551330  61.0206230
  37.8684200  89.5415450  60.9066590  45.2086090  84.4371890  46.6221600
  45.1280140  83.5226500  46.3513310  44.7950510  84.9338960  45.9161310
  43.3404130  86.2150910  48.5030870  42.5646230  85.7351350  48.7929440
  43.9917060  85.5356560  48.3287030  37.3569960  86.5270720  49.3806630
  36.5254840  86.2719430  49.7803140  37.9650940  86.5981490  50.1164550
  47.3611560  90.6211100  47.2830000  46.8993090  89.8498340  47.6117170
  48.1737110  90.6477170  47.7882450  37.3371220  90.5610810  49.5764650
  37.6399260  89.6708550  49.3974870  38.0814810  91.1181030  49.3486900
  35.7661910  81.4872610  43.1649020  34.8778610  81.8288580  43.0628900
  36.0503100  81.2872930  42.2729850  33.7294920  84.0878260  49.0488720
  34.3011030  83.3200460  49.0492360  33.7296460  84.3867020  48.1395330
  43.5874870  92.9069110  46.9033990  42.9686310  93.3626610  46.3328430
  44.4426650  93.0620570  46.5023690  42.7813120  88.8908100  48.5101030
  42.7121400  87.9498040  48.3490160  43.5432980  88.9809510  49.0823600
  34.9719790  79.4962620  50.8357650  34.7922630  78.5988370  51.1160410
  34.5699870  80.0434490  51.5104600  43.8118290  81.6978480  48.7369960
  44.1883110  80.8250360  48.6243630  43.7137800  82.0337180  47.8460400
  37.9423300  80.0704110  44.1987400  38.0490050  80.9707840  44.5056160
  37.0315660  80.0222080  43.9082050  47.5942410  79.1928920  45.6698300
  48.4152030  78.7025490  45.7123780  47.6276490  79.7826580  46.4230140
  35.5906460  81.9923120  49.4439990  36.2716570  82.2561490  50.0627390
  35.2754510  81.1523990  49.7778000  39.7831030  83.0390480  48.5312580
  40.2909250  83.5371450  49.1717600  40.3144270  82.2625680  48.3551940
  51.8841960  81.2095670  52.2341930  51.1794130  81.5977380  51.7157040
  52.1499880  81.9045960  52.8362860  38.0667130  77.6789040  52.7976000
  38.0685570  78.1961430  51.9921900  37.2371440  77.2019220  52.7745930
  44.4538220  87.7908350  44.2965900  43.8355490  88.2557800  43.7328620
  44.9661470  88.4835830  44.7135410  39.3169980  87.3184220  50.9749500
  38.9839360  87.9453140  51.6170570  39.4936660  87.8446100  50.1951170
  47.8303890  81.1329300  48.4425840  47.1259460  81.4214190  49.0228950
  48.1916050  81.9429410  48.0825400  37.7482460  79.3899000  50.8046450
  38.0899270  80.2341050  50.5100320  36.8098270  79.5382740  50.9211790
  38.5289080  89.2865020  52.7898680  39.1463080  89.9616100  52.5083130
  37.6682200  89.6953000  52.6986180  33.8221420  88.4764880  41.6705530
  33.4449400  88.9651980  40.9390430  34.0794490  89.1490160  42.3012060
  49.4466670  90.7504430  50.7053320  48.7630190  91.4203540  50.6969990
  49.9860960  90.9485080  49.9398180  50.8990810  80.5784090  48.8335050
  49.9515720  80.6123070  48.9650480  51.2240800  81.3923040  49.2184410
  41.4310350  76.8781270  47.1291040  41.7385330  76.3228160  46.4126540
  40.5011050  77.0125730  46.9464030  46.9825410  92.5948560  49.4198500
  46.9952570  92.1910850  48.5520760  46.4300630  93.3695850  49.3159930
  48.2770830  89.3164780  44.5088670  48.1667160  88.3739110  44.6338090
  48.2739080  89.6780420  45.3951430  46.3810850  87.4978400  50.7481110
  46.7979640  87.2838510  49.9134570  47.1050670  87.7551190  51.3189730
  43.8191110  84.9430100  43.8651160  42.8920390  84.8767480  44.0939630
  43.9715930  85.8810230  43.7506400  43.8060190  81.2147100  40.8618320
  42.8663860  81.3761060  40.9470780  44.1243450  81.9332780  40.3154310
  50.3272950  85.8965620  50.8397350  49.4991580  85.9658710  50.3647480
  50.9223430  86.4819930  50.3713180  47.8488400  86.5050400  44.3686410
  47.2300820  86.1669950  43.7212710  47.8312850  85.8610160  45.0765600
  47.2914960  82.6834940  51.7852220  46.8786140  83.5088650  52.0392210
  46.5590910  82.0979980  51.5928580  39.4247750  85.4694840  46.6470890
  39.0204750  84.7572090  46.1516790  39.5110870  85.1248080  47.5358930
  39.8929450  89.1562400  48.8110100  39.5957740  88.5507870  48.1317880
  40.8429270  89.1939710  48.6999460  38.1376370  82.2438050  50.4269930
  38.6890960  82.3533390  49.6523180  38.6519880  82.6175650  51.1425160
  47.9815060  92.7294270  52.4733200  47.5045620  93.5366460  52.2805810
  47.2976850  92.0772600  52.6259410  38.9847880  88.8944090  55.4617900
  38.0876410  89.1184060  55.7091300  39.0100750  89.0179030  54.5129300
  46.0253100  85.7437210  41.3759160  46.4646380  84.9059640  41.2296980
  46.7381520  86.3766610  41.4623300  37.8119100  85.7657410  54.0375270
  37.6726870  86.6380210  54.4062670  36.9300460  85.4230220  53.8923210
  44.1348480  90.6833280  45.3440400  44.5744390  91.4257610  44.9295790
  44.0735370  90.9259850  46.2679360  39.6099450  91.7079110  56.2460420
  39.5814880  92.1122060  55.3788850  39.4464420  90.7789470  56.0832020
  49.6070240  76.9980020  39.6900200  49.2942900  77.0906850  40.5899270
  50.3682710  77.5761050  39.6397630  36.1252380  84.3639820  44.1477540
  36.0049980  85.0901910  43.5358810  35.8153270  83.5942730  43.6705450
  51.5614270  92.4906210  57.5424590  52.0373990  92.9689100  58.2213670
  52.1821430  92.4223700  56.8170090  33.7637750  87.5354960  49.9546180
  33.8418170  87.6703730  49.0101900  34.3779430  86.8270850  50.1474300
  35.0085380  89.2355150  46.3652360  34.6013460  89.3769740  45.5105960
  35.8998390  88.9515310  46.1623570  50.9647520  89.6819060  54.7024600
  51.0910580  89.4430940  53.7841780  51.0068900  88.8503600  55.1746680
  44.8264260  93.3847060  53.2719410  45.3408930  93.2955070  54.0741840
  43.9833340  93.7306760  53.5647320  46.8018660  93.6702400  42.7003410
  46.6419800  93.3805340  43.5985240  46.6365370  92.8942530  42.1648640
  46.5044790  91.1789960  41.2601410  45.8109950  91.1767250  40.6003690
  47.2467650  90.7549280  40.8295580  46.0694720  92.8052670  45.3349900
  46.5251670  92.0242050  45.6488520  46.4087240  93.5159490  45.8791080
  50.8171530  81.7351520  55.6674340  50.2015800  82.2431190  55.1389800
  50.4967950  80.8349850  55.6100280  33.8197270  88.5769130  52.4940640
  33.9828310  88.1074490  51.6760010  34.2849720  88.0692690  53.1589480
  38.5916040  77.7074890  47.5301210  38.1484190  78.4884430  47.1985730
  39.1501030  78.0304780  48.2372150  42.8785850  80.5743410  53.1336530
  42.4165220  80.7826430  53.9456470  42.4763960  79.7602760  52.8307200
  47.8790360  81.7952360  54.2633190  47.0283950  81.4958110  54.5842260
  47.7192150  82.0394370  53.3517010  44.9740070  83.2954110  56.3631980
  45.2993480  82.4617860  56.0234210  45.7620400  83.8182630  56.5110310
  41.7074860  77.3285590  42.4107040  41.0829040  77.3245460  43.1360350
  41.6204980  76.4616550  42.0143010  40.6291940  78.2522220  49.3890810
  40.9264270  79.1585050  49.3082830  41.1777500  77.7641000  48.7750380
  38.3830260  82.8308460  45.2582460  38.1571180  82.6145630  46.1629080
  37.6022790  83.2636920  44.9128430  45.6128020  82.8371830  43.8573110
  45.0136910  83.5607630  43.6736730  46.1607630  82.7748610  43.0749560
  40.8229470  83.7294040  55.9242730  40.7273070  82.7888770  55.7743130
  41.6661450  83.9509110  55.5290800  44.2192890  81.4735370  45.8876390
  44.6122460  81.7907570  45.0745080  44.5809740  80.5947250  46.0020910
  35.9540010  80.1407710  54.0776510  35.5603400  80.9882920  54.2849290
  35.2658410  79.5034080  54.2685150  42.5285060  80.2242680  57.1473250
  41.8383380  80.0314880  57.7819340  43.2717360  80.5077320  57.6797550
  33.2557060  78.0636170  48.1106590  32.9670110  78.6339030  48.8231570
  34.0002820  77.5840620  48.4737820  33.4427290  82.0056290  39.3209310
  33.3601960  82.9487050  39.4624300  33.0910350  81.8631200  38.4421660
  44.8048030  84.0641120  49.9827170  44.0729150  84.5727930  50.3317270
  44.4072370  83.2471100  49.6815950  41.2425420  80.7395320  48.3879660
  41.2461480  80.2985270  47.5384200  42.1376540  81.0612650  48.4951480
  37.0927800  80.6221810  47.3473870  36.7527850  81.0997040  48.1040920
  36.3305120  80.1686930  46.9874970  41.3045570  81.7407400  41.3786420
  41.4258390  81.6993880  42.3272240  40.9194080  82.6031550  41.2233150
  45.2673940  79.5174800  49.3950110  45.2846680  79.9683450  50.2391960
  45.0189520  78.6180440  49.6083550  40.3167070  84.0508540  40.7769720
  39.7483970  83.6026790  40.1505630  41.0256070  84.4101320  40.2434870
  48.6944690  76.9306980  55.2336490  49.0190460  76.1996640  55.7594470
  48.7301200  76.6120620  54.3317480  35.3936250  87.9520560  54.6536450
  35.0091040  87.3114230  55.2519410  35.7048440  88.6556680  55.2231180
  41.5433390  84.7997100  50.1345070  41.9103520  84.3255670  50.8806410
  41.3538450  85.6738670  50.4753410  34.4073880  79.5440790  46.2638540
  34.1220800  79.1796460  47.1017160  34.3452740  78.8121250  45.6501680
  39.3332760  83.8405740  52.4529280  39.0289830  84.7197720  52.6779640
  40.2879220  83.9005530  52.4886720  37.8614550  88.0466730  43.0496130
  37.0876810  87.5064350  42.8894850  38.5909180  87.5273340  42.7113890
  48.6202530  87.0432090  48.8422520  49.3401650  87.5387380  48.4518630
  48.4184350  86.3649980  48.1976390  44.0812470  78.4370050  42.9851910
  43.2677080  77.9383220  42.9097220  43.8874420  79.2768300  42.5688260
  44.0021330  87.1141150  54.7291520  43.9358640  86.1936820  54.4749110
  43.3726470  87.2116590  55.4436160  46.7960860  82.8089700  41.2814070
  47.6840480  83.1206930  41.1065410  46.7665950  81.9361950  40.8894650
  37.9051950  87.7147110  46.6874940  38.4230620  86.9115370  46.6331830
  37.4535970  87.6526250  47.5291770  42.7921450  88.9813390  41.9602240
  43.1337150  89.7255620  41.4645560  41.9634160  89.2944510  42.3227070
  35.3896490  84.6808480  53.6000640  35.0311430  85.3462330  54.1873980
  35.0951050  83.8492030  53.9713260  38.5909610  85.1392720  56.4840190
  38.2909750  85.2849900  55.5868010  39.3620850  84.5798010  56.3913580
  43.9338060  89.9361720  54.4795320  43.9482600  89.0042680  54.2614230
  43.2263160  90.0221480  55.1185090  49.0675130  84.1201540  40.7493930
  48.9838850  84.5515760  39.8990370  49.7869320  84.5799890  41.1820750
  50.1449270  86.5769060  53.8263900  49.4197460  87.1697840  53.6293290
  50.6724730  86.5692600  53.0277270  50.0962380  90.9743800  43.4776060
  49.4538540  90.3199420  43.7519780  49.7093040  91.3798890  42.7016730
  45.6748860  88.3029230  47.3247750  46.0272680  87.7057360  46.6649120
  44.7911190  87.9773460  47.4956000  41.7612140  89.0626920  44.7318160
  42.4483270  89.6096130  45.1125750  40.9744560  89.6067650  44.7667770
  33.9004540  84.6799740  40.2235240  34.7699390  84.9624540  40.5071160
  33.4094860  85.4935610  40.1084050  41.0639350  86.0672950  44.3443520
  41.5202130  86.8778200  44.5703710  40.7127560  85.7496090  45.1762010
  43.3671960  91.5779290  51.5735820  44.0114180  91.7838670  52.2509240
  43.7301400  90.8167690  51.1206670  36.9651130  76.4110600  44.8166040
  36.8365760  76.4028500  45.7650960  36.1413150  76.7493690  44.4657050
  44.6404040  89.5811640  50.2913270  45.2826270  88.8804800  50.4045440
  45.1653390  90.3610080  50.1110160  48.4859760  89.8660260  40.0152410
  48.2597340  89.1490700  40.6077050  48.0955960  89.6172700  39.1774160
  46.4141660  90.3806540  53.4949330  46.7497900  90.9673230  54.1727250
  45.4942000  90.2499250  53.7247120  33.9645060  78.1701720  54.2772740
  33.2503580  78.3698640  54.8825350  34.3840100  77.3941290  54.6487540
  48.0676010  87.7832200  41.6766570  47.7797710  88.2444890  42.4644450
  48.8628180  87.3229970  41.9450790  34.2517650  92.1581980  55.2639270
  34.3608770  91.2176720  55.1234660  33.5998210  92.4236730  54.6153000
  42.2430240  90.4297870  56.6637390  41.9227110  89.7107110  57.2083080
  41.5688600  91.1052940  56.7373450  40.2844410  91.2758320  41.6070540
  40.2754510  92.0088010  40.9915050  39.3642770  91.0289900  41.6997500
  35.8851050  86.4973210  42.3517300  35.2779000  87.2372110  42.3612600
  36.3600400  86.5872570  41.5255500  45.4583840  80.6624030  52.0274190
  45.8264660  79.8419240  52.3553760  44.5982040  80.7225920  52.4429840
  48.8245870  79.6180970  42.8361750  48.1959030  79.7226640  42.1219980
  48.3297790  79.8377750  43.6255630  43.2704010  91.3386560  40.2695730
  43.3715990  91.1350550  39.3397710  42.3705750  91.0844840  40.4743510
  40.7929900  81.8966920  44.2519630  40.0846050  82.3653260  44.6933240
  41.0774380  81.2388930  44.8864820  42.4185830  83.3163620  52.2512160
  42.9171080  83.7909440  52.9164010  42.5608780  82.3927140  52.4582190
  44.8245330  78.6217580  45.6915420  44.7013110  78.6403710  44.7424930
  45.7729890  78.6696520  45.8113820  38.9964920  80.2052000  41.6270340
  39.8455450  80.6422150  41.5610530  38.6296190  80.5172260  42.4542400
  49.6252690  79.5331580  53.0940550  49.1226290  80.2736980  53.4334360
  50.4409350  79.9215580  52.7777340  47.9174700  84.7764760  46.5401910
  46.9764840  84.7914990  46.7149600  48.2318770  83.9900720  46.9862210
  37.8956340  86.4584360  40.1005870  38.6619610  86.3465720  40.6631300
  37.9731030  85.7622330  39.4482640  36.5903100  83.8909430  40.7838760
  36.6706690  82.9436940  40.8956160  37.4822850  84.2216310  40.8899420
  49.9200280  91.9473610  48.2156170  50.0447700  92.7704780  48.6879980
  50.7865840  91.7364340  47.8680320  34.2763290  90.1078390  43.7614810
  33.3503070  90.3499530  43.7520220  34.7419720  90.9352650  43.6399560
  36.3976090  93.2250890  57.0758880  37.1988820  93.5462940  57.4894280
  35.8827910  92.8646470  57.7978790  40.5020120  93.2135130  39.7098870
  41.2948730  93.5023960  39.2580660  39.9824470  92.7827300  39.0311350
  45.2340720  89.3330760  57.0234290  44.6278880  89.3562360  56.2830040
  44.9294830  88.6013800  57.5601540  46.6641090  93.0611050  55.6343700
  47.6162840  92.9769070  55.5843940  46.5169310  93.7252760  56.3077490
  49.5550290  92.4405260  41.1335610  49.2691800  92.0270400  40.3189790
  49.3569840  93.3692970  41.0136130  34.1173900  85.7124350  56.0194930
  34.6212920  85.1331630  56.5911160  33.3781320  85.9964580  56.5571300
  41.0197520  88.4338540  39.5741220  40.9148160  87.8190890  40.3002600
  40.8521740  87.9104430  38.7904230  41.1711840  87.1195340  55.5530450
  40.4057510  87.6880340  55.4685120  41.3527800  86.8271550  54.6598680
  44.2600250  87.4958570  40.1783210  43.7110350  87.9427870  40.8225950
  44.8819510  86.9907820  40.7020880  48.3135190  88.8500670  56.1105470
  49.0544660  89.1876430  55.6072930  47.5507870  89.0192730  55.5575240
  36.1496980  83.8553940  56.9145000  36.1902320  83.5567810  57.8230230
  37.0042480  84.2561550  56.7552520  39.9275370  86.4549490  42.0748510
  40.3491790  86.2889360  42.9179900  40.0526210  85.6449720  41.5803650
  38.0902790  82.4346040  54.8819490  37.5599250  81.9436990  54.2542830
  38.7590860  82.8630240  54.3477420  42.4403010  85.4787100  39.3225610
  42.9608670  84.7636120  38.9566760  43.0871410  86.1172970  39.6226120
  46.9880850  86.9015500  54.6460680  47.4021870  87.0560580  55.4951100
  46.0531850  87.0270720  54.8086460  47.4603020  84.2411660  56.6499830
  48.0423790  83.4863980  56.5620310  47.6364790  84.7719100  55.8731310
  38.5775090  79.4008410  54.9616780  38.4831960  78.7829160  54.2367650
  37.9972480  80.1274700  54.7346690  41.3436530  77.9581650  51.9944170
  40.8953830  77.9805910  51.1489720  40.7101730  77.5600670  52.5914470
  41.7496080  86.8535980  52.6156610  42.1684190  87.6968710  52.4432850
  40.8304710  86.9908020  52.3863390  44.0859980  84.5852160  53.9994450
  44.2056190  83.9893300  54.7389290  44.9453980  84.6221850  53.5795750
  46.4247880  85.1389350  52.5756960  45.8983100  85.6631970  51.9722100
  46.7679220  85.7716740  53.2066690  38.8234270  82.5282720  39.0206670
  38.6223330  81.6650080  39.3820010  38.6526320  82.4416080  38.0828270
  40.8528750  81.1273510  55.2570270  41.4428440  80.8189360  55.9448090
  40.0348990  80.6553260  55.4130170  45.6722180  80.7439320  55.4903290
  44.9837700  80.0820860  55.4253280  46.3928200  80.2977590  55.9351750
  46.3022580  77.3390950  41.5493550  46.5824870  76.4958850  41.9052970
  45.5288310  77.5714060  42.0632300  37.6217070  79.6283340  39.0084550
  37.9242970  79.6350770  38.1003700  38.3611660  79.2781200  39.5052210
  40.8402000  78.5717960  39.9940750  40.4924000  77.8941950  39.4143200
  41.0414770  78.1107470  40.8084140  36.6447200  88.9325760  39.8414350
  37.0822070  89.4755430  40.4971930  37.1294930  88.1072710  39.8510690
  33.8593000  91.7214790  47.2934610  34.1896010  90.8535850  47.0613250
  34.2884000  91.9273310  48.1239570  38.4554920  90.0523800  44.9536580
  38.1550460  89.9288770  45.8540490  38.3492410  89.1932390  44.5452310
  34.3483210  92.5885380  50.0316240  33.9114200  92.7686180  50.8640390
  34.9160890  93.3460000  49.8897960  49.9845390  92.0902380  54.3193550
  49.3847380  92.1494940  53.5757470  50.1139290  91.1507360  54.4490400
  51.2246840  89.8320200  39.6563260  50.3939800  89.8996850  40.1270490
  51.4018670  90.7224320  39.3530120  50.6803300  86.5767680  42.1597460
  51.4422210  87.1464330  42.2657150  50.6957670  86.0094880  42.9305770
  34.1807640  85.1005610  46.3905120  33.5256480  84.8317250  45.7464820
  35.0185590  84.9910090  45.9407100  51.6863270  87.4317780  47.0039390
  52.0572100  86.6485100  46.5975360  52.3265200  88.1206880  46.8256690
  48.6697030  88.8154360  52.4169710  47.8556870  89.2451520  52.6795500
  49.0771230  89.4272770  51.8038760  50.7322470  86.8702050  39.3169980
  51.0071310  87.7780930  39.1889200  50.5433210  86.8064580  40.2531970
  47.1298080  79.8946900  40.6123610  47.5482960  79.7077880  39.7720270
  46.8234140  79.0425950  40.9226540  50.6287810  84.8071040  44.3099410
  50.2531410  84.0398970  43.8780700  49.8990930  85.1893740  44.7974340
  35.2183570  85.4858180  50.9308460  35.5856610  85.3985580  51.8104480
  34.6494390  84.7224730  50.8315320  50.0187430  83.9542560  53.9438930
  49.7873520  83.7255310  53.0436880  50.2791980  84.8742110  53.8983820
  34.7699570  82.3967270  54.8366880  33.8755620  82.3634030  55.1760590
  35.3097120  82.5954060  55.6018130  48.4575500  79.1798990  56.7218630
  49.3345680  79.1882390  57.1052630  48.4696340  78.4429830  56.1110980
  33.3945720  82.3104540  42.3330450  32.4909800  82.5734740  42.1582110
  33.8786340  82.5815710  41.5530410  49.9038770  83.0328530  47.6106650
  50.4276250  82.5391180  46.9796820  50.4898190  83.1678890  48.3554220
  50.0828490  83.1168400  51.1326200  49.1331200  83.0831940  51.2471190
  50.2641500  84.0268510  50.8975970  35.9372930  81.3670080  40.2424830
  36.6464630  80.9453300  39.7572110  35.2212870  81.4345310  39.6108180
  35.5847090  77.4209410  39.2827480  36.3075220  77.9618350  39.6008700
  35.8571610  77.1472830  38.4069020  49.3938740  82.2901880  43.5499060
  49.8897860  82.0572750  44.3347940  49.1954810  81.4513720  43.1336700
  35.2739280  76.6715600  49.1850100  35.9215470  76.1212980  48.7445260
  35.6941120  76.9258750  50.0065910  50.8225900  80.9262830  46.0836740
  50.7125180  80.7718870  47.0219010  51.5833490  80.3983770  45.8412150
  49.1691620  76.8656960  52.5419740  49.8063840  77.4791100  52.9078930
  49.3166510  76.9017620  51.5968970  51.7116170  78.7570750  39.3242880
  52.6365480  78.6251930  39.1161170  51.6891960  78.8363570  40.2779330
  51.7854660  79.5281410  41.9499590  50.9906160  79.4626530  42.4792500
  51.9897940  80.4632050  41.9384940  48.7273080  93.5672960  45.9437980
  49.3232150  93.2457530  45.2672400  48.9851230  93.0944780  46.7351250
  35.0271280  76.8271270  51.9275420  34.6786100  77.2835090  52.6933600
  34.6958980  75.9328400  52.0097850  36.6335650  89.9990870  56.0928610
  36.5905280  89.6283780  56.9743070  36.7646660  90.9368440  56.2330430
  40.3341680  91.5550460  51.6938330  40.0933040  91.8225020  50.8068850
  41.2744320  91.7256190  51.7489190  42.5396100  78.0183150  55.4494840
  42.4784990  78.6104980  56.1990250  43.4796480  77.9109110  55.3045100
  45.1770660  77.6753210  55.0887130  45.7911070  77.9932500  54.4268210
  45.7220220  77.1901800  55.7082990  35.6991920  76.3547470  55.2026190
  36.2474910  76.1735520  54.4392300  35.7647230  75.5641580  55.7382500
  36.4723680  92.9453120  53.2126390  35.8784000  92.8137820  53.9516430
  36.4647520  92.1091260  52.7468490  45.9178700  76.2385350  51.4156420
  45.0438540  76.5720460  51.2129350  45.8089450  75.7658530  52.2408290
  46.8250680  78.4456220  52.7998140  46.4964040  77.6307980  52.4199870
  47.7732980  78.4026030  52.6763830  36.1035910  90.3111500  52.1634430
  35.3769970  89.6916790  52.0960380  36.1645060  90.7052110  51.2932510
  39.7081010  92.5256500  48.9483840  40.2246030  91.9143860  48.4232100
  40.3578390  93.0285280  49.4394850  42.4476510  93.4164990  49.7752820
  42.7354320  93.1619290  48.8985830  42.9599730  92.8642350  50.3658390
  43.6653520  77.1555190  50.3549330  42.8825310  77.6300690  50.6346090
  43.3716450  76.2510020  50.2462510  48.2174590  77.8578290  48.3998420
  48.6582680  77.8023390  47.5520020  47.9482180  78.7736300  48.4708600
  50.0813160  77.4893530  46.4107240  50.0201560  76.5454750  46.2638260
  50.8605190  77.5973620  46.9560700  35.0093930  77.4602670  42.8763050
  35.7673290  77.5731550  42.3027080  34.5471100  78.2971870  42.8306480
  41.5507740  79.5741940  45.8665360  40.7382250  79.1998830  45.5261240
  42.0549380  78.8187020  46.1686550  46.0532720  76.2384390  47.1048430
  46.6562090  76.8104600  47.5796950  45.3125710  76.8023830  46.8822330
  35.9928610  92.3219120  42.8181330  35.4676230  92.7027150  42.1143290
  35.9173190  92.9469890  43.5391040  37.3819080  77.9866720  41.4165020
  37.9111840  77.1996520  41.2872970  38.0147400  78.6657910  41.6500550
  39.5756920  77.7241860  44.4710410  38.9459660  77.0229170  44.6380540
  39.0362060  78.4845990  44.2543570  39.7012480  77.0025840  56.9062900
  39.4196750  77.5059440  56.1423720  40.0832180  76.2047590  56.5405030
  37.7536370  90.3866230  41.6976910  37.1245250  90.8551330  42.2462740
  37.8684200  89.5415450  42.1323100  46.3027940  76.4179420  57.4843370
  46.1893390  76.7374030  58.3794890  47.1197680  76.8191930  57.1880650
  45.2086090  84.4371890  27.8478110  45.1280140  83.5226500  27.5769820
  44.7950510  84.9338960  27.1417820  43.3404130  86.2150910  29.7287380
  42.5646230  85.7351350  30.0185950  43.9917060  85.5356560  29.5543540
  37.3569960  86.5270720  30.6063140  36.5254840  86.2719430  31.0059650
  37.9650940  86.5981490  31.3421060  47.3611560  90.6211100  28.5086510
  46.8993090  89.8498340  28.8373680  48.1737110  90.6477170  29.0138960
  37.3371220  90.5610810  30.8021160  37.6399260  89.6708550  30.6231380
  38.0814810  91.1181030  30.5743410  35.7661910  81.4872610  24.3905530
  34.8778610  81.8288580  24.2885410  36.0503100  81.2872930  23.4986360
  33.7294920  84.0878260  30.2745230  34.3011030  83.3200460  30.2748870
  33.7296460  84.3867020  29.3651840  43.5874870  92.9069110  28.1290500
  42.9686310  93.3626610  27.5584940  44.4426650  93.0620570  27.7280200
  42.7813120  88.8908100  29.7357540  42.7121400  87.9498040  29.5746670
  43.5432980  88.9809510  30.3080110  34.9719790  79.4962620  32.0614160
  34.7922630  78.5988370  32.3416920  34.5699870  80.0434490  32.7361110
  43.8118290  81.6978480  29.9626470  44.1883110  80.8250360  29.8500140
  43.7137800  82.0337180  29.0716910  37.9423300  80.0704110  25.4243910
  38.0490050  80.9707840  25.7312670  37.0315660  80.0222080  25.1338560
  47.5942410  79.1928920  26.8954810  48.4152030  78.7025490  26.9380290
  47.6276490  79.7826580  27.6486650  35.5906460  81.9923120  30.6696500
  36.2716570  82.2561490  31.2883900  35.2754510  81.1523990  31.0034510
  39.7831030  83.0390480  29.7569090  40.2909250  83.5371450  30.3974110
  40.3144270  82.2625680  29.5808450  51.8841960  81.2095670  33.4598440
  51.1794130  81.5977380  32.9413550  52.1499880  81.9045960  34.0619370
  38.0667130  77.6789040  34.0232510  38.0685570  78.1961430  33.2178410
  37.2371440  77.2019220  34.0002440  44.4538220  87.7908350  25.5222410
  43.8355490  88.2557800  24.9585130  44.9661470  88.4835830  25.9391920
  39.3169980  87.3184220  32.2006010  38.9839360  87.9453140  32.8427080
  39.4936660  87.8446100  31.4207680  47.8303890  81.1329300  29.6682350
  47.1259460  81.4214190  30.2485460  48.1916050  81.9429410  29.3081910
  37.7482460  79.3899000  32.0302960  38.0899270  80.2341050  31.7356830
  36.8098270  79.5382740  32.1468300  38.5289080  89.2865020  34.0155190
  39.1463080  89.9616100  33.7339640  37.6682200  89.6953000  33.9242690
  33.8221420  88.4764880  22.8962040  33.4449400  88.9651980  22.1646940
  34.0794490  89.1490160  23.5268570  49.4466670  90.7504430  31.9309830
  48.7630190  91.4203540  31.9226500  49.9860960  90.9485080  31.1654690
  50.8990810  80.5784090  30.0591560  49.9515720  80.6123070  30.1906990
  51.2240800  81.3923040  30.4440920  41.4310350  76.8781270  28.3547550
  41.7385330  76.3228160  27.6383050  40.5011050  77.0125730  28.1720540
  46.9825410  92.5948560  30.6455010  46.9952570  92.1910850  29.7777270
  46.4300630  93.3695850  30.5416440  48.2770830  89.3164780  25.7345180
  48.1667160  88.3739110  25.8594600  48.2739080  89.6780420  26.6207940
  46.3810850  87.4978400  31.9737620  46.7979640  87.2838510  31.1391080
  47.1050670  87.7551190  32.5446240  43.8191110  84.9430100  25.0907670
  42.8920390  84.8767480  25.3196140  43.9715930  85.8810230  24.9762910
  43.8060190  81.2147100  22.0874830  42.8663860  81.3761060  22.1727290
  44.1243450  81.9332780  21.5410820  50.3272950  85.8965620  32.0653860
  49.4991580  85.9658710  31.5903990  50.9223430  86.4819930  31.5969690
  47.8488400  86.5050400  25.5942920  47.2300820  86.1669950  24.9469220
  47.8312850  85.8610160  26.3022110  47.2914960  82.6834940  33.0108730
  46.8786140  83.5088650  33.2648720  46.5590910  82.0979980  32.8185090
  39.4247750  85.4694840  27.8727400  39.0204750  84.7572090  27.3773300
  39.5110870  85.1248080  28.7615440  39.8929450  89.1562400  30.0366610
  39.5957740  88.5507870  29.3574390  40.8429270  89.1939710  29.9255970
  38.1376370  82.2438050  31.6526440  38.6890960  82.3533390  30.8779690
  38.6519880  82.6175650  32.3681670  47.9815060  92.7294270  33.6989710
  47.5045620  93.5366460  33.5062320  47.2976850  92.0772600  33.8515920
  38.9847880  88.8944090  36.6874410  38.0876410  89.1184060  36.9347810
  39.0100750  89.0179030  35.7385810  46.0253100  85.7437210  22.6015670
  46.4646380  84.9059640  22.4553490  46.7381520  86.3766610  22.6879810
  37.8119100  85.7657410  35.2631780  37.6726870  86.6380210  35.6319180
  36.9300460  85.4230220  35.1179720  44.1348480  90.6833280  26.5696910
  44.5744390  91.4257610  26.1552300  44.0735370  90.9259850  27.4935870
  39.6099450  91.7079110  37.4716930  39.5814880  92.1122060  36.6045360
  39.4464420  90.7789470  37.3088530  49.6070240  76.9980020  20.9156710
  49.2942900  77.0906850  21.8155780  50.3682710  77.5761050  20.8654140
  36.1252380  84.3639820  25.3734050  36.0049980  85.0901910  24.7615320
  35.8153270  83.5942730  24.8961960  51.5614270  92.4906210  38.7681100
  52.0373990  92.9689100  39.4470180  52.1821430  92.4223700  38.0426600
  33.7637750  87.5354960  31.1802690  33.8418170  87.6703730  30.2358410
  34.3779430  86.8270850  31.3730810  35.0085380  89.2355150  27.5908870
  34.6013460  89.3769740  26.7362470  35.8998390  88.9515310  27.3880080
  50.9647520  89.6819060  35.9281110  51.0910580  89.4430940  35.0098290
  51.0068900  88.8503600  36.4003190  44.8264260  93.3847060  34.4975920
  45.3408930  93.2955070  35.2998350  43.9833340  93.7306760  34.7903830
  46.8018660  93.6702400  23.9259920  46.6419800  93.3805340  24.8241750
  46.6365370  92.8942530  23.3905150  46.5044790  91.1789960  22.4857920
  45.8109950  91.1767250  21.8260200  47.2467650  90.7549280  22.0552090
  46.0694720  92.8052670  26.5606410  46.5251670  92.0242050  26.8745030
  46.4087240  93.5159490  27.1047590  50.8171530  81.7351520  36.8930850
  50.2015800  82.2431190  36.3646310  50.4967950  80.8349850  36.8356790
  33.8197270  88.5769130  33.7197150  33.9828310  88.1074490  32.9016520
  34.2849720  88.0692690  34.3845990  38.5916040  77.7074890  28.7557720
  38.1484190  78.4884430  28.4242240  39.1501030  78.0304780  29.4628660
  42.8785850  80.5743410  34.3593040  42.4165220  80.7826430  35.1712980
  42.4763960  79.7602760  34.0563710  47.8790360  81.7952360  35.4889700
  47.0283950  81.4958110  35.8098770  47.7192150  82.0394370  34.5773520
  44.9740070  83.2954110  37.5888490  45.2993480  82.4617860  37.2490720
  45.7620400  83.8182630  37.7366820  41.7074860  77.3285590  23.6363550
  41.0829040  77.3245460  24.3616860  41.6204980  76.4616550  23.2399520
  40.6291940  78.2522220  30.6147320  40.9264270  79.1585050  30.5339340
  41.1777500  77.7641000  30.0006890  38.3830260  82.8308460  26.4838970
  38.1571180  82.6145630  27.3885590  37.6022790  83.2636920  26.1384940
  45.6128020  82.8371830  25.0829620  45.0136910  83.5607630  24.8993240
  46.1607630  82.7748610  24.3006070  40.8229470  83.7294040  37.1499240
  40.7273070  82.7888770  36.9999640  41.6661450  83.9509110  36.7547310
  44.2192890  81.4735370  27.1132900  44.6122460  81.7907570  26.3001590
  44.5809740  80.5947250  27.2277420  35.9540010  80.1407710  35.3033020
  35.5603400  80.9882920  35.5105800  35.2658410  79.5034080  35.4941660
  42.5285060  80.2242680  38.3729760  41.8383380  80.0314880  39.0075850
  43.2717360  80.5077320  38.9054060  33.2557060  78.0636170  29.3363100
  32.9670110  78.6339030  30.0488080  34.0002820  77.5840620  29.6994330
  33.4427290  82.0056290  20.5465820  33.3601960  82.9487050  20.6880810
  33.0910350  81.8631200  19.6678170  44.8048030  84.0641120  31.2083680
  44.0729150  84.5727930  31.5573780  44.4072370  83.2471100  30.9072460
  41.2425420  80.7395320  29.6136170  41.2461480  80.2985270  28.7640710
  42.1376540  81.0612650  29.7207990  37.0927800  80.6221810  28.5730380
  36.7527850  81.0997040  29.3297430  36.3305120  80.1686930  28.2131480
  41.3045570  81.7407400  22.6042930  41.4258390  81.6993880  23.5528750
  40.9194080  82.6031550  22.4489660  45.2673940  79.5174800  30.6206620
  45.2846680  79.9683450  31.4648470  45.0189520  78.6180440  30.8340060
  40.3167070  84.0508540  22.0026230  39.7483970  83.6026790  21.3762140
  41.0256070  84.4101320  21.4691380  48.6944690  76.9306980  36.4593000
  49.0190460  76.1996640  36.9850980  48.7301200  76.6120620  35.5573990
  35.3936250  87.9520560  35.8792960  35.0091040  87.3114230  36.4775920
  35.7048440  88.6556680  36.4487690  41.5433390  84.7997100  31.3601580
  41.9103520  84.3255670  32.1062920  41.3538450  85.6738670  31.7009920
  34.4073880  79.5440790  27.4895050  34.1220800  79.1796460  28.3273670
  34.3452740  78.8121250  26.8758190  39.3332760  83.8405740  33.6785790
  39.0289830  84.7197720  33.9036150  40.2879220  83.9005530  33.7143230
  37.8614550  88.0466730  24.2752640  37.0876810  87.5064350  24.1151360
  38.5909180  87.5273340  23.9370400  48.6202530  87.0432090  30.0679030
  49.3401650  87.5387380  29.6775140  48.4184350  86.3649980  29.4232900
  44.0812470  78.4370050  24.2108420  43.2677080  77.9383220  24.1353730
  43.8874420  79.2768300  23.7944770  44.0021330  87.1141150  35.9548030
  43.9358640  86.1936820  35.7005620  43.3726470  87.2116590  36.6692670
  46.7960860  82.8089700  22.5070580  47.6840480  83.1206930  22.3321920
  46.7665950  81.9361950  22.1151160  37.9051950  87.7147110  27.9131450
  38.4230620  86.9115370  27.8588340  37.4535970  87.6526250  28.7548280
  42.7921450  88.9813390  23.1858750  43.1337150  89.7255620  22.6902070
  41.9634160  89.2944510  23.5483580  35.3896490  84.6808480  34.8257150
  35.0311430  85.3462330  35.4130490  35.0951050  83.8492030  35.1969770
  38.5909610  85.1392720  37.7096700  38.2909750  85.2849900  36.8124520
  39.3620850  84.5798010  37.6170090  43.9338060  89.9361720  35.7051830
  43.9482600  89.0042680  35.4870740  43.2263160  90.0221480  36.3441600
  49.0675130  84.1201540  21.9750440  48.9838850  84.5515760  21.1246880
  49.7869320  84.5799890  22.4077260  50.1449270  86.5769060  35.0520410
  49.4197460  87.1697840  34.8549800  50.6724730  86.5692600  34.2533780
  50.0962380  90.9743800  24.7032570  49.4538540  90.3199420  24.9776290
  49.7093040  91.3798890  23.9273240  45.6748860  88.3029230  28.5504260
  46.0272680  87.7057360  27.8905630  44.7911190  87.9773460  28.7212510
  41.7612140  89.0626920  25.9574670  42.4483270  89.6096130  26.3382260
  40.9744560  89.6067650  25.9924280  33.9004540  84.6799740  21.4491750
  34.7699390  84.9624540  21.7327670  33.4094860  85.4935610  21.3340560
  41.0639350  86.0672950  25.5700030  41.5202130  86.8778200  25.7960220
  40.7127560  85.7496090  26.4018520  43.3671960  91.5779290  32.7992330
  44.0114180  91.7838670  33.4765750  43.7301400  90.8167690  32.3463180
  36.9651130  76.4110600  26.0422550  36.8365760  76.4028500  26.9907470
  36.1413150  76.7493690  25.6913560  44.6404040  89.5811640  31.5169780
  45.2826270  88.8804800  31.6301950  45.1653390  90.3610080  31.3366670
  48.4859760  89.8660260  21.2408920  48.2597340  89.1490700  21.8333560
  48.0955960  89.6172700  20.4030670  46.4141660  90.3806540  34.7205840
  46.7497900  90.9673230  35.3983760  45.4942000  90.2499250  34.9503630
  33.9645060  78.1701720  35.5029250  33.2503580  78.3698640  36.1081860
  34.3840100  77.3941290  35.8744050  48.0676010  87.7832200  22.9023080
  47.7797710  88.2444890  23.6900960  48.8628180  87.3229970  23.1707300
  34.2517650  92.1581980  36.4895780  34.3608770  91.2176720  36.3491170
  33.5998210  92.4236730  35.8409510  42.2430240  90.4297870  37.8893900
  41.9227110  89.7107110  38.4339590  41.5688600  91.1052940  37.9629960
  40.2844410  91.2758320  22.8327050  40.2754510  92.0088010  22.2171560
  39.3642770  91.0289900  22.9254010  35.8851050  86.4973210  23.5773810
  35.2779000  87.2372110  23.5869110  36.3600400  86.5872570  22.7512010
  45.4583840  80.6624030  33.2530700  45.8264660  79.8419240  33.5810270
  44.5982040  80.7225920  33.6686350  48.8245870  79.6180970  24.0618260
  48.1959030  79.7226640  23.3476490  48.3297790  79.8377750  24.8512140
  43.2704010  91.3386560  21.4952240  43.3715990  91.1350550  20.5654220
  42.3705750  91.0844840  21.7000020  40.7929900  81.8966920  25.4776140
  40.0846050  82.3653260  25.9189750  41.0774380  81.2388930  26.1121330
  42.4185830  83.3163620  33.4768670  42.9171080  83.7909440  34.1420520
  42.5608780  82.3927140  33.6838700  44.8245330  78.6217580  26.9171930
  44.7013110  78.6403710  25.9681440  45.7729890  78.6696520  27.0370330
  38.9964920  80.2052000  22.8526850  39.8455450  80.6422150  22.7867040
  38.6296190  80.5172260  23.6798910  49.6252690  79.5331580  34.3197060
  49.1226290  80.2736980  34.6590870  50.4409350  79.9215580  34.0033850
  47.9174700  84.7764760  27.7658420  46.9764840  84.7914990  27.9406110
  48.2318770  83.9900720  28.2118720  37.8956340  86.4584360  21.3262380
  38.6619610  86.3465720  21.8887810  37.9731030  85.7622330  20.6739150
  36.5903100  83.8909430  22.0095270  36.6706690  82.9436940  22.1212670
  37.4822850  84.2216310  22.1155930  49.9200280  91.9473610  29.4412680
  50.0447700  92.7704780  29.9136490  50.7865840  91.7364340  29.0936830
  34.2763290  90.1078390  24.9871320  33.3503070  90.3499530  24.9776730
  34.7419720  90.9352650  24.8656070  36.3976090  93.2250890  38.3015390
  37.1988820  93.5462940  38.7150790  35.8827910  92.8646470  39.0235300
  40.5020120  93.2135130  20.9355380  41.2948730  93.5023960  20.4837170
  39.9824470  92.7827300  20.2567860  45.2340720  89.3330760  38.2490800
  44.6278880  89.3562360  37.5086550  44.9294830  88.6013800  38.7858050
  46.6641090  93.0611050  36.8600210  47.6162840  92.9769070  36.8100450
  46.5169310  93.7252760  37.5334000  49.5550290  92.4405260  22.3592120
  49.2691800  92.0270400  21.5446300  49.3569840  93.3692970  22.2392640
  34.1173900  85.7124350  37.2451440  34.6212920  85.1331630  37.8167670
  33.3781320  85.9964580  37.7827810  41.0197520  88.4338540  20.7997730
  40.9148160  87.8190890  21.5259110  40.8521740  87.9104430  20.0160740
  41.1711840  87.1195340  36.7786960  40.4057510  87.6880340  36.6941630
  41.3527800  86.8271550  35.8855190  44.2600250  87.4958570  21.4039720
  43.7110350  87.9427870  22.0482460  44.8819510  86.9907820  21.9277390
  48.3135190  88.8500670  37.3361980  49.0544660  89.1876430  36.8329440
  47.5507870  89.0192730  36.7831750  36.1496980  83.8553940  38.1401510
  36.1902320  83.5567810  39.0486740  37.0042480  84.2561550  37.9809030
  39.9275370  86.4549490  23.3005020  40.3491790  86.2889360  24.1436410
  40.0526210  85.6449720  22.8060160  38.0902790  82.4346040  36.1076000
  37.5599250  81.9436990  35.4799340  38.7590860  82.8630240  35.5733930
  42.4403010  85.4787100  20.5482120  42.9608670  84.7636120  20.1823270
  43.0871410  86.1172970  20.8482630  46.9880850  86.9015500  35.8717190
  47.4021870  87.0560580  36.7207610  46.0531850  87.0270720  36.0342970
  47.4603020  84.2411660  37.8756340  48.0423790  83.4863980  37.7876820
  47.6364790  84.7719100  37.0987820  38.5775090  79.4008410  36.1873290
  38.4831960  78.7829160  35.4624160  37.9972480  80.1274700  35.9603200
  41.3436530  77.9581650  33.2200680  40.8953830  77.9805910  32.3746230
  40.7101730  77.5600670  33.8170980  41.7496080  86.8535980  33.8413120
  42.1684190  87.6968710  33.6689360  40.8304710  86.9908020  33.6119900
  44.0859980  84.5852160  35.2250960  44.2056190  83.9893300  35.9645800
  44.9453980  84.6221850  34.8052260  46.4247880  85.1389350  33.8013470
  45.8983100  85.6631970  33.1978610  46.7679220  85.7716740  34.4323200
  38.8234270  82.5282720  20.2463180  38.6223330  81.6650080  20.6076520
  38.6526320  82.4416080  19.3084780  40.8528750  81.1273510  36.4826780
  41.4428440  80.8189360  37.1704600  40.0348990  80.6553260  36.6386680
  45.6722180  80.7439320  36.7159800  44.9837700  80.0820860  36.6509790
  46.3928200  80.2977590  37.1608260  46.3022580  77.3390950  22.7750060
  46.5824870  76.4958850  23.1309480  45.5288310  77.5714060  23.2888810
  37.6217070  79.6283340  20.2341060  37.9242970  79.6350770  19.3260210
  38.3611660  79.2781200  20.7308720  40.8402000  78.5717960  21.2197260
  40.4924000  77.8941950  20.6399710  41.0414770  78.1107470  22.0340650
  36.6447200  88.9325760  21.0670860  37.0822070  89.4755430  21.7228440
  37.1294930  88.1072710  21.0767200  33.8593000  91.7214790  28.5191120
  34.1896010  90.8535850  28.2869760  34.2884000  91.9273310  29.3496080
  38.4554920  90.0523800  26.1793090  38.1550460  89.9288770  27.0797000
  38.3492410  89.1932390  25.7708820  34.3483210  92.5885380  31.2572750
  33.9114200  92.7686180  32.0896900  34.9160890  93.3460000  31.1154470
  49.9845390  92.0902380  35.5450060  49.3847380  92.1494940  34.8013980
  50.1139290  91.1507360  35.6746910  51.2246840  89.8320200  20.8819770
  50.3939800  89.8996850  21.3527000  51.4018670  90.7224320  20.5786630
  50.6803300  86.5767680  23.3853970  51.4422210  87.1464330  23.4913660
  50.6957670  86.0094880  24.1562280  34.1807640  85.1005610  27.6161630
  33.5256480  84.8317250  26.9721330  35.0185590  84.9910090  27.1663610
  51.6863270  87.4317780  28.2295900  52.0572100  86.6485100  27.8231870
  52.3265200  88.1206880  28.0513200  48.6697030  88.8154360  33.6426220
  47.8556870  89.2451520  33.9052010  49.0771230  89.4272770  33.0295270
  50.7322470  86.8702050  20.5426490  51.0071310  87.7780930  20.4145710
  50.5433210  86.8064580  21.4788480  47.1298080  79.8946900  21.8380120
  47.5482960  79.7077880  20.9976780  46.8234140  79.0425950  22.1483050
  50.6287810  84.8071040  25.5355920  50.2531410  84.0398970  25.1037210
  49.8990930  85.1893740  26.0230850  35.2183570  85.4858180  32.1564970
  35.5856610  85.3985580  33.0360990  34.6494390  84.7224730  32.0571830
  50.0187430  83.9542560  35.1695440  49.7873520  83.7255310  34.2693390
  50.2791980  84.8742110  35.1240330  34.7699570  82.3967270  36.0623390
  33.8755620  82.3634030  36.4017100  35.3097120  82.5954060  36.8274640
  48.4575500  79.1798990  37.9475140  49.3345680  79.1882390  38.3309140
  48.4696340  78.4429830  37.3367490  33.3945720  82.3104540  23.5586960
  32.4909800  82.5734740  23.3838620  33.8786340  82.5815710  22.7786920
  49.9038770  83.0328530  28.8363160  50.4276250  82.5391180  28.2053330
  50.4898190  83.1678890  29.5810730  50.0828490  83.1168400  32.3582710
  49.1331200  83.0831940  32.4727700  50.2641500  84.0268510  32.1232480
  35.9372930  81.3670080  21.4681340  36.6464630  80.9453300  20.9828620
  35.2212870  81.4345310  20.8364690  35.5847090  77.4209410  20.5083990
  36.3075220  77.9618350  20.8265210  35.8571610  77.1472830  19.6325530
  49.3938740  82.2901880  24.7755570  49.8897860  82.0572750  25.5604450
  49.1954810  81.4513720  24.3593210  35.2739280  76.6715600  30.4106610
  35.9215470  76.1212980  29.9701770  35.6941120  76.9258750  31.2322420
  50.8225900  80.9262830  27.3093250  50.7125180  80.7718870  28.2475520
  51.5833490  80.3983770  27.0668660  49.1691620  76.8656960  33.7676250
  49.8063840  77.4791100  34.1335440  49.3166510  76.9017620  32.8225480
  51.7116170  78.7570750  20.5499390  52.6365480  78.6251930  20.3417680
  51.6891960  78.8363570  21.5035840  51.7854660  79.5281410  23.1756100
  50.9906160  79.4626530  23.7049010  51.9897940  80.4632050  23.1641450
  48.7273080  93.5672960  27.1694490  49.3232150  93.2457530  26.4928910
  48.9851230  93.0944780  27.9607760  35.0271280  76.8271270  33.1531930
  34.6786100  77.2835090  33.9190110  34.6958980  75.9328400  33.2354360
  36.6335650  89.9990870  37.3185120  36.5905280  89.6283780  38.1999580
  36.7646660  90.9368440  37.4586940  40.3341680  91.5550460  32.9194840
  40.0933040  91.8225020  32.0325360  41.2744320  91.7256190  32.9745700
  42.5396100  78.0183150  36.6751350  42.4784990  78.6104980  37.4246760
  43.4796480  77.9109110  36.5301610  45.1770660  77.6753210  36.3143640
  45.7911070  77.9932500  35.6524720  45.7220220  77.1901800  36.9339500
  35.6991920  76.3547470  36.4282700  36.2474910  76.1735520  35.6648810
  35.7647230  75.5641580  36.9639010  36.4723680  92.9453120  34.4382900
  35.8784000  92.8137820  35.1772940  36.4647520  92.1091260  33.9725000
  45.9178700  76.2385350  32.6412930  45.0438540  76.5720460  32.4385860
  45.8089450  75.7658530  33.4664800  46.8250680  78.4456220  34.0254650
  46.4964040  77.6307980  33.6456380  47.7732980  78.4026030  33.9020340
  36.1035910  90.3111500  33.3890940  35.3769970  89.6916790  33.3216890
  36.1645060  90.7052110  32.5189020  39.7081010  92.5256500  30.1740350
  40.2246030  91.9143860  29.6488610  40.3578390  93.0285280  30.6651360
  42.4476510  93.4164990  31.0009330  42.7354320  93.1619290  30.1242340
  42.9599730  92.8642350  31.5914900  43.6653520  77.1555190  31.5805840
  42.8825310  77.6300690  31.8602600  43.3716450  76.2510020  31.4719020
  48.2174590  77.8578290  29.6254930  48.6582680  77.8023390  28.7776530
  47.9482180  78.7736300  29.6965110  50.0813160  77.4893530  27.6363750
  50.0201560  76.5454750  27.4894770  50.8605190  77.5973620  28.1817210
  35.0093930  77.4602670  24.1019560  35.7673290  77.5731550  23.5283590
  34.5471100  78.2971870  24.0562990  41.5507740  79.5741940  27.0921870
  40.7382250  79.1998830  26.7517750  42.0549380  78.8187020  27.3943060
  46.0532720  76.2384390  28.3304940  46.6562090  76.8104600  28.8053460
  45.3125710  76.8023830  28.1078840  49.1967320  76.6405950  23.6045220
  49.3917950  77.5389400  23.8712650  48.4097190  76.4093030  24.0978170
  35.9928610  92.3219120  24.0437840  35.4676230  92.7027150  23.3399800
  35.9173190  92.9469890  24.7647550  37.3819080  77.9866720  22.6421530
  37.9111840  77.1996520  22.5129480  38.0147400  78.6657910  22.8757060
  39.5756920  77.7241860  25.6966920  38.9459660  77.0229170  25.8637050
  39.0362060  78.4845990  25.4800080  39.7012480  77.0025840  38.1319410
  39.4196750  77.5059440  37.3680230  40.0832180  76.2047590  37.7661540
  37.7536370  90.3866230  22.9233420  37.1245250  90.8551330  23.4719250
  37.8684200  89.5415450  23.3579610  46.3027940  76.4179420  38.7099880
  46.1893390  76.7374030  39.6051400  47.1197680  76.8191930  38.4137160
  45.2086090  84.4371890   9.0734620  45.1280140  83.5226500   8.8026330
  44.7950510  84.9338960   8.3674330  43.3404130  86.2150910  10.9543890
  42.5646230  85.7351350  11.2442460  43.9917060  85.5356560  10.7800050
  37.3569960  86.5270720  11.8319650  36.5254840  86.2719430  12.2316160
  37.9650940  86.5981490  12.5677570  47.3611560  90.6211100   9.7343020
  46.8993090  89.8498340  10.0630190  48.1737110  90.6477170  10.2395470
  37.3371220  90.5610810  12.0277670  37.6399260  89.6708550  11.8487890
  38.0814810  91.1181030  11.7999920  35.7661910  81.4872610   5.6162040
  34.8778610  81.8288580   5.5141920  36.0503100  81.2872930   4.7242870
  33.7294920  84.0878260  11.5001740  34.3011030  83.3200460  11.5005380
  33.7296460  84.3867020  10.5908350  43.5874870  92.9069110   9.3547010
  42.9686310  93.3626610   8.7841450  44.4426650  93.0620570   8.9536710
  42.7813120  88.8908100  10.9614050  42.7121400  87.9498040  10.8003180
  43.5432980  88.9809510  11.5336620  34.9719790  79.4962620  13.2870670
  34.7922630  78.5988370  13.5673430  34.5699870  80.0434490  13.9617620
  43.8118290  81.6978480  11.1882980  44.1883110  80.8250360  11.0756650
  43.7137800  82.0337180  10.2973420  37.9423300  80.0704110   6.6500420
  38.0490050  80.9707840   6.9569180  37.0315660  80.0222080   6.3595070
  47.5942410  79.1928920   8.1211320  48.4152030  78.7025490   8.1636800
  47.6276490  79.7826580   8.8743160  35.5906460  81.9923120  11.8953010
  36.2716570  82.2561490  12.5140410  35.2754510  81.1523990  12.2291020
  39.7831030  83.0390480  10.9825600  40.2909250  83.5371450  11.6230620
  40.3144270  82.2625680  10.8064960  51.8841960  81.2095670  14.6854950
  51.1794130  81.5977380  14.1670060  52.1499880  81.9045960  15.2875880
  38.0667130  77.6789040  15.2489020  38.0685570  78.1961430  14.4434920
  37.2371440  77.2019220  15.2258950  44.4538220  87.7908350   6.7478920
  43.8355490  88.2557800   6.1841640  44.9661470  88.4835830   7.1648430
  39.3169980  87.3184220  13.4262520  38.9839360  87.9453140  14.0683590
  39.4936660  87.8446100  12.6464190  47.8303890  81.1329300  10.8938860
  47.1259460  81.4214190  11.4741970  48.1916050  81.9429410  10.5338420
  37.7482460  79.3899000  13.2559470  38.0899270  80.2341050  12.9613340
  36.8098270  79.5382740  13.3724810  38.5289080  89.2865020  15.2411700
  39.1463080  89.9616100  14.9596150  37.6682200  89.6953000  15.1499200
  33.8221420  88.4764880   4.1218550  33.4449400  88.9651980   3.3903450
  34.0794490  89.1490160   4.7525080  49.4466670  90.7504430  13.1566340
  48.7630190  91.4203540  13.1483010  49.9860960  90.9485080  12.3911200
  50.8990810  80.5784090  11.2848070  49.9515720  80.6123070  11.4163500
  51.2240800  81.3923040  11.6697430  41.4310350  76.8781270   9.5804060
  41.7385330  76.3228160   8.8639560  40.5011050  77.0125730   9.3977050
  46.9825410  92.5948560  11.8711520  46.9952570  92.1910850  11.0033780
  46.4300630  93.3695850  11.7672950  48.2770830  89.3164780   6.9601690
  48.1667160  88.3739110   7.0851110  48.2739080  89.6780420   7.8464450
  46.3810850  87.4978400  13.1994130  46.7979640  87.2838510  12.3647590
  47.1050670  87.7551190  13.7702750  43.8191110  84.9430100   6.3164180
  42.8920390  84.8767480   6.5452650  43.9715930  85.8810230   6.2019420
  43.8060190  81.2147100   3.3131340  42.8663860  81.3761060   3.3983800
  44.1243450  81.9332780   2.7667330  50.3272950  85.8965620  13.2910370
  49.4991580  85.9658710  12.8160500  50.9223430  86.4819930  12.8226200
  47.8488400  86.5050400   6.8199430  47.2300820  86.1669950   6.1725730
  47.8312850  85.8610160   7.5278620  47.2914960  82.6834940  14.2365240
  46.8786140  83.5088650  14.4905230  46.5590910  82.0979980  14.0441600
  39.4247750  85.4694840   9.0983910  39.0204750  84.7572090   8.6029810
  39.5110870  85.1248080   9.9871950  39.8929450  89.1562400  11.2623120
  39.5957740  88.5507870  10.5830900  40.8429270  89.1939710  11.1512480
  38.1376370  82.2438050  12.8782950  38.6890960  82.3533390  12.1036200
  38.6519880  82.6175650  13.5938180  47.9815060  92.7294270  14.9246220
  47.5045620  93.5366460  14.7318830  47.2976850  92.0772600  15.0772430
  38.9847880  88.8944090  17.9130920  38.0876410  89.1184060  18.1604320
  39.0100750  89.0179030  16.9642320  46.0253100  85.7437210   3.8272180
  46.4646380  84.9059640   3.6810000  46.7381520  86.3766610   3.9136320
  37.8119100  85.7657410  16.4888290  37.6726870  86.6380210  16.8575690
  36.9300460  85.4230220  16.3436230  44.1348480  90.6833280   7.7953420
  44.5744390  91.4257610   7.3808810  44.0735370  90.9259850   8.7192380
  39.6099450  91.7079110  18.6973440  39.5814880  92.1122060  17.8301870
  39.4464420  90.7789470  18.5345040  49.6070240  76.9980020   2.1413220
  49.2942900  77.0906850   3.0412290  50.3682710  77.5761050   2.0910650
  36.1252380  84.3639820   6.5990560  36.0049980  85.0901910   5.9871830
  35.8153270  83.5942730   6.1218470  51.5614270  92.4906210  19.9937610
  52.0373990  92.9689100  20.6726690  52.1821430  92.4223700  19.2683110
  33.7637750  87.5354960  12.4059200  33.8418170  87.6703730  11.4614920
  34.3779430  86.8270850  12.5987320  35.0085380  89.2355150   8.8165380
  34.6013460  89.3769740   7.9618980  35.8998390  88.9515310   8.6136590
  50.9647520  89.6819060  17.1537620  51.0910580  89.4430940  16.2354800
  51.0068900  88.8503600  17.6259700  44.8264260  93.3847060  15.7232430
  45.3408930  93.2955070  16.5254860  43.9833340  93.7306760  16.0160340
  46.8018660  93.6702400   5.1516430  46.6419800  93.3805340   6.0498260
  46.6365370  92.8942530   4.6161660  46.5044790  91.1789960   3.7114430
  45.8109950  91.1767250   3.0516710  47.2467650  90.7549280   3.2808600
  46.0694720  92.8052670   7.7862920  46.5251670  92.0242050   8.1001540
  46.4087240  93.5159490   8.3304100  50.8171530  81.7351520  18.1187360
  50.2015800  82.2431190  17.5902820  50.4967950  80.8349850  18.0613300
  33.8197270  88.5769130  14.9453660  33.9828310  88.1074490  14.1273030
  34.2849720  88.0692690  15.6102500  38.5916040  77.7074890   9.9814230
  38.1484190  78.4884430   9.6498750  39.1501030  78.0304780  10.6885170
  42.8785850  80.5743410  15.5849550  42.4165220  80.7826430  16.3969490
  42.4763960  79.7602760  15.2820220  47.8790360  81.7952360  16.7146210
  47.0283950  81.4958110  17.0355280  47.7192150  82.0394370  15.8030030
  44.9740070  83.2954110  18.8145000  45.2993480  82.4617860  18.4747230
  45.7620400  83.8182630  18.9623330  41.7074860  77.3285590   4.8620060
  41.0829040  77.3245460   5.5873370  41.6204980  76.4616550   4.4656030
  40.6291940  78.2522220  11.8403830  40.9264270  79.1585050  11.7595850
  41.1777500  77.7641000  11.2263400  38.3830260  82.8308460   7.7095480
  38.1571180  82.6145630   8.6142100  37.6022790  83.2636920   7.3641450
  45.6128020  82.8371830   6.3086130  45.0136910  83.5607630   6.1249750
  46.1607630  82.7748610   5.5262580  40.8229470  83.7294040  18.3755750
  40.7273070  82.7888770  18.2256150  41.6661450  83.9509110  17.9803820
  44.2192890  81.4735370   8.3389410  44.6122460  81.7907570   7.5258100
  44.5809740  80.5947250   8.4533930  35.9540010  80.1407710  16.5289530
  35.5603400  80.9882920  16.7362310  35.2658410  79.5034080  16.7198170
  42.5285060  80.2242680  19.5986270  41.8383380  80.0314880  20.2332360
  43.2717360  80.5077320  20.1310570  33.2557060  78.0636170  10.5619610
  32.9670110  78.6339030  11.2744590  34.0002820  77.5840620  10.9250840
  44.8048030  84.0641120  12.4340190  44.0729150  84.5727930  12.7830290
  44.4072370  83.2471100  12.1328970  41.2425420  80.7395320  10.8392680
  41.2461480  80.2985270   9.9897220  42.1376540  81.0612650  10.9464500
  37.0927800  80.6221810   9.7986890  36.7527850  81.0997040  10.5553940
  36.3305120  80.1686930   9.4387990  41.3045570  81.7407400   3.8299440
  41.4258390  81.6993880   4.7785260  40.9194080  82.6031550   3.6746170
  45.2673940  79.5174800  11.8463130  45.2846680  79.9683450  12.6904980
  45.0189520  78.6180440  12.0596570  40.3167070  84.0508540   3.2282740
  39.7483970  83.6026790   2.6018650  41.0256070  84.4101320   2.6947890
  48.6944690  76.9306980  17.6849510  49.0190460  76.1996640  18.2107490
  48.7301200  76.6120620  16.7830500  35.3936250  87.9520560  17.1049470
  35.0091040  87.3114230  17.7032430  35.7048440  88.6556680  17.6744200
  41.5433390  84.7997100  12.5858090  41.9103520  84.3255670  13.3319430
  41.3538450  85.6738670  12.9266430  34.4073880  79.5440790   8.7151560
  34.1220800  79.1796460   9.5530180  34.3452740  78.8121250   8.1014700
  39.3332760  83.8405740  14.9042300  39.0289830  84.7197720  15.1292660
  40.2879220  83.9005530  14.9399740  37.8614550  88.0466730   5.5009150
  37.0876810  87.5064350   5.3407870  38.5909180  87.5273340   5.1626910
  48.6202530  87.0432090  11.2935540  49.3401650  87.5387380  10.9031650
  48.4184350  86.3649980  10.6489410  44.0812470  78.4370050   5.4364930
  43.2677080  77.9383220   5.3610240  43.8874420  79.2768300   5.0201280
  44.0021330  87.1141150  17.1804540  43.9358640  86.1936820  16.9262130
  43.3726470  87.2116590  17.8949180  46.7960860  82.8089700   3.7327090
  47.6840480  83.1206930   3.5578430  46.7665950  81.9361950   3.3407670
  37.9051950  87.7147110   9.1387960  38.4230620  86.9115370   9.0844850
  37.4535970  87.6526250   9.9804790  42.7921450  88.9813390   4.4115260
  43.1337150  89.7255620   3.9158580  41.9634160  89.2944510   4.7740090
  35.3896490  84.6808480  16.0513660  35.0311430  85.3462330  16.6387000
  35.0951050  83.8492030  16.4226280  38.5909610  85.1392720  18.9353210
  38.2909750  85.2849900  18.0381030  39.3620850  84.5798010  18.8426600
  43.9338060  89.9361720  16.9308340  43.9482600  89.0042680  16.7127250
  43.2263160  90.0221480  17.5698110  49.0675130  84.1201540   3.2006950
  48.9838850  84.5515760   2.3503390  49.7869320  84.5799890   3.6333770
  50.1449270  86.5769060  16.2776920  49.4197460  87.1697840  16.0806310
  50.6724730  86.5692600  15.4790290  50.0962380  90.9743800   5.9289080
  49.4538540  90.3199420   6.2032800  49.7093040  91.3798890   5.1529750
  45.6748860  88.3029230   9.7760770  46.0272680  87.7057360   9.1162140
  44.7911190  87.9773460   9.9469020  41.7612140  89.0626920   7.1831180
  42.4483270  89.6096130   7.5638770  40.9744560  89.6067650   7.2180790
  33.9004540  84.6799740   2.6748260  34.7699390  84.9624540   2.9584180
  33.4094860  85.4935610   2.5597070  41.0639350  86.0672950   6.7956540
  41.5202130  86.8778200   7.0216730  40.7127560  85.7496090   7.6275030
  43.3671960  91.5779290  14.0248840  44.0114180  91.7838670  14.7022260
  43.7301400  90.8167690  13.5719690  36.9651130  76.4110600   7.2679060
  36.8365760  76.4028500   8.2163980  36.1413150  76.7493690   6.9170070
  44.6404040  89.5811640  12.7426290  45.2826270  88.8804800  12.8558460
  45.1653390  90.3610080  12.5623180  48.4859760  89.8660260   2.4665430
  48.2597340  89.1490700   3.0590070  48.0955960  89.6172700   1.6287180
  46.4141660  90.3806540  15.9462350  46.7497900  90.9673230  16.6240270
  45.4942000  90.2499250  16.1760140  33.9645060  78.1701720  16.7285760
  33.2503580  78.3698640  17.3338370  34.3840100  77.3941290  17.1000560
  48.0676010  87.7832200   4.1279590  47.7797710  88.2444890   4.9157470
  48.8628180  87.3229970   4.3963810  34.2517650  92.1581980  17.7152290
  34.3608770  91.2176720  17.5747680  33.5998210  92.4236730  17.0666020
  42.2430240  90.4297870  19.1150410  41.9227110  89.7107110  19.6596100
  41.5688600  91.1052940  19.1886470  40.2844410  91.2758320   4.0583560
  40.2754510  92.0088010   3.4428070  39.3642770  91.0289900   4.1510520
  35.8851050  86.4973210   4.8030320  35.2779000  87.2372110   4.8125620
  36.3600400  86.5872570   3.9768520  45.4583840  80.6624030  14.4787210
  45.8264660  79.8419240  14.8066780  44.5982040  80.7225920  14.8942860
  48.8245870  79.6180970   5.2874770  48.1959030  79.7226640   4.5733000
  48.3297790  79.8377750   6.0768650  43.2704010  91.3386560   2.7208750
  43.3715990  91.1350550   1.7910730  42.3705750  91.0844840   2.9256530
  40.7929900  81.8966920   6.7032650  40.0846050  82.3653260   7.1446260
  41.0774380  81.2388930   7.3377840  42.4185830  83.3163620  14.7025180
  42.9171080  83.7909440  15.3677030  42.5608780  82.3927140  14.9095210
  44.8245330  78.6217580   8.1428440  44.7013110  78.6403710   7.1937950
  45.7729890  78.6696520   8.2626840  38.9964920  80.2052000   4.0783360
  39.8455450  80.6422150   4.0123550  38.6296190  80.5172260   4.9055420
  49.6252690  79.5331580  15.5453570  49.1226290  80.2736980  15.8847380
  50.4409350  79.9215580  15.2290360  47.9174700  84.7764760   8.9914930
  46.9764840  84.7914990   9.1662620  48.2318770  83.9900720   9.4375230
  37.8956340  86.4584360   2.5518890  38.6619610  86.3465720   3.1144320
  37.9731030  85.7622330   1.8995660  36.5903100  83.8909430   3.2351780
  36.6706690  82.9436940   3.3469180  37.4822850  84.2216310   3.3412440
  49.9200280  91.9473610  10.6669190  50.0447700  92.7704780  11.1393000
  50.7865840  91.7364340  10.3193340  34.2763290  90.1078390   6.2127830
  33.3503070  90.3499530   6.2033240  34.7419720  90.9352650   6.0912580
  36.3976090  93.2250890  19.5271900  37.1988820  93.5462940  19.9407300
  35.8827910  92.8646470  20.2491810  45.2340720  89.3330760  19.4747310
  44.6278880  89.3562360  18.7343060  44.9294830  88.6013800  20.0114560
  46.6641090  93.0611050  18.0856720  47.6162840  92.9769070  18.0356960
  46.5169310  93.7252760  18.7590510  49.5550290  92.4405260   3.5848630
  49.2691800  92.0270400   2.7702810  49.3569840  93.3692970   3.4649150
  34.1173900  85.7124350  18.4707950  34.6212920  85.1331630  19.0424180
  33.3781320  85.9964580  19.0084320  41.1711840  87.1195340  18.0043470
  40.4057510  87.6880340  17.9198140  41.3527800  86.8271550  17.1111700
  44.2600250  87.4958570   2.6296230  43.7110350  87.9427870   3.2738970
  44.8819510  86.9907820   3.1533900  48.3135190  88.8500670  18.5618490
  49.0544660  89.1876430  18.0585950  47.5507870  89.0192730  18.0088260
  36.1496980  83.8553940  19.3658020  36.1902320  83.5567810  20.2743250
  37.0042480  84.2561550  19.2065540  39.9275370  86.4549490   4.5261530
  40.3491790  86.2889360   5.3692920  40.0526210  85.6449720   4.0316670
  38.0902790  82.4346040  17.3332510  37.5599250  81.9436990  16.7055850
  38.7590860  82.8630240  16.7990440  46.9880850  86.9015500  17.0973700
  47.4021870  87.0560580  17.9464120  46.0531850  87.0270720  17.2599480
  47.4603020  84.2411660  19.1012850  48.0423790  83.4863980  19.0133330
  47.6364790  84.7719100  18.3244330  38.5775090  79.4008410  17.4129800
  38.4831960  78.7829160  16.6880670  37.9972480  80.1274700  17.1859710
  41.3436530  77.9581650  14.4457190  40.8953830  77.9805910  13.6002740
  40.7101730  77.5600670  15.0427490  41.7496080  86.8535980  15.0669630
  42.1684190  87.6968710  14.8945870  40.8304710  86.9908020  14.8376410
  44.0859980  84.5852160  16.4507470  44.2056190  83.9893300  17.1902310
  44.9453980  84.6221850  16.0308770  46.4247880  85.1389350  15.0269980
  45.8983100  85.6631970  14.4235120  46.7679220  85.7716740  15.6579710
  40.8528750  81.1273510  17.7083290  41.4428440  80.8189360  18.3961110
  40.0348990  80.6553260  17.8643190  45.6722180  80.7439320  17.9416310
  44.9837700  80.0820860  17.8766300  46.3928200  80.2977590  18.3864770
  46.3022580  77.3390950   4.0006570  46.5824870  76.4958850   4.3565990
  45.5288310  77.5714060   4.5145320  40.8402000  78.5717960   2.4453770
  40.4924000  77.8941950   1.8656220  41.0414770  78.1107470   3.2597160
  36.6447200  88.9325760   2.2927370  37.0822070  89.4755430   2.9484950
  37.1294930  88.1072710   2.3023710  33.8593000  91.7214790   9.7447630
  34.1896010  90.8535850   9.5126270  34.2884000  91.9273310  10.5752590
  38.4554920  90.0523800   7.4049600  38.1550460  89.9288770   8.3053510
  38.3492410  89.1932390   6.9965330  34.3483210  92.5885380  12.4829260
  33.9114200  92.7686180  13.3153410  34.9160890  93.3460000  12.3410980
  49.9845390  92.0902380  16.7706570  49.3847380  92.1494940  16.0270490
  50.1139290  91.1507360  16.9003420  51.2246840  89.8320200   2.1076280
  50.3939800  89.8996850   2.5783510  51.4018670  90.7224320   1.8043140
  50.6803300  86.5767680   4.6110480  51.4422210  87.1464330   4.7170170
  50.6957670  86.0094880   5.3818790  34.1807640  85.1005610   8.8418140
  33.5256480  84.8317250   8.1977840  35.0185590  84.9910090   8.3920120
  51.6863270  87.4317780   9.4552410  52.0572100  86.6485100   9.0488380
  52.3265200  88.1206880   9.2769710  48.6697030  88.8154360  14.8682730
  47.8556870  89.2451520  15.1308520  49.0771230  89.4272770  14.2551780
  50.7322470  86.8702050   1.7683000  51.0071310  87.7780930   1.6402220
  50.5433210  86.8064580   2.7044990  47.1298080  79.8946900   3.0636630
  47.5482960  79.7077880   2.2233290  46.8234140  79.0425950   3.3739560
  50.6287810  84.8071040   6.7612430  50.2531410  84.0398970   6.3293720
  49.8990930  85.1893740   7.2487360  35.2183570  85.4858180  13.3821480
  35.5856610  85.3985580  14.2617500  34.6494390  84.7224730  13.2828340
  50.0187430  83.9542560  16.3951950  49.7873520  83.7255310  15.4949900
  50.2791980  84.8742110  16.3496840  34.7699570  82.3967270  17.2879900
  33.8755620  82.3634030  17.6273610  35.3097120  82.5954060  18.0531150
  48.4575500  79.1798990  19.1731650  49.3345680  79.1882390  19.5565650
  48.4696340  78.4429830  18.5624000  33.3945720  82.3104540   4.7843470
  32.4909800  82.5734740   4.6095130  33.8786340  82.5815710   4.0043430
  49.9038770  83.0328530  10.0619670  50.4276250  82.5391180   9.4309840
  50.4898190  83.1678890  10.8067240  50.0828490  83.1168400  13.5839220
  49.1331200  83.0831940  13.6984210  50.2641500  84.0268510  13.3488990
  35.9372930  81.3670080   2.6937850  36.6464630  80.9453300   2.2085130
  35.2212870  81.4345310   2.0621200  49.3938740  82.2901880   6.0012080
  49.8897860  82.0572750   6.7860960  49.1954810  81.4513720   5.5849720
  35.2739280  76.6715600  11.6363120  35.9215470  76.1212980  11.1958280
  35.6941120  76.9258750  12.4578930  50.8225900  80.9262830   8.5349760
  50.7125180  80.7718870   9.4732030  51.5833490  80.3983770   8.2925170
  49.1691620  76.8656960  14.9932760  49.8063840  77.4791100  15.3591950
  49.3166510  76.9017620  14.0481990  51.7116170  78.7570750   1.7755900
  52.6365480  78.6251930   1.5674190  51.6891960  78.8363570   2.7292350
  51.7854660  79.5281410   4.4012610  50.9906160  79.4626530   4.9305520
  51.9897940  80.4632050   4.3897960  48.7273080  93.5672960   8.3951000
  49.3232150  93.2457530   7.7185420  48.9851230  93.0944780   9.1864270
  35.0271280  76.8271270  14.3788440  34.6786100  77.2835090  15.1446620
  34.6958980  75.9328400  14.4610870  36.6335650  89.9990870  18.5441630
  36.5905280  89.6283780  19.4256090  36.7646660  90.9368440  18.6843450
  40.3341680  91.5550460  14.1451350  40.0933040  91.8225020  13.2581870
  41.2744320  91.7256190  14.2002210  42.5396100  78.0183150  17.9007860
  42.4784990  78.6104980  18.6503270  43.4796480  77.9109110  17.7558120
  45.1770660  77.6753210  17.5400150  45.7911070  77.9932500  16.8781230
  45.7220220  77.1901800  18.1596010  35.6991920  76.3547470  17.6539210
  36.2474910  76.1735520  16.8905320  35.7647230  75.5641580  18.1895520
  36.4723680  92.9453120  15.6639410  35.8784000  92.8137820  16.4029450
  36.4647520  92.1091260  15.1981510  45.9178700  76.2385350  13.8669440
  45.0438540  76.5720460  13.6642370  45.8089450  75.7658530  14.6921310
  46.8250680  78.4456220  15.2511160  46.4964040  77.6307980  14.8712890
  47.7732980  78.4026030  15.1276850  36.1035910  90.3111500  14.6147450
  35.3769970  89.6916790  14.5473400  36.1645060  90.7052110  13.7445530
  39.7081010  92.5256500  11.3996860  40.2246030  91.9143860  10.8745120
  40.3578390  93.0285280  11.8907870  42.4476510  93.4164990  12.2265840
  42.7354320  93.1619290  11.3498850  42.9599730  92.8642350  12.8171410
  43.6653520  77.1555190  12.8062350  42.8825310  77.6300690  13.0859110
  43.3716450  76.2510020  12.6975530  48.2174590  77.8578290  10.8511440
  48.6582680  77.8023390  10.0033040  47.9482180  78.7736300  10.9221620
  50.0813160  77.4893530   8.8620260  50.0201560  76.5454750   8.7151280
  50.8605190  77.5973620   9.4073720  35.0093930  77.4602670   5.3276070
  35.7673290  77.5731550   4.7540100  34.5471100  78.2971870   5.2819500
  41.5507740  79.5741940   8.3178380  40.7382250  79.1998830   7.9774260
  42.0549380  78.8187020   8.6199570  46.0532720  76.2384390   9.5561450
  46.6562090  76.8104600  10.0309970  45.3125710  76.8023830   9.3335350
  49.1967320  76.6405950   4.8301730  49.3917950  77.5389400   5.0969160
  48.4097190  76.4093030   5.3234680  35.9928610  92.3219120   5.2694350
  35.4676230  92.7027150   4.5656310  35.9173190  92.9469890   5.9904060
  37.3819080  77.9866720   3.8678040  37.9111840  77.1996520   3.7385990
  38.0147400  78.6657910   4.1013570  39.5756920  77.7241860   6.9223430
  38.9459660  77.0229170   7.0893560  39.0362060  78.4845990   6.7056590
  39.7012480  77.0025840  19.3575920  39.4196750  77.5059440  18.5936740
  40.0832180  76.2047590  18.9918050  37.7536370  90.3866230   4.1489930
  37.1245250  90.8551330   4.6975760  37.8684200  89.5415450   4.5836120
  46.3027940  76.4179420  19.9356390  46.1893390  76.7374030  20.8307910
  47.1197680  76.8191930  19.6393670  45.2086090  65.6628400  65.3965090
  45.1280140  64.7483010  65.1256800  44.7950510  66.1595470  64.6904800
  43.3404130  67.4407420  67.2774360  42.5646230  66.9607860  67.5672930
  43.9917060  66.7613070  67.1030520  37.3569960  67.7527230  68.1550120
  36.5254840  67.4975940  68.5546630  37.9650940  67.8238000  68.8908040
  47.3611560  71.8467610  66.0573490  46.8993090  71.0754850  66.3860660
  48.1737110  71.8733680  66.5625940  37.3371220  71.7867320  68.3508140
  37.6399260  70.8965060  68.1718360  38.0814810  72.3437540  68.1230390
  35.7661910  62.7129120  61.9392510  34.8778610  63.0545090  61.8372390
  36.0503100  62.5129440  61.0473340  33.7294920  65.3134770  67.8232210
  34.3011030  64.5456970  67.8235850  33.7296460  65.6123530  66.9138820
  43.5874870  74.1325620  65.6777480  42.9686310  74.5883120  65.1071920
  44.4426650  74.2877080  65.2767180  42.7813120  70.1164610  67.2844520
  42.7121400  69.1754550  67.1233650  43.5432980  70.2066020  67.8567090
  34.9719790  60.7219130  69.6101140  34.7922630  59.8244880  69.8903900
  34.5699870  61.2691000  70.2848090  43.8118290  62.9234990  67.5113450
  44.1883110  62.0506870  67.3987120  43.7137800  63.2593690  66.6203890
  37.9423300  61.2960620  62.9730890  38.0490050  62.1964350  63.2799650
  37.0315660  61.2478590  62.6825540  47.5942410  60.4185430  64.4441790
  48.4152030  59.9282000  64.4867270  47.6276490  61.0083090  65.1973630
  35.5906460  63.2179630  68.2183480  36.2716570  63.4818000  68.8370880
  35.2754510  62.3780500  68.5521490  39.7831030  64.2646990  67.3056070
  40.2909250  64.7627960  67.9461090  40.3144270  63.4882190  67.1295430
  51.8841960  62.4352180  71.0085420  51.1794130  62.8233890  70.4900530
  52.1499880  63.1302470  71.6106350  38.0667130  58.9045550  71.5719490
  38.0685570  59.4217940  70.7665390  37.2371440  58.4275730  71.5489420
  44.4538220  69.0164860  63.0709390  43.8355490  69.4814310  62.5072110
  44.9661470  69.7092340  63.4878900  39.3169980  68.5440730  69.7492990
  38.9839360  69.1709650  70.3914060  39.4936660  69.0702610  68.9694660
  47.8303890  62.3585810  67.2169330  47.1259460  62.6470700  67.7972440
  48.1916050  63.1685920  66.8568890  37.7482460  60.6155510  69.5789940
  38.0899270  61.4597560  69.2843810  36.8098270  60.7639250  69.6955280
  38.5289080  70.5121530  71.5642170  39.1463080  71.1872610  71.2826620
  37.6682200  70.9209510  71.4729670  33.8221420  69.7021390  60.4449020
  33.4449400  70.1908490  59.7133920  34.0794490  70.3746670  61.0755550
  49.4466670  71.9760940  69.4796810  48.7630190  72.6460050  69.4713480
  49.9860960  72.1741590  68.7141670  50.8990810  61.8040600  67.6078540
  49.9515720  61.8379580  67.7393970  51.2240800  62.6179550  67.9927900
  41.4310350  58.1037780  65.9034530  41.7385330  57.5484670  65.1870030
  40.5011050  58.2382240  65.7207520  46.9825410  73.8205070  68.1941990
  46.9952570  73.4167360  67.3264250  46.4300630  74.5952360  68.0903420
  48.2770830  70.5421290  63.2832160  48.1667160  69.5995620  63.4081580
  48.2739080  70.9036930  64.1694920  46.3810850  68.7234910  69.5224600
  46.7979640  68.5095020  68.6878060  47.1050670  68.9807700  70.0933220
  43.8191110  66.1686610  62.6394650  42.8920390  66.1023990  62.8683120
  43.9715930  67.1066740  62.5249890  43.8060190  62.4403610  59.6361810
  42.8663860  62.6017570  59.7214270  44.1243450  63.1589290  59.0897800
  50.3272950  67.1222130  69.6140840  49.4991580  67.1915220  69.1390970
  50.9223430  67.7076440  69.1456670  47.8488400  67.7306910  63.1429900
  47.2300820  67.3926460  62.4956200  47.8312850  67.0866670  63.8509090
  47.2914960  63.9091450  70.5595710  46.8786140  64.7345160  70.8135700
  46.5590910  63.3236490  70.3672070  39.4247750  66.6951350  65.4214380
  39.0204750  65.9828600  64.9260280  39.5110870  66.3504590  66.3102420
  39.8929450  70.3818910  67.5853590  39.5957740  69.7764380  66.9061370
  40.8429270  70.4196220  67.4742950  38.1376370  63.4694560  69.2013420
  38.6890960  63.5789900  68.4266670  38.6519880  63.8432160  69.9168650
  47.9815060  73.9550780  71.2476690  47.5045620  74.7622970  71.0549300
  47.2976850  73.3029110  71.4002900  38.9847880  70.1200600  74.2361390
  38.0876410  70.3440570  74.4834790  39.0100750  70.2435540  73.2872790
  46.0253100  66.9693720  60.1502650  46.4646380  66.1316150  60.0040470
  46.7381520  67.6023120  60.2366790  37.8119100  66.9913920  72.8118760
  37.6726870  67.8636720  73.1806160  36.9300460  66.6486730  72.6666700
  44.1348480  71.9089790  64.1183890  44.5744390  72.6514120  63.7039280
  44.0735370  72.1516360  65.0422850  39.6099450  72.9335620  75.0203910
  39.5814880  73.3378570  74.1532340  39.4464420  72.0045980  74.8575510
  49.6070240  58.2236530  58.4643690  49.2942900  58.3163360  59.3642760
  50.3682710  58.8017560  58.4141120  36.1252380  65.5896330  62.9221030
  36.0049980  66.3158420  62.3102300  35.8153270  64.8199240  62.4448940
  33.7637750  68.7611470  68.7289670  33.8418170  68.8960240  67.7845390
  34.3779430  68.0527360  68.9217790  35.0085380  70.4611660  65.1395850
  34.6013460  70.6026250  64.2849450  35.8998390  70.1771820  64.9367060
  50.9647520  70.9075570  73.4768090  51.0910580  70.6687450  72.5585270
  51.0068900  70.0760110  73.9490170  44.8264260  74.6103570  72.0462900
  45.3408930  74.5211580  72.8485330  43.9833340  74.9563270  72.3390810
  46.8018660  74.8958910  61.4746900  46.6419800  74.6061850  62.3728730
  46.6365370  74.1199040  60.9392130  39.2807040  74.6757440  63.2518520
  39.1049520  73.7592980  63.0386320  38.4262780  75.0344730  63.4916320
  46.5044790  72.4046470  60.0344900  45.8109950  72.4023760  59.3747180
  47.2467650  71.9805790  59.6039070  46.0694720  74.0309180  64.1093390
  46.5251670  73.2498560  64.4232010  46.4087240  74.7416000  64.6534570
  50.8171530  62.9608030  74.4417830  50.2015800  63.4687700  73.9133290
  50.4967950  62.0606360  74.3843770  33.8197270  69.8025640  71.2684130
  33.9828310  69.3331000  70.4503500  34.2849720  69.2949200  71.9332970
  38.5916040  58.9331400  66.3044700  38.1484190  59.7140940  65.9729220
  39.1501030  59.2561290  67.0115640  42.8785850  61.7999920  71.9080020
  42.4165220  62.0082940  72.7199960  42.4763960  60.9859270  71.6050690
  47.8790360  63.0208870  73.0376680  47.0283950  62.7214620  73.3585750
  47.7192150  63.2650880  72.1260500  44.9740070  64.5210620  75.1375470
  45.2993480  63.6874370  74.7977700  45.7620400  65.0439140  75.2853800
  41.7074860  58.5542100  61.1850530  41.0829040  58.5501970  61.9103840
  41.6204980  57.6873060  60.7886500  40.6291940  59.4778730  68.1634300
  40.9264270  60.3841560  68.0826320  41.1777500  58.9897510  67.5493870
  38.3830260  64.0564970  64.0325950  38.1571180  63.8402140  64.9372570
  37.6022790  64.4893430  63.6871920  45.6128020  64.0628340  62.6316600
  45.0136910  64.7864140  62.4480220  46.1607630  64.0005120  61.8493050
  40.8229470  64.9550550  74.6986220  40.7273070  64.0145280  74.5486620
  41.6661450  65.1765620  74.3034290  44.2192890  62.6991880  64.6619880
  44.6122460  63.0164080  63.8488570  44.5809740  61.8203760  64.7764400
  35.9540010  61.3664220  72.8520000  35.5603400  62.2139430  73.0592780
  35.2658410  60.7290590  73.0428640  33.2557060  59.2892680  66.8850080
  32.9670110  59.8595540  67.5975060  34.0002820  58.8097130  67.2481310
  33.4427290  63.2312800  58.0952800  33.3601960  64.1743560  58.2367790
  33.0910350  63.0887710  57.2165150  44.8048030  65.2897630  68.7570660
  44.0729150  65.7984440  69.1060760  44.4072370  64.4727610  68.4559440
  41.2425420  61.9651830  67.1623150  41.2461480  61.5241780  66.3127690
  42.1376540  62.2869160  67.2694970  37.0927800  61.8478320  66.1217360
  36.7527850  62.3253550  66.8784410  36.3305120  61.3943440  65.7618460
  41.3045570  62.9663910  60.1529910  41.4258390  62.9250390  61.1015730
  40.9194080  63.8288060  59.9976640  45.2673940  60.7431310  68.1693600
  45.2846680  61.1939960  69.0135450  45.0189520  59.8436950  68.3827040
  40.3167070  65.2765050  59.5513210  39.7483970  64.8283300  58.9249120
  41.0256070  65.6357830  59.0178360  48.6944690  58.1563490  74.0079980
  49.0190460  57.4253150  74.5337960  48.7301200  57.8377130  73.1060970
  35.3936250  69.1777070  73.4279940  35.0091040  68.5370740  74.0262900
  35.7048440  69.8813190  73.9974670  41.5433390  66.0253610  68.9088560
  41.9103520  65.5512180  69.6549900  41.3538450  66.8995180  69.2496900
  34.4073880  60.7697300  65.0382030  34.1220800  60.4052970  65.8760650
  34.3452740  60.0377760  64.4245170  39.3332760  65.0662250  71.2272770
  39.0289830  65.9454230  71.4523130  40.2879220  65.1262040  71.2630210
  37.8614550  69.2723240  61.8239620  37.0876810  68.7320860  61.6638340
  38.5909180  68.7529850  61.4857380  48.6202530  68.2688600  67.6166010
  49.3401650  68.7643890  67.2262120  48.4184350  67.5906490  66.9719880
  44.0812470  59.6626560  61.7595400  43.2677080  59.1639730  61.6840710
  43.8874420  60.5024810  61.3431750  44.0021330  68.3397660  73.5035010
  43.9358640  67.4193330  73.2492600  43.3726470  68.4373100  74.2179650
  46.7960860  64.0346210  60.0557560  47.6840480  64.3463440  59.8808900
  46.7665950  63.1618460  59.6638140  37.9051950  68.9403620  65.4618430
  38.4230620  68.1371880  65.4075320  37.4535970  68.8782760  66.3035260
  42.7921450  70.2069900  60.7345730  43.1337150  70.9512130  60.2389050
  41.9634160  70.5201020  61.0970560  35.3896490  65.9064990  72.3744130
  35.0311430  66.5718840  72.9617470  35.0951050  65.0748540  72.7456750
  38.5909610  66.3649230  75.2583680  38.2909750  66.5106410  74.3611500
  39.3620850  65.8054520  75.1657070  43.9338060  71.1618230  73.2538810
  43.9482600  70.2299190  73.0357720  43.2263160  71.2477990  73.8928580
  49.0675130  65.3458050  59.5237420  48.9838850  65.7772270  58.6733860
  49.7869320  65.8056400  59.9564240  50.1449270  67.8025570  72.6007390
  49.4197460  68.3954350  72.4036780  50.6724730  67.7949110  71.8020760
  50.0962380  72.2000310  62.2519550  49.4538540  71.5455930  62.5263270
  49.7093040  72.6055400  61.4760220  45.6748860  69.5285740  66.0991240
  46.0272680  68.9313870  65.4392610  44.7911190  69.2029970  66.2699490
  41.7612140  70.2883430  63.5061650  42.4483270  70.8352640  63.8869240
  40.9744560  70.8324160  63.5411260  33.9004540  65.9056250  58.9978730
  34.7699390  66.1881050  59.2814650  33.4094860  66.7192120  58.8827540
  41.0639350  67.2929460  63.1187010  41.5202130  68.1034710  63.3447200
  40.7127560  66.9752600  63.9505500  43.3671960  72.8035800  70.3479310
  44.0114180  73.0095180  71.0252730  43.7301400  72.0424200  69.8950160
  36.9651130  57.6367110  63.5909530  36.8365760  57.6285010  64.5394450
  36.1413150  57.9750200  63.2400540  44.6404040  70.8068150  69.0656760
  45.2826270  70.1061310  69.1788930  45.1653390  71.5866590  68.8853650
  48.4859760  71.0916770  58.7895900  48.2597340  70.3747210  59.3820540
  48.0955960  70.8429210  57.9517650  46.4141660  71.6063050  72.2692820
  46.7497900  72.1929740  72.9470740  45.4942000  71.4755760  72.4990610
  34.2675790  75.1183630  59.5640360  34.6273430  75.7172970  58.9097630
  34.1268130  75.6643520  60.3375390  33.9645060  59.3958230  73.0516230
  33.2503580  59.5955150  73.6568840  34.3840100  58.6197800  73.4231030
  48.0676010  69.0088710  60.4510060  47.7797710  69.4701400  61.2387940
  48.8628180  68.5486480  60.7194280  34.2517650  73.3838490  74.0382760
  34.3608770  72.4433230  73.8978150  33.5998210  73.6493240  73.3896490
  42.2430240  71.6554380  75.4380880  41.9227110  70.9363620  75.9826570
  41.5688600  72.3309450  75.5116940  40.2844410  72.5014830  60.3814030
  40.2754510  73.2344520  59.7658540  39.3642770  72.2546410  60.4740990
  35.8851050  67.7229720  61.1260790  35.2779000  68.4628620  61.1356090
  36.3600400  67.8129080  60.2998990  45.4583840  61.8880540  70.8017680
  45.8264660  61.0675750  71.1297250  44.5982040  61.9482430  71.2173330
  48.8245870  60.8437480  61.6105240  48.1959030  60.9483150  60.8963470
  48.3297790  61.0634260  62.3999120  43.2704010  72.5643070  59.0439220
  43.3715990  72.3607060  58.1141200  42.3705750  72.3101350  59.2487000
  40.7929900  63.1223430  63.0263120  40.0846050  63.5909770  63.4676730
  41.0774380  62.4645440  63.6608310  42.4185830  64.5420130  71.0255650
  42.9171080  65.0165950  71.6907500  42.5608780  63.6183650  71.2325680
  44.8245330  59.8474090  64.4658910  44.7013110  59.8660220  63.5168420
  45.7729890  59.8953030  64.5857310  41.9122120  75.0829390  63.7386890
  42.1663620  75.0450780  62.8166260  40.9634600  74.9562720  63.7315140
  38.9964920  61.4308510  60.4013830  39.8455450  61.8678660  60.3354020
  38.6296190  61.7428770  61.2285890  49.6252690  60.7588090  71.8684040
  49.1226290  61.4993490  72.2077850  50.4409350  61.1472090  71.5520830
  47.9174700  66.0021270  65.3145400  46.9764840  66.0171500  65.4893090
  48.2318770  65.2157230  65.7605700  37.8956340  67.6840870  58.8749360
  38.6619610  67.5722230  59.4374790  37.9731030  66.9878840  58.2226130
  36.5903100  65.1165940  59.5582250  36.6706690  64.1693450  59.6699650
  37.4822850  65.4472820  59.6642910  49.9200280  73.1730120  66.9899660
  50.0447700  73.9961290  67.4623470  50.7865840  72.9620850  66.6423810
  37.3917810  75.2661330  66.6616790  38.1280290  74.7176790  66.9325360
  37.7758730  76.1317340  66.5222780  34.2763290  71.3334900  62.5358300
  33.3503070  71.5756040  62.5263710  34.7419720  72.1609160  62.4143050
  40.5020120  74.4391640  58.4842360  41.2948730  74.7280470  58.0324150
  39.9824470  74.0083810  57.8054840  46.6641090  74.2867560  74.4087190
  47.6162840  74.2025580  74.3587430  46.5169310  74.9509270  75.0820980
  49.5550290  73.6661770  59.9079100  49.2691800  73.2526910  59.0933280
  49.3569840  74.5949480  59.7879620  34.1173900  66.9380860  74.7938420
  34.6212920  66.3588140  75.3654650  33.3781320  67.2221090  75.3314790
  41.0197520  69.6595050  58.3484710  40.9148160  69.0447400  59.0746090
  40.8521740  69.1360940  57.5647720  41.1711840  68.3451850  74.3273940
  40.4057510  68.9136850  74.2428610  41.3527800  68.0528060  73.4342170
  44.2600250  68.7215080  58.9526700  43.7110350  69.1684380  59.5969440
  44.8819510  68.2164330  59.4764370  48.3135190  70.0757180  74.8848960
  49.0544660  70.4132940  74.3816420  47.5507870  70.2449240  74.3318730
  39.9275370  67.6806000  60.8492000  40.3491790  67.5145870  61.6923390
  40.0526210  66.8706230  60.3547140  38.0902790  63.6602550  73.6562980
  37.5599250  63.1693500  73.0286320  38.7590860  64.0886750  73.1220910
  42.4403010  66.7043610  58.0969100  42.9608670  65.9892630  57.7310250
  43.0871410  67.3429480  58.3969610  46.9880850  68.1272010  73.4204170
  47.4021870  68.2817090  74.2694590  46.0531850  68.2527230  73.5829950
  47.4603020  65.4668170  75.4243320  48.0423790  64.7120490  75.3363800
  47.6364790  65.9975610  74.6474800  38.5775090  60.6264920  73.7360270
  38.4831960  60.0085670  73.0111140  37.9972480  61.3531210  73.5090180
  41.3436530  59.1838160  70.7687660  40.8953830  59.2062420  69.9233210
  40.7101730  58.7857180  71.3657960  41.7496080  68.0792490  71.3900100
  42.1684190  68.9225220  71.2176340  40.8304710  68.2164530  71.1606880
  44.0859980  65.8108670  72.7737940  44.2056190  65.2149810  73.5132780
  44.9453980  65.8478360  72.3539240  46.4247880  66.3645860  71.3500450
  45.8983100  66.8888480  70.7465590  46.7679220  66.9973250  71.9810180
  38.8234270  63.7539230  57.7950160  38.6223330  62.8906590  58.1563500
  38.6526320  63.6672590  56.8571760  39.6003500  74.3845500  72.5057830
  39.0624590  75.1091560  72.1866530  39.8537460  73.9075840  71.7155170
  40.8528750  62.3530020  74.0313760  41.4428440  62.0445870  74.7191580
  40.0348990  61.8809770  74.1873660  45.6722180  61.9695830  74.2646780
  44.9837700  61.3077370  74.1996770  46.3928200  61.5234100  74.7095240
  46.3022580  58.5647460  60.3237040  46.5824870  57.7215360  60.6796460
  45.5288310  58.7970570  60.8375790  37.6217070  60.8539850  57.7828040
  37.9242970  60.8607280  56.8747190  38.3611660  60.5037710  58.2795700
  42.4565710  75.6196710  72.7644480  42.3824410  76.5231850  73.0716850
  41.5544550  75.3008610  72.7366550  40.8402000  59.7974470  58.7684240
  40.4924000  59.1198460  58.1886690  41.0414770  59.3363980  59.5827630
  43.0051040  74.7855220  60.3870840  43.9001830  75.1240190  60.4089600
  43.0368670  74.0634630  59.7595120  36.6447200  70.1582270  58.6157840
  37.0822070  70.7011940  59.2715420  37.1294930  69.3329220  58.6254180
  33.8593000  72.9471300  66.0678100  34.1896010  72.0792360  65.8356740
  34.2884000  73.1529820  66.8983060  38.4554920  71.2780310  63.7280070
  38.1550460  71.1545280  64.6283980  38.3492410  70.4188900  63.3195800
  34.3483210  73.8141890  68.8059730  33.9114200  73.9942690  69.6383880
  34.9160890  74.5716510  68.6641450  49.9845390  73.3158890  73.0937040
  49.3847380  73.3751450  72.3500960  50.1139290  72.3763870  73.2233890
  51.2246840  71.0576710  58.4306750  50.3939800  71.1253360  58.9013980
  51.4018670  71.9480830  58.1273610  50.6803300  67.8024190  60.9340950
  51.4422210  68.3720840  61.0400640  50.6957670  67.2351390  61.7049260
  34.1807640  66.3262120  65.1648610  33.5256480  66.0573760  64.5208310
  35.0185590  66.2166600  64.7150590  51.6863270  68.6574290  65.7782880
  52.0572100  67.8741610  65.3718850  52.3265200  69.3463390  65.6000180
  48.6697030  70.0410870  71.1913200  47.8556870  70.4708030  71.4538990
  49.0771230  70.6529280  70.5782250  50.7322470  68.0958560  58.0913470
  51.0071310  69.0037440  57.9632690  50.5433210  68.0321090  59.0275460
  47.1298080  61.1203410  59.3867100  47.5482960  60.9334390  58.5463760
  46.8234140  60.2682460  59.6970030  50.6287810  66.0327550  63.0842900
  50.2531410  65.2655480  62.6524190  49.8990930  66.4150250  63.5717830
  35.2183570  66.7114690  69.7051950  35.5856610  66.6242090  70.5847970
  34.6494390  65.9481240  69.6058810  50.0187430  65.1799070  72.7182420
  49.7873520  64.9511820  71.8180370  50.2791980  66.0998620  72.6727310
  34.7699570  63.6223780  73.6110370  33.8755620  63.5890540  73.9504080
  35.3097120  63.8210570  74.3761620  48.4575500  60.4055500  75.4962120
  49.3345680  60.4138900  75.8796120  48.4696340  59.6686340  74.8854470
  33.3945720  63.5361050  61.1073940  32.4909800  63.7991250  60.9325600
  33.8786340  63.8072220  60.3273900  49.9038770  64.2585040  66.3850140
  50.4276250  63.7647690  65.7540310  50.4898190  64.3935400  67.1297710
  50.0828490  64.3424910  69.9069690  49.1331200  64.3088450  70.0214680
  50.2641500  65.2525020  69.6719460  35.9372930  62.5926590  59.0168320
  36.6464630  62.1709810  58.5315600  35.2212870  62.6601820  58.3851670
  35.5847090  58.6465920  58.0570970  36.3075220  59.1874860  58.3752190
  35.8571610  58.3729340  57.1812510  49.3938740  63.5158390  62.3242550
  49.8897860  63.2829260  63.1091430  49.1954810  62.6770230  61.9080190
  35.2739280  57.8972110  67.9593590  35.9215470  57.3469490  67.5188750
  35.6941120  58.1515260  68.7809400  50.8225900  62.1519340  64.8580230
  50.7125180  61.9975380  65.7962500  51.5833490  61.6240280  64.6155640
  49.1691620  58.0913470  71.3163230  49.8063840  58.7047610  71.6822420
  49.3166510  58.1274130  70.3712460  51.7116170  59.9827260  58.0986370
  52.6365480  59.8508440  57.8904660  51.6891960  60.0620080  59.0522820
  51.7854660  60.7537920  60.7243080  50.9906160  60.6883040  61.2535990
  51.9897940  61.6888560  60.7128430  48.7273080  74.7929470  64.7181470
  49.3232150  74.4714040  64.0415890  48.9851230  74.3201290  65.5094740
  35.0271280  58.0527780  70.7018910  34.6786100  58.5091600  71.4677090
  34.6958980  57.1584910  70.7841340  36.6335650  71.2247380  74.8672100
  36.5905280  70.8540290  75.7486560  36.7646660  72.1624950  75.0073920
  40.3341680  72.7806970  70.4681820  40.0933040  73.0481530  69.5812340
  41.2744320  72.9512700  70.5232680  42.5396100  59.2439660  74.2238330
  42.4784990  59.8361490  74.9733740  43.4796480  59.1365620  74.0788590
  45.1770660  58.9009720  73.8630620  45.7911070  59.2189010  73.2011700
  45.7220220  58.4158310  74.4826480  51.5945840  74.8001350  71.2692460
  51.1004120  75.1970220  70.5519590  50.9859130  74.1750560  71.6629740
  35.6991920  57.5803980  73.9769680  36.2474910  57.3992030  73.2135790
  35.7647230  56.7898090  74.5125990  36.4723680  74.1709630  71.9869880
  35.8784000  74.0394330  72.7259920  36.4647520  73.3347770  71.5211980
  45.9178700  57.4641860  70.1899910  45.0438540  57.7976970  69.9872840
  45.8089450  56.9915040  71.0151780  46.8250680  59.6712730  71.5741630
  46.4964040  58.8564490  71.1943360  47.7732980  59.6282540  71.4507320
  49.2785290  75.4424770  68.5479200  48.8188260  76.1940580  68.1737220
  48.6497750  74.7231240  68.4894000  36.1035910  71.5368010  70.9377920
  35.3769970  70.9173300  70.8703870  36.1645060  71.9308620  70.0676000
  39.7081010  73.7513010  67.7227330  40.2246030  73.1400370  67.1975590
  40.3578390  74.2541790  68.2138340  42.4476510  74.6421500  68.5496310
  42.7354320  74.3875800  67.6729320  42.9599730  74.0898860  69.1401880
  43.6653520  58.3811700  69.1292820  42.8825310  58.8557200  69.4089580
  43.3716450  57.4766530  69.0206000  48.2174590  59.0834800  67.1741910
  48.6582680  59.0279900  66.3263510  47.9482180  59.9992810  67.2452090
  50.0813160  58.7150040  65.1850730  50.0201560  57.7711260  65.0381750
  50.8605190  58.8230130  65.7304190  34.3865910  74.8542400  64.1474680
  34.2187950  74.2213080  64.8456570  33.5200420  75.0601800  63.7968870
  35.0093930  58.6859180  61.6506540  35.7673290  58.7988060  61.0770570
  34.5471100  59.5228380  61.6049970  41.5507740  60.7998450  64.6408850
  40.7382250  60.4255340  64.3004730  42.0549380  60.0443530  64.9430040
  46.0532720  57.4640900  65.8791920  46.6562090  58.0361110  66.3540440
  45.3125710  58.0280340  65.6565820  49.1967320  57.8662460  61.1532200
  49.3917950  58.7645910  61.4199630  48.4097190  57.6349540  61.6465150
  35.9928610  73.5475630  61.5924820  35.4676230  73.9283660  60.8886780
  35.9173190  74.1726400  62.3134530  37.3819080  59.2123230  60.1908510
  37.9111840  58.4253030  60.0616460  38.0147400  59.8914420  60.4244040
  39.5756920  58.9498370  63.2453900  38.9459660  58.2485680  63.4124030
  39.0362060  59.7102500  63.0287060  42.5148870  75.5637600  75.9164510
  43.4416180  75.3281870  75.9600470  42.4999300  76.3909600  75.4350540
  50.7493930  75.1063170  62.9138760  50.9246120  74.4200910  62.2699680
  50.0515500  75.6310220  62.5215430  39.7012480  58.2282350  75.6806390
  39.4196750  58.7315950  74.9167210  40.0832180  57.4304100  75.3148520
  38.5921580  75.4958010  60.4674070  39.3240400  75.2117290  59.9197960
  38.8515250  75.2571290  61.3573450  37.7536370  71.6122740  60.4720400
  37.1245250  72.0807840  61.0206230  37.8684200  70.7671960  60.9066590
  43.3404130  67.4407420  48.5030870  42.5646230  66.9607860  48.7929440
  43.9917060  66.7613070  48.3287030  37.3569960  67.7527230  49.3806630
  36.5254840  67.4975940  49.7803140  37.9650940  67.8238000  50.1164550
  47.3611560  71.8467610  47.2830000  46.8993090  71.0754850  47.6117170
  48.1737110  71.8733680  47.7882450  37.3371220  71.7867320  49.5764650
  37.6399260  70.8965060  49.3974870  38.0814810  72.3437540  49.3486900
  33.7294920  65.3134770  49.0488720  34.3011030  64.5456970  49.0492360
  33.7296460  65.6123530  48.1395330  43.5874870  74.1325620  46.9033990
  42.9686310  74.5883120  46.3328430  44.4426650  74.2877080  46.5023690
  42.7813120  70.1164610  48.5101030  42.7121400  69.1754550  48.3490160
  43.5432980  70.2066020  49.0823600  34.9719790  60.7219130  50.8357650
  34.7922630  59.8244880  51.1160410  34.5699870  61.2691000  51.5104600
  43.8118290  62.9234990  48.7369960  44.1883110  62.0506870  48.6243630
  43.7137800  63.2593690  47.8460400  37.9423300  61.2960620  44.1987400
  38.0490050  62.1964350  44.5056160  37.0315660  61.2478590  43.9082050
  47.5942410  60.4185430  45.6698300  48.4152030  59.9282000  45.7123780
  47.6276490  61.0083090  46.4230140  35.5906460  63.2179630  49.4439990
  36.2716570  63.4818000  50.0627390  35.2754510  62.3780500  49.7778000
  39.7831030  64.2646990  48.5312580  40.2909250  64.7627960  49.1717600
  40.3144270  63.4882190  48.3551940  38.0667130  58.9045550  52.7976000
  38.0685570  59.4217940  51.9921900  37.2371440  58.4275730  52.7745930
  44.4538220  69.0164860  44.2965900  43.8355490  69.4814310  43.7328620
  44.9661470  69.7092340  44.7135410  39.3169980  68.5440730  50.9749500
  38.9839360  69.1709650  51.6170570  39.4936660  69.0702610  50.1951170
  47.8303890  62.3585810  48.4425840  47.1259460  62.6470700  49.0228950
  48.1916050  63.1685920  48.0825400  37.7482460  60.6155510  50.8046450
  38.0899270  61.4597560  50.5100320  36.8098270  60.7639250  50.9211790
  38.5289080  70.5121530  52.7898680  39.1463080  71.1872610  52.5083130
  37.6682200  70.9209510  52.6986180  33.8221420  69.7021390  41.6705530
  33.4449400  70.1908490  40.9390430  34.0794490  70.3746670  42.3012060
  49.4466670  71.9760940  50.7053320  48.7630190  72.6460050  50.6969990
  49.9860960  72.1741590  49.9398180  41.4310350  58.1037780  47.1291040
  41.7385330  57.5484670  46.4126540  40.5011050  58.2382240  46.9464030
  46.9825410  73.8205070  49.4198500  46.9952570  73.4167360  48.5520760
  46.4300630  74.5952360  49.3159930  46.3810850  68.7234910  50.7481110
  46.7979640  68.5095020  49.9134570  47.1050670  68.9807700  51.3189730
  43.8060190  62.4403610  40.8618320  42.8663860  62.6017570  40.9470780
  44.1243450  63.1589290  40.3154310  47.2914960  63.9091450  51.7852220
  46.8786140  64.7345160  52.0392210  46.5590910  63.3236490  51.5928580
  39.4247750  66.6951350  46.6470890  39.0204750  65.9828600  46.1516790
  39.5110870  66.3504590  47.5358930  39.8929450  70.3818910  48.8110100
  39.5957740  69.7764380  48.1317880  40.8429270  70.4196220  48.6999460
  38.1376370  63.4694560  50.4269930  38.6890960  63.5789900  49.6523180
  38.6519880  63.8432160  51.1425160  47.9815060  73.9550780  52.4733200
  47.5045620  74.7622970  52.2805810  47.2976850  73.3029110  52.6259410
  38.9847880  70.1200600  55.4617900  38.0876410  70.3440570  55.7091300
  39.0100750  70.2435540  54.5129300  37.8119100  66.9913920  54.0375270
  37.6726870  67.8636720  54.4062670  36.9300460  66.6486730  53.8923210
  44.1348480  71.9089790  45.3440400  44.5744390  72.6514120  44.9295790
  44.0735370  72.1516360  46.2679360  39.6099450  72.9335620  56.2460420
  39.5814880  73.3378570  55.3788850  39.4464420  72.0045980  56.0832020
  36.1252380  65.5896330  44.1477540  36.0049980  66.3158420  43.5358810
  35.8153270  64.8199240  43.6705450  51.5614270  73.7162720  57.5424590
  52.0373990  74.1945610  58.2213670  52.1821430  73.6480210  56.8170090
  33.7637750  68.7611470  49.9546180  33.8418170  68.8960240  49.0101900
  34.3779430  68.0527360  50.1474300  35.0085380  70.4611660  46.3652360
  34.6013460  70.6026250  45.5105960  35.8998390  70.1771820  46.1623570
  50.9647520  70.9075570  54.7024600  51.0910580  70.6687450  53.7841780
  51.0068900  70.0760110  55.1746680  44.8264260  74.6103570  53.2719410
  45.3408930  74.5211580  54.0741840  43.9833340  74.9563270  53.5647320
  46.8018660  74.8958910  42.7003410  46.6419800  74.6061850  43.5985240
  46.6365370  74.1199040  42.1648640  39.2807040  74.6757440  44.4775030
  39.1049520  73.7592980  44.2642830  38.4262780  75.0344730  44.7172830
  46.5044790  72.4046470  41.2601410  45.8109950  72.4023760  40.6003690
  47.2467650  71.9805790  40.8295580  46.0694720  74.0309180  45.3349900
  46.5251670  73.2498560  45.6488520  46.4087240  74.7416000  45.8791080
  50.8171530  62.9608030  55.6674340  50.2015800  63.4687700  55.1389800
  50.4967950  62.0606360  55.6100280  33.8197270  69.8025640  52.4940640
  33.9828310  69.3331000  51.6760010  34.2849720  69.2949200  53.1589480
  38.5916040  58.9331400  47.5301210  38.1484190  59.7140940  47.1985730
  39.1501030  59.2561290  48.2372150  42.8785850  61.7999920  53.1336530
  42.4165220  62.0082940  53.9456470  42.4763960  60.9859270  52.8307200
  47.8790360  63.0208870  54.2633190  47.0283950  62.7214620  54.5842260
  47.7192150  63.2650880  53.3517010  44.9740070  64.5210620  56.3631980
  45.2993480  63.6874370  56.0234210  45.7620400  65.0439140  56.5110310
  40.6291940  59.4778730  49.3890810  40.9264270  60.3841560  49.3082830
  41.1777500  58.9897510  48.7750380  38.3830260  64.0564970  45.2582460
  38.1571180  63.8402140  46.1629080  37.6022790  64.4893430  44.9128430
  40.8229470  64.9550550  55.9242730  40.7273070  64.0145280  55.7743130
  41.6661450  65.1765620  55.5290800  44.2192890  62.6991880  45.8876390
  44.6122460  63.0164080  45.0745080  44.5809740  61.8203760  46.0020910
  35.9540010  61.3664220  54.0776510  35.5603400  62.2139430  54.2849290
  35.2658410  60.7290590  54.2685150  42.5285060  61.4499190  57.1473250
  41.8383380  61.2571390  57.7819340  43.2717360  61.7333830  57.6797550
  33.2557060  59.2892680  48.1106590  32.9670110  59.8595540  48.8231570
  34.0002820  58.8097130  48.4737820  44.8048030  65.2897630  49.9827170
  44.0729150  65.7984440  50.3317270  44.4072370  64.4727610  49.6815950
  41.2425420  61.9651830  48.3879660  41.2461480  61.5241780  47.5384200
  42.1376540  62.2869160  48.4951480  37.0927800  61.8478320  47.3473870
  36.7527850  62.3253550  48.1040920  36.3305120  61.3943440  46.9874970
  41.3045570  62.9663910  41.3786420  41.4258390  62.9250390  42.3272240
  40.9194080  63.8288060  41.2233150  45.2673940  60.7431310  49.3950110
  45.2846680  61.1939960  50.2391960  45.0189520  59.8436950  49.6083550
  40.3167070  65.2765050  40.7769720  39.7483970  64.8283300  40.1505630
  41.0256070  65.6357830  40.2434870  48.6944690  58.1563490  55.2336490
  49.0190460  57.4253150  55.7594470  48.7301200  57.8377130  54.3317480
  35.3936250  69.1777070  54.6536450  35.0091040  68.5370740  55.2519410
  35.7048440  69.8813190  55.2231180  41.5433390  66.0253610  50.1345070
  41.9103520  65.5512180  50.8806410  41.3538450  66.8995180  50.4753410
  34.4073880  60.7697300  46.2638540  34.1220800  60.4052970  47.1017160
  34.3452740  60.0377760  45.6501680  39.3332760  65.0662250  52.4529280
  39.0289830  65.9454230  52.6779640  40.2879220  65.1262040  52.4886720
  37.8614550  69.2723240  43.0496130  37.0876810  68.7320860  42.8894850
  38.5909180  68.7529850  42.7113890  44.0021330  68.3397660  54.7291520
  43.9358640  67.4193330  54.4749110  43.3726470  68.4373100  55.4436160
  37.9051950  68.9403620  46.6874940  38.4230620  68.1371880  46.6331830
  37.4535970  68.8782760  47.5291770  42.7921450  70.2069900  41.9602240
  43.1337150  70.9512130  41.4645560  41.9634160  70.5201020  42.3227070
  35.3896490  65.9064990  53.6000640  35.0311430  66.5718840  54.1873980
  35.0951050  65.0748540  53.9713260  38.5909610  66.3649230  56.4840190
  38.2909750  66.5106410  55.5868010  39.3620850  65.8054520  56.3913580
  43.9338060  71.1618230  54.4795320  43.9482600  70.2299190  54.2614230
  43.2263160  71.2477990  55.1185090  50.1449270  67.8025570  53.8263900
  49.4197460  68.3954350  53.6293290  50.6724730  67.7949110  53.0277270
  45.6748860  69.5285740  47.3247750  46.0272680  68.9313870  46.6649120
  44.7911190  69.2029970  47.4956000  41.7612140  70.2883430  44.7318160
  42.4483270  70.8352640  45.1125750  40.9744560  70.8324160  44.7667770
  41.0639350  67.2929460  44.3443520  41.5202130  68.1034710  44.5703710
  40.7127560  66.9752600  45.1762010  43.3671960  72.8035800  51.5735820
  44.0114180  73.0095180  52.2509240  43.7301400  72.0424200  51.1206670
  36.9651130  57.6367110  44.8166040  36.8365760  57.6285010  45.7650960
  36.1413150  57.9750200  44.4657050  44.6404040  70.8068150  50.2913270
  45.2826270  70.1061310  50.4045440  45.1653390  71.5866590  50.1110160
  48.4859760  71.0916770  40.0152410  48.2597340  70.3747210  40.6077050
  48.0955960  70.8429210  39.1774160  46.4141660  71.6063050  53.4949330
  46.7497900  72.1929740  54.1727250  45.4942000  71.4755760  53.7247120
  34.2675790  75.1183630  40.7896870  34.6273430  75.7172970  40.1354140
  34.1268130  75.6643520  41.5631900  33.9645060  59.3958230  54.2772740
  33.2503580  59.5955150  54.8825350  34.3840100  58.6197800  54.6487540
  34.2517650  73.3838490  55.2639270  34.3608770  72.4433230  55.1234660
  33.5998210  73.6493240  54.6153000  42.2430240  71.6554380  56.6637390
  41.9227110  70.9363620  57.2083080  41.5688600  72.3309450  56.7373450
  40.2844410  72.5014830  41.6070540  40.2754510  73.2344520  40.9915050
  39.3642770  72.2546410  41.6997500  35.8851050  67.7229720  42.3517300
  35.2779000  68.4628620  42.3612600  36.3600400  67.8129080  41.5255500
  45.4583840  61.8880540  52.0274190  45.8264660  61.0675750  52.3553760
  44.5982040  61.9482430  52.4429840  48.8245870  60.8437480  42.8361750
  48.1959030  60.9483150  42.1219980  48.3297790  61.0634260  43.6255630
  43.2704010  72.5643070  40.2695730  43.3715990  72.3607060  39.3397710
  42.3705750  72.3101350  40.4743510  40.7929900  63.1223430  44.2519630
  40.0846050  63.5909770  44.6933240  41.0774380  62.4645440  44.8864820
  42.4185830  64.5420130  52.2512160  42.9171080  65.0165950  52.9164010
  42.5608780  63.6183650  52.4582190  41.9122120  75.0829390  44.9643400
  42.1663620  75.0450780  44.0422770  40.9634600  74.9562720  44.9571650
  38.9964920  61.4308510  41.6270340  39.8455450  61.8678660  41.5610530
  38.6296190  61.7428770  42.4542400  49.6252690  60.7588090  53.0940550
  49.1226290  61.4993490  53.4334360  50.4409350  61.1472090  52.7777340
  37.8956340  67.6840870  40.1005870  38.6619610  67.5722230  40.6631300
  37.9731030  66.9878840  39.4482640  49.9200280  73.1730120  48.2156170
  50.0447700  73.9961290  48.6879980  50.7865840  72.9620850  47.8680320
  37.3917810  75.2661330  47.8873300  38.1280290  74.7176790  48.1581870
  37.7758730  76.1317340  47.7479290  34.2763290  71.3334900  43.7614810
  33.3503070  71.5756040  43.7520220  34.7419720  72.1609160  43.6399560
  36.3976090  74.4507400  57.0758880  37.1988820  74.7719450  57.4894280
  35.8827910  74.0902980  57.7978790  40.5020120  74.4391640  39.7098870
  41.2948730  74.7280470  39.2580660  39.9824470  74.0083810  39.0311350
  45.2340720  70.5587270  57.0234290  44.6278880  70.5818870  56.2830040
  44.9294830  69.8270310  57.5601540  46.6641090  74.2867560  55.6343700
  47.6162840  74.2025580  55.5843940  46.5169310  74.9509270  56.3077490
  34.1173900  66.9380860  56.0194930  34.6212920  66.3588140  56.5911160
  33.3781320  67.2221090  56.5571300  41.1711840  68.3451850  55.5530450
  40.4057510  68.9136850  55.4685120  41.3527800  68.0528060  54.6598680
  48.3135190  70.0757180  56.1105470  49.0544660  70.4132940  55.6072930
  47.5507870  70.2449240  55.5575240  36.1496980  65.0810450  56.9145000
  36.1902320  64.7824320  57.8230230  37.0042480  65.4818060  56.7552520
  39.9275370  67.6806000  42.0748510  40.3491790  67.5145870  42.9179900
  40.0526210  66.8706230  41.5803650  38.0902790  63.6602550  54.8819490
  37.5599250  63.1693500  54.2542830  38.7590860  64.0886750  54.3477420
  46.9880850  68.1272010  54.6460680  47.4021870  68.2817090  55.4951100
  46.0531850  68.2527230  54.8086460  47.4603020  65.4668170  56.6499830
  48.0423790  64.7120490  56.5620310  47.6364790  65.9975610  55.8731310
  38.5775090  60.6264920  54.9616780  38.4831960  60.0085670  54.2367650
  37.9972480  61.3531210  54.7346690  41.3436530  59.1838160  51.9944170
  40.8953830  59.2062420  51.1489720  40.7101730  58.7857180  52.5914470
  41.7496080  68.0792490  52.6156610  42.1684190  68.9225220  52.4432850
  40.8304710  68.2164530  52.3863390  44.0859980  65.8108670  53.9994450
  44.2056190  65.2149810  54.7389290  44.9453980  65.8478360  53.5795750
  46.4247880  66.3645860  52.5756960  45.8983100  66.8888480  51.9722100
  46.7679220  66.9973250  53.2066690  38.8234270  63.7539230  39.0206670
  38.6223330  62.8906590  39.3820010  38.6526320  63.6672590  38.0828270
  39.6003500  74.3845500  53.7314340  39.0624590  75.1091560  53.4123040
  39.8537460  73.9075840  52.9411680  40.8528750  62.3530020  55.2570270
  41.4428440  62.0445870  55.9448090  40.0348990  61.8809770  55.4130170
  45.6722180  61.9695830  55.4903290  44.9837700  61.3077370  55.4253280
  46.3928200  61.5234100  55.9351750  37.6217070  60.8539850  39.0084550
  37.9242970  60.8607280  38.1003700  38.3611660  60.5037710  39.5052210
  42.4565710  75.6196710  53.9900990  42.3824410  76.5231850  54.2973360
  41.5544550  75.3008610  53.9623060  40.8402000  59.7974470  39.9940750
  40.4924000  59.1198460  39.4143200  41.0414770  59.3363980  40.8084140
  43.0051040  74.7855220  41.6127350  43.9001830  75.1240190  41.6346110
  43.0368670  74.0634630  40.9851630  36.6447200  70.1582270  39.8414350
  37.0822070  70.7011940  40.4971930  37.1294930  69.3329220  39.8510690
  33.8593000  72.9471300  47.2934610  34.1896010  72.0792360  47.0613250
  34.2884000  73.1529820  48.1239570  38.4554920  71.2780310  44.9536580
  38.1550460  71.1545280  45.8540490  38.3492410  70.4188900  44.5452310
  34.3483210  73.8141890  50.0316240  33.9114200  73.9942690  50.8640390
  34.9160890  74.5716510  49.8897960  49.9845390  73.3158890  54.3193550
  49.3847380  73.3751450  53.5757470  50.1139290  72.3763870  54.4490400
  34.1807640  66.3262120  46.3905120  33.5256480  66.0573760  45.7464820
  35.0185590  66.2166600  45.9407100  48.6697030  70.0410870  52.4169710
  47.8556870  70.4708030  52.6795500  49.0771230  70.6529280  51.8038760
  35.2183570  66.7114690  50.9308460  35.5856610  66.6242090  51.8104480
  34.6494390  65.9481240  50.8315320  50.0187430  65.1799070  53.9438930
  49.7873520  64.9511820  53.0436880  50.2791980  66.0998620  53.8983820
  34.7699570  63.6223780  54.8366880  33.8755620  63.5890540  55.1760590
  35.3097120  63.8210570  55.6018130  48.4575500  60.4055500  56.7218630
  49.3345680  60.4138900  57.1052630  48.4696340  59.6686340  56.1110980
  35.2739280  57.8972110  49.1850100  35.9215470  57.3469490  48.7445260
  35.6941120  58.1515260  50.0065910  49.1691620  58.0913470  52.5419740
  49.8063840  58.7047610  52.9078930  49.3166510  58.1274130  51.5968970
  48.7273080  74.7929470  45.9437980  49.3232150  74.4714040  45.2672400
  48.9851230  74.3201290  46.7351250  35.0271280  58.0527780  51.9275420
  34.6786100  58.5091600  52.6933600  34.6958980  57.1584910  52.0097850
  36.6335650  71.2247380  56.0928610  36.5905280  70.8540290  56.9743070
  36.7646660  72.1624950  56.2330430  40.3341680  72.7806970  51.6938330
  40.0933040  73.0481530  50.8068850  41.2744320  72.9512700  51.7489190
  42.5396100  59.2439660  55.4494840  42.4784990  59.8361490  56.1990250
  43.4796480  59.1365620  55.3045100  45.1770660  58.9009720  55.0887130
  45.7911070  59.2189010  54.4268210  45.7220220  58.4158310  55.7082990
  51.5945840  74.8001350  52.4948970  51.1004120  75.1970220  51.7776100
  50.9859130  74.1750560  52.8886250  35.6991920  57.5803980  55.2026190
  36.2474910  57.3992030  54.4392300  35.7647230  56.7898090  55.7382500
  36.4723680  74.1709630  53.2126390  35.8784000  74.0394330  53.9516430
  36.4647520  73.3347770  52.7468490  45.9178700  57.4641860  51.4156420
  45.0438540  57.7976970  51.2129350  45.8089450  56.9915040  52.2408290
  46.8250680  59.6712730  52.7998140  46.4964040  58.8564490  52.4199870
  47.7732980  59.6282540  52.6763830  49.2785290  75.4424770  49.7735710
  48.8188260  76.1940580  49.3993730  48.6497750  74.7231240  49.7150510
  36.1035910  71.5368010  52.1634430  35.3769970  70.9173300  52.0960380
  36.1645060  71.9308620  51.2932510  39.7081010  73.7513010  48.9483840
  40.2246030  73.1400370  48.4232100  40.3578390  74.2541790  49.4394850
  42.4476510  74.6421500  49.7752820  42.7354320  74.3875800  48.8985830
  42.9599730  74.0898860  50.3658390  43.6653520  58.3811700  50.3549330
  42.8825310  58.8557200  50.6346090  43.3716450  57.4766530  50.2462510
  48.2174590  59.0834800  48.3998420  48.6582680  59.0279900  47.5520020
  47.9482180  59.9992810  48.4708600  50.0813160  58.7150040  46.4107240
  50.0201560  57.7711260  46.2638260  50.8605190  58.8230130  46.9560700
  34.3865910  74.8542400  45.3731190  34.2187950  74.2213080  46.0713080
  33.5200420  75.0601800  45.0225380  35.0093930  58.6859180  42.8763050
  35.7673290  58.7988060  42.3027080  34.5471100  59.5228380  42.8306480
  41.5507740  60.7998450  45.8665360  40.7382250  60.4255340  45.5261240
  42.0549380  60.0443530  46.1686550  46.0532720  57.4640900  47.1048430
  46.6562090  58.0361110  47.5796950  45.3125710  58.0280340  46.8822330
  35.9928610  73.5475630  42.8181330  35.4676230  73.9283660  42.1143290
  35.9173190  74.1726400  43.5391040  37.3819080  59.2123230  41.4165020
  37.9111840  58.4253030  41.2872970  38.0147400  59.8914420  41.6500550
  39.5756920  58.9498370  44.4710410  38.9459660  58.2485680  44.6380540
  39.0362060  59.7102500  44.2543570  42.5148870  75.5637600  57.1421020
  43.4416180  75.3281870  57.1856980  42.4999300  76.3909600  56.6607050
  39.7012480  58.2282350  56.9062900  39.4196750  58.7315950  56.1423720
  40.0832180  57.4304100  56.5405030  38.5921580  75.4958010  41.6930580
  39.3240400  75.2117290  41.1454470  38.8515250  75.2571290  42.5829960
  37.7536370  71.6122740  41.6976910  37.1245250  72.0807840  42.2462740
  37.8684200  70.7671960  42.1323100  46.3027940  57.6435930  57.4843370
  46.1893390  57.9630540  58.3794890  47.1197680  58.0448440  57.1880650
  49.0826430  74.7907460  56.9662060  49.8751750  74.2956690  56.7588020
  49.3759580  75.4697600  57.5737670  47.3611560  71.8467610  28.5086510
  46.8993090  71.0754850  28.8373680  48.1737110  71.8733680  29.0138960
  43.5874870  74.1325620  28.1290500  42.9686310  74.5883120  27.5584940
  44.4426650  74.2877080  27.7280200  49.4466670  71.9760940  31.9309830
  48.7630190  72.6460050  31.9226500  49.9860960  72.1741590  31.1654690
  46.9825410  73.8205070  30.6455010  46.9952570  73.4167360  29.7777270
  46.4300630  74.5952360  30.5416440  46.3810850  68.7234910  31.9737620
  46.7979640  68.5095020  31.1391080  47.1050670  68.9807700  32.5446240
  43.8060190  62.4403610  22.0874830  42.8663860  62.6017570  22.1727290
  44.1243450  63.1589290  21.5410820  50.3272950  67.1222130  32.0653860
  49.4991580  67.1915220  31.5903990  50.9223430  67.7076440  31.5969690
  47.9815060  73.9550780  33.6989710  47.5045620  74.7622970  33.5062320
  47.2976850  73.3029110  33.8515920  44.1348480  71.9089790  26.5696910
  44.5744390  72.6514120  26.1552300  44.0735370  72.1516360  27.4935870
  39.6099450  72.9335620  37.4716930  39.5814880  73.3378570  36.6045360
  39.4464420  72.0045980  37.3088530  49.6070240  58.2236530  20.9156710
  49.2942900  58.3163360  21.8155780  50.3682710  58.8017560  20.8654140
  35.0085380  70.4611660  27.5908870  34.6013460  70.6026250  26.7362470
  35.8998390  70.1771820  27.3880080  50.9647520  70.9075570  35.9281110
  51.0910580  70.6687450  35.0098290  51.0068900  70.0760110  36.4003190
  44.8264260  74.6103570  34.4975920  45.3408930  74.5211580  35.2998350
  43.9833340  74.9563270  34.7903830  46.8018660  74.8958910  23.9259920
  46.6419800  74.6061850  24.8241750  46.6365370  74.1199040  23.3905150
  39.2807040  74.6757440  25.7031540  39.1049520  73.7592980  25.4899340
  38.4262780  75.0344730  25.9429340  46.5044790  72.4046470  22.4857920
  45.8109950  72.4023760  21.8260200  47.2467650  71.9805790  22.0552090
  46.0694720  74.0309180  26.5606410  46.5251670  73.2498560  26.8745030
  46.4087240  74.7416000  27.1047590  41.7074860  58.5542100  23.6363550
  41.0829040  58.5501970  24.3616860  41.6204980  57.6873060  23.2399520
  42.5285060  61.4499190  38.3729760  41.8383380  61.2571390  39.0075850
  43.2717360  61.7333830  38.9054060  37.8614550  69.2723240  24.2752640
  37.0876810  68.7320860  24.1151360  38.5909180  68.7529850  23.9370400
  48.6202530  68.2688600  30.0679030  49.3401650  68.7643890  29.6775140
  48.4184350  67.5906490  29.4232900  46.7960860  64.0346210  22.5070580
  47.6840480  64.3463440  22.3321920  46.7665950  63.1618460  22.1151160
  38.5909610  66.3649230  37.7096700  38.2909750  66.5106410  36.8124520
  39.3620850  65.8054520  37.6170090  49.0675130  65.3458050  21.9750440
  48.9838850  65.7772270  21.1246880  49.7869320  65.8056400  22.4077260
  50.0962380  72.2000310  24.7032570  49.4538540  71.5455930  24.9776290
  49.7093040  72.6055400  23.9273240  48.4859760  71.0916770  21.2408920
  48.2597340  70.3747210  21.8333560  48.0955960  70.8429210  20.4030670
  34.2517650  73.3838490  36.4895780  34.3608770  72.4433230  36.3491170
  33.5998210  73.6493240  35.8409510  40.2844410  72.5014830  22.8327050
  40.2754510  73.2344520  22.2171560  39.3642770  72.2546410  22.9254010
  43.2704010  72.5643070  21.4952240  43.3715990  72.3607060  20.5654220
  42.3705750  72.3101350  21.7000020  41.9122120  75.0829390  26.1899910
  42.1663620  75.0450780  25.2679280  40.9634600  74.9562720  26.1828160
  49.9200280  73.1730120  29.4412680  50.0447700  73.9961290  29.9136490
  50.7865840  72.9620850  29.0936830  37.3917810  75.2661330  29.1129810
  38.1280290  74.7176790  29.3838380  37.7758730  76.1317340  28.9735800
  36.3976090  74.4507400  38.3015390  37.1988820  74.7719450  38.7150790
  35.8827910  74.0902980  39.0235300  40.5020120  74.4391640  20.9355380
  41.2948730  74.7280470  20.4837170  39.9824470  74.0083810  20.2567860
  46.6641090  74.2867560  36.8600210  47.6162840  74.2025580  36.8100450
  46.5169310  74.9509270  37.5334000  49.5550290  73.6661770  22.3592120
  49.2691800  73.2526910  21.5446300  49.3569840  74.5949480  22.2392640
  41.0197520  69.6595050  20.7997730  40.9148160  69.0447400  21.5259110
  40.8521740  69.1360940  20.0160740  44.2600250  68.7215080  21.4039720
  43.7110350  69.1684380  22.0482460  44.8819510  68.2164330  21.9277390
  48.3135190  70.0757180  37.3361980  49.0544660  70.4132940  36.8329440
  47.5507870  70.2449240  36.7831750  39.6003500  74.3845500  34.9570850
  39.0624590  75.1091560  34.6379550  39.8537460  73.9075840  34.1668190
  42.4565710  75.6196710  35.2157500  42.3824410  76.5231850  35.5229870
  41.5544550  75.3008610  35.1879570  40.8402000  59.7974470  21.2197260
  40.4924000  59.1198460  20.6399710  41.0414770  59.3363980  22.0340650
  43.0051040  74.7855220  22.8383860  43.9001830  75.1240190  22.8602620
  43.0368670  74.0634630  22.2108140  36.6447200  70.1582270  21.0670860
  37.0822070  70.7011940  21.7228440  37.1294930  69.3329220  21.0767200
  33.8593000  72.9471300  28.5191120  34.1896010  72.0792360  28.2869760
  34.2884000  73.1529820  29.3496080  38.4554920  71.2780310  26.1793090
  38.1550460  71.1545280  27.0797000  38.3492410  70.4188900  25.7708820
  34.3483210  73.8141890  31.2572750  33.9114200  73.9942690  32.0896900
  34.9160890  74.5716510  31.1154470  49.9845390  73.3158890  35.5450060
  49.3847380  73.3751450  34.8013980  50.1139290  72.3763870  35.6746910
  51.2246840  71.0576710  20.8819770  50.3939800  71.1253360  21.3527000
  51.4018670  71.9480830  20.5786630  50.6803300  67.8024190  23.3853970
  51.4422210  68.3720840  23.4913660  50.6957670  67.2351390  24.1562280
  51.6863270  68.6574290  28.2295900  52.0572100  67.8741610  27.8231870
  52.3265200  69.3463390  28.0513200  48.6697030  70.0410870  33.6426220
  47.8556870  70.4708030  33.9052010  49.0771230  70.6529280  33.0295270
  50.7322470  68.0958560  20.5426490  51.0071310  69.0037440  20.4145710
  50.5433210  68.0321090  21.4788480  47.1298080  61.1203410  21.8380120
  47.5482960  60.9334390  20.9976780  46.8234140  60.2682460  22.1483050
  50.6287810  66.0327550  25.5355920  50.2531410  65.2655480  25.1037210
  49.8990930  66.4150250  26.0230850  49.3938740  63.5158390  24.7755570
  49.8897860  63.2829260  25.5604450  49.1954810  62.6770230  24.3593210
  51.7116170  59.9827260  20.5499390  52.6365480  59.8508440  20.3417680
  51.6891960  60.0620080  21.5035840  48.7273080  74.7929470  27.1694490
  49.3232150  74.4714040  26.4928910  48.9851230  74.3201290  27.9607760
  36.6335650  71.2247380  37.3185120  36.5905280  70.8540290  38.1999580
  36.7646660  72.1624950  37.4586940  51.5945840  74.8001350  33.7205480
  51.1004120  75.1970220  33.0032610  50.9859130  74.1750560  34.1142760
  36.4723680  74.1709630  34.4382900  35.8784000  74.0394330  35.1772940
  36.4647520  73.3347770  33.9725000  49.2785290  75.4424770  30.9992220
  48.8188260  76.1940580  30.6250240  48.6497750  74.7231240  30.9407020
  42.5148870  75.5637600  38.3677530  43.4416180  75.3281870  38.4113490
  42.4999300  76.3909600  37.8863560  50.7493930  75.1063170  25.3651780
  50.9246120  74.4200910  24.7212700  50.0515500  75.6310220  24.9728450
  39.7012480  58.2282350  38.1319410  39.4196750  58.7315950  37.3680230
  40.0832180  57.4304100  37.7661540  38.5921580  75.4958010  22.9187090
  39.3240400  75.2117290  22.3710980  38.8515250  75.2571290  23.8086470
  37.7536370  71.6122740  22.9233420  37.1245250  72.0807840  23.4719250
  37.8684200  70.7671960  23.3579610  49.0826430  74.7907460  38.1918570
  49.8751750  74.2956690  37.9844530  49.3759580  75.4697600  38.7994180
  45.2086090  65.6628400   9.0734620  45.1280140  64.7483010   8.8026330
  44.7950510  66.1595470   8.3674330  43.3404130  67.4407420  10.9543890
  42.5646230  66.9607860  11.2442460  43.9917060  66.7613070  10.7800050
  37.3569960  67.7527230  11.8319650  36.5254840  67.4975940  12.2316160
  37.9650940  67.8238000  12.5677570  47.3611560  71.8467610   9.7343020
  46.8993090  71.0754850  10.0630190  48.1737110  71.8733680  10.2395470
  37.3371220  71.7867320  12.0277670  37.6399260  70.8965060  11.8487890
  38.0814810  72.3437540  11.7999920  35.7661910  62.7129120   5.6162040
  34.8778610  63.0545090   5.5141920  36.0503100  62.5129440   4.7242870
  33.7294920  65.3134770  11.5001740  34.3011030  64.5456970  11.5005380
  33.7296460  65.6123530  10.5908350  43.5874870  74.1325620   9.3547010
  42.9686310  74.5883120   8.7841450  44.4426650  74.2877080   8.9536710
  42.7813120  70.1164610  10.9614050  42.7121400  69.1754550  10.8003180
  43.5432980  70.2066020  11.5336620  34.9719790  60.7219130  13.2870670
  34.7922630  59.8244880  13.5673430  34.5699870  61.2691000  13.9617620
  43.8118290  62.9234990  11.1882980  44.1883110  62.0506870  11.0756650
  43.7137800  63.2593690  10.2973420  37.9423300  61.2960620   6.6500420
  38.0490050  62.1964350   6.9569180  37.0315660  61.2478590   6.3595070
  47.5942410  60.4185430   8.1211320  48.4152030  59.9282000   8.1636800
  47.6276490  61.0083090   8.8743160  35.5906460  63.2179630  11.8953010
  36.2716570  63.4818000  12.5140410  35.2754510  62.3780500  12.2291020
  39.7831030  64.2646990  10.9825600  40.2909250  64.7627960  11.6230620
  40.3144270  63.4882190  10.8064960  51.8841960  62.4352180  14.6854950
  51.1794130  62.8233890  14.1670060  52.1499880  63.1302470  15.2875880
  38.0667130  58.9045550  15.2489020  38.0685570  59.4217940  14.4434920
  37.2371440  58.4275730  15.2258950  44.4538220  69.0164860   6.7478920
  43.8355490  69.4814310   6.1841640  44.9661470  69.7092340   7.1648430
  39.3169980  68.5440730  13.4262520  38.9839360  69.1709650  14.0683590
  39.4936660  69.0702610  12.6464190  47.8303890  62.3585810  10.8938860
  47.1259460  62.6470700  11.4741970  48.1916050  63.1685920  10.5338420
  37.7482460  60.6155510  13.2559470  38.0899270  61.4597560  12.9613340
  36.8098270  60.7639250  13.3724810  38.5289080  70.5121530  15.2411700
  39.1463080  71.1872610  14.9596150  37.6682200  70.9209510  15.1499200
  33.8221420  69.7021390   4.1218550  33.4449400  70.1908490   3.3903450
  34.0794490  70.3746670   4.7525080  49.4466670  71.9760940  13.1566340
  48.7630190  72.6460050  13.1483010  49.9860960  72.1741590  12.3911200
  50.8990810  61.8040600  11.2848070  49.9515720  61.8379580  11.4163500
  51.2240800  62.6179550  11.6697430  41.4310350  58.1037780   9.5804060
  41.7385330  57.5484670   8.8639560  40.5011050  58.2382240   9.3977050
  46.9825410  73.8205070  11.8711520  46.9952570  73.4167360  11.0033780
  46.4300630  74.5952360  11.7672950  48.2770830  70.5421290   6.9601690
  48.1667160  69.5995620   7.0851110  48.2739080  70.9036930   7.8464450
  46.3810850  68.7234910  13.1994130  46.7979640  68.5095020  12.3647590
  47.1050670  68.9807700  13.7702750  43.8191110  66.1686610   6.3164180
  42.8920390  66.1023990   6.5452650  43.9715930  67.1066740   6.2019420
  43.8060190  62.4403610   3.3131340  42.8663860  62.6017570   3.3983800
  44.1243450  63.1589290   2.7667330  50.3272950  67.1222130  13.2910370
  49.4991580  67.1915220  12.8160500  50.9223430  67.7076440  12.8226200
  47.8488400  67.7306910   6.8199430  47.2300820  67.3926460   6.1725730
  47.8312850  67.0866670   7.5278620  47.2914960  63.9091450  14.2365240
  46.8786140  64.7345160  14.4905230  46.5590910  63.3236490  14.0441600
  39.4247750  66.6951350   9.0983910  39.0204750  65.9828600   8.6029810
  39.5110870  66.3504590   9.9871950  39.8929450  70.3818910  11.2623120
  39.5957740  69.7764380  10.5830900  40.8429270  70.4196220  11.1512480
  38.1376370  63.4694560  12.8782950  38.6890960  63.5789900  12.1036200
  38.6519880  63.8432160  13.5938180  47.9815060  73.9550780  14.9246220
  47.5045620  74.7622970  14.7318830  47.2976850  73.3029110  15.0772430
  38.9847880  70.1200600  17.9130920  38.0876410  70.3440570  18.1604320
  39.0100750  70.2435540  16.9642320  46.0253100  66.9693720   3.8272180
  46.4646380  66.1316150   3.6810000  46.7381520  67.6023120   3.9136320
  37.8119100  66.9913920  16.4888290  37.6726870  67.8636720  16.8575690
  36.9300460  66.6486730  16.3436230  44.1348480  71.9089790   7.7953420
  44.5744390  72.6514120   7.3808810  44.0735370  72.1516360   8.7192380
  39.6099450  72.9335620  18.6973440  39.5814880  73.3378570  17.8301870
  39.4464420  72.0045980  18.5345040  49.6070240  58.2236530   2.1413220
  49.2942900  58.3163360   3.0412290  50.3682710  58.8017560   2.0910650
  36.1252380  65.5896330   6.5990560  36.0049980  66.3158420   5.9871830
  35.8153270  64.8199240   6.1218470  51.5614270  73.7162720  19.9937610
  52.0373990  74.1945610  20.6726690  52.1821430  73.6480210  19.2683110
  33.7637750  68.7611470  12.4059200  33.8418170  68.8960240  11.4614920
  34.3779430  68.0527360  12.5987320  35.0085380  70.4611660   8.8165380
  34.6013460  70.6026250   7.9618980  35.8998390  70.1771820   8.6136590
  50.9647520  70.9075570  17.1537620  51.0910580  70.6687450  16.2354800
  51.0068900  70.0760110  17.6259700  44.8264260  74.6103570  15.7232430
  45.3408930  74.5211580  16.5254860  43.9833340  74.9563270  16.0160340
  46.8018660  74.8958910   5.1516430  46.6419800  74.6061850   6.0498260
  46.6365370  74.1199040   4.6161660  39.2807040  74.6757440   6.9288050
  39.1049520  73.7592980   6.7155850  38.4262780  75.0344730   7.1685850
  46.5044790  72.4046470   3.7114430  45.8109950  72.4023760   3.0516710
  47.2467650  71.9805790   3.2808600  46.0694720  74.0309180   7.7862920
  46.5251670  73.2498560   8.1001540  46.4087240  74.7416000   8.3304100
  50.8171530  62.9608030  18.1187360  50.2015800  63.4687700  17.5902820
  50.4967950  62.0606360  18.0613300  33.8197270  69.8025640  14.9453660
  33.9828310  69.3331000  14.1273030  34.2849720  69.2949200  15.6102500
  38.5916040  58.9331400   9.9814230  38.1484190  59.7140940   9.6498750
  39.1501030  59.2561290  10.6885170  42.8785850  61.7999920  15.5849550
  42.4165220  62.0082940  16.3969490  42.4763960  60.9859270  15.2820220
  47.8790360  63.0208870  16.7146210  47.0283950  62.7214620  17.0355280
  47.7192150  63.2650880  15.8030030  44.9740070  64.5210620  18.8145000
  45.2993480  63.6874370  18.4747230  45.7620400  65.0439140  18.9623330
  41.7074860  58.5542100   4.8620060  41.0829040  58.5501970   5.5873370
  41.6204980  57.6873060   4.4656030  40.6291940  59.4778730  11.8403830
  40.9264270  60.3841560  11.7595850  41.1777500  58.9897510  11.2263400
  38.3830260  64.0564970   7.7095480  38.1571180  63.8402140   8.6142100
  37.6022790  64.4893430   7.3641450  45.6128020  64.0628340   6.3086130
  45.0136910  64.7864140   6.1249750  46.1607630  64.0005120   5.5262580
  44.2192890  62.6991880   8.3389410  44.6122460  63.0164080   7.5258100
  44.5809740  61.8203760   8.4533930  42.5285060  61.4499190  19.5986270
  41.8383380  61.2571390  20.2332360  43.2717360  61.7333830  20.1310570
  33.2557060  59.2892680  10.5619610  32.9670110  59.8595540  11.2744590
  34.0002820  58.8097130  10.9250840  44.8048030  65.2897630  12.4340190
  44.0729150  65.7984440  12.7830290  44.4072370  64.4727610  12.1328970
  41.2425420  61.9651830  10.8392680  41.2461480  61.5241780   9.9897220
  42.1376540  62.2869160  10.9464500  37.0927800  61.8478320   9.7986890
  36.7527850  62.3253550  10.5553940  36.3305120  61.3943440   9.4387990
  41.3045570  62.9663910   3.8299440  41.4258390  62.9250390   4.7785260
  40.9194080  63.8288060   3.6746170  45.2673940  60.7431310  11.8463130
  45.2846680  61.1939960  12.6904980  45.0189520  59.8436950  12.0596570
  40.3167070  65.2765050   3.2282740  39.7483970  64.8283300   2.6018650
  41.0256070  65.6357830   2.6947890  48.6944690  58.1563490  17.6849510
  49.0190460  57.4253150  18.2107490  48.7301200  57.8377130  16.7830500
  35.3936250  69.1777070  17.1049470  35.0091040  68.5370740  17.7032430
  35.7048440  69.8813190  17.6744200  41.5433390  66.0253610  12.5858090
  41.9103520  65.5512180  13.3319430  41.3538450  66.8995180  12.9266430
  34.4073880  60.7697300   8.7151560  34.1220800  60.4052970   9.5530180
  34.3452740  60.0377760   8.1014700  39.3332760  65.0662250  14.9042300
  39.0289830  65.9454230  15.1292660  40.2879220  65.1262040  14.9399740
  37.8614550  69.2723240   5.5009150  37.0876810  68.7320860   5.3407870
  38.5909180  68.7529850   5.1626910  48.6202530  68.2688600  11.2935540
  49.3401650  68.7643890  10.9031650  48.4184350  67.5906490  10.6489410
  44.0812470  59.6626560   5.4364930  43.2677080  59.1639730   5.3610240
  43.8874420  60.5024810   5.0201280  44.0021330  68.3397660  17.1804540
  43.9358640  67.4193330  16.9262130  43.3726470  68.4373100  17.8949180
  46.7960860  64.0346210   3.7327090  47.6840480  64.3463440   3.5578430
  46.7665950  63.1618460   3.3407670  37.9051950  68.9403620   9.1387960
  38.4230620  68.1371880   9.0844850  37.4535970  68.8782760   9.9804790
  42.7921450  70.2069900   4.4115260  43.1337150  70.9512130   3.9158580
  41.9634160  70.5201020   4.7740090  35.3896490  65.9064990  16.0513660
  35.0311430  66.5718840  16.6387000  35.0951050  65.0748540  16.4226280
  43.9338060  71.1618230  16.9308340  43.9482600  70.2299190  16.7127250
  43.2263160  71.2477990  17.5698110  49.0675130  65.3458050   3.2006950
  48.9838850  65.7772270   2.3503390  49.7869320  65.8056400   3.6333770
  50.1449270  67.8025570  16.2776920  49.4197460  68.3954350  16.0806310
  50.6724730  67.7949110  15.4790290  50.0962380  72.2000310   5.9289080
  49.4538540  71.5455930   6.2032800  49.7093040  72.6055400   5.1529750
  45.6748860  69.5285740   9.7760770  46.0272680  68.9313870   9.1162140
  44.7911190  69.2029970   9.9469020  41.7612140  70.2883430   7.1831180
  42.4483270  70.8352640   7.5638770  40.9744560  70.8324160   7.2180790
  33.9004540  65.9056250   2.6748260  34.7699390  66.1881050   2.9584180
  33.4094860  66.7192120   2.5597070  41.0639350  67.2929460   6.7956540
  41.5202130  68.1034710   7.0216730  40.7127560  66.9752600   7.6275030
  43.3671960  72.8035800  14.0248840  44.0114180  73.0095180  14.7022260
  43.7301400  72.0424200  13.5719690  36.9651130  57.6367110   7.2679060
  36.8365760  57.6285010   8.2163980  36.1413150  57.9750200   6.9170070
  44.6404040  70.8068150  12.7426290  45.2826270  70.1061310  12.8558460
  45.1653390  71.5866590  12.5623180  48.4859760  71.0916770   2.4665430
  48.2597340  70.3747210   3.0590070  48.0955960  70.8429210   1.6287180
  46.4141660  71.6063050  15.9462350  46.7497900  72.1929740  16.6240270
  45.4942000  71.4755760  16.1760140  34.2675790  75.1183630   3.2409890
  34.6273430  75.7172970   2.5867160  34.1268130  75.6643520   4.0144920
  48.0676010  69.0088710   4.1279590  47.7797710  69.4701400   4.9157470
  48.8628180  68.5486480   4.3963810  34.2517650  73.3838490  17.7152290
  34.3608770  72.4433230  17.5747680  33.5998210  73.6493240  17.0666020
  42.2430240  71.6554380  19.1150410  41.9227110  70.9363620  19.6596100
  41.5688600  72.3309450  19.1886470  40.2844410  72.5014830   4.0583560
  40.2754510  73.2344520   3.4428070  39.3642770  72.2546410   4.1510520
  35.8851050  67.7229720   4.8030320  35.2779000  68.4628620   4.8125620
  36.3600400  67.8129080   3.9768520  45.4583840  61.8880540  14.4787210
  45.8264660  61.0675750  14.8066780  44.5982040  61.9482430  14.8942860
  48.8245870  60.8437480   5.2874770  48.1959030  60.9483150   4.5733000
  48.3297790  61.0634260   6.0768650  43.2704010  72.5643070   2.7208750
  43.3715990  72.3607060   1.7910730  42.3705750  72.3101350   2.9256530
  40.7929900  63.1223430   6.7032650  40.0846050  63.5909770   7.1446260
  41.0774380  62.4645440   7.3377840  42.4185830  64.5420130  14.7025180
  42.9171080  65.0165950  15.3677030  42.5608780  63.6183650  14.9095210
  44.8245330  59.8474090   8.1428440  44.7013110  59.8660220   7.1937950
  45.7729890  59.8953030   8.2626840  41.9122120  75.0829390   7.4156420
  42.1663620  75.0450780   6.4935790  40.9634600  74.9562720   7.4084670
  38.9964920  61.4308510   4.0783360  39.8455450  61.8678660   4.0123550
  38.6296190  61.7428770   4.9055420  49.6252690  60.7588090  15.5453570
  49.1226290  61.4993490  15.8847380  50.4409350  61.1472090  15.2290360
  47.9174700  66.0021270   8.9914930  46.9764840  66.0171500   9.1662620
  48.2318770  65.2157230   9.4375230  37.8956340  67.6840870   2.5518890
  38.6619610  67.5722230   3.1144320  37.9731030  66.9878840   1.8995660
  36.5903100  65.1165940   3.2351780  36.6706690  64.1693450   3.3469180
  37.4822850  65.4472820   3.3412440  49.9200280  73.1730120  10.6669190
  50.0447700  73.9961290  11.1393000  50.7865840  72.9620850  10.3193340
  37.3917810  75.2661330  10.3386320  38.1280290  74.7176790  10.6094890
  37.7758730  76.1317340  10.1992310  34.2763290  71.3334900   6.2127830
  33.3503070  71.5756040   6.2033240  34.7419720  72.1609160   6.0912580
  36.3976090  74.4507400  19.5271900  37.1988820  74.7719450  19.9407300
  35.8827910  74.0902980  20.2491810  45.2340720  70.5587270  19.4747310
  44.6278880  70.5818870  18.7343060  44.9294830  69.8270310  20.0114560
  46.6641090  74.2867560  18.0856720  47.6162840  74.2025580  18.0356960
  46.5169310  74.9509270  18.7590510  49.5550290  73.6661770   3.5848630
  49.2691800  73.2526910   2.7702810  49.3569840  74.5949480   3.4649150
  34.1173900  66.9380860  18.4707950  34.6212920  66.3588140  19.0424180
  33.3781320  67.2221090  19.0084320  41.1711840  68.3451850  18.0043470
  40.4057510  68.9136850  17.9198140  41.3527800  68.0528060  17.1111700
  44.2600250  68.7215080   2.6296230  43.7110350  69.1684380   3.2738970
  44.8819510  68.2164330   3.1533900  48.3135190  70.0757180  18.5618490
  49.0544660  70.4132940  18.0585950  47.5507870  70.2449240  18.0088260
  39.9275370  67.6806000   4.5261530  40.3491790  67.5145870   5.3692920
  40.0526210  66.8706230   4.0316670  46.9880850  68.1272010  17.0973700
  47.4021870  68.2817090  17.9464120  46.0531850  68.2527230  17.2599480
  47.4603020  65.4668170  19.1012850  48.0423790  64.7120490  19.0133330
  47.6364790  65.9975610  18.3244330  41.3436530  59.1838160  14.4457190
  40.8953830  59.2062420  13.6002740  40.7101730  58.7857180  15.0427490
  41.7496080  68.0792490  15.0669630  42.1684190  68.9225220  14.8945870
  40.8304710  68.2164530  14.8376410  44.0859980  65.8108670  16.4507470
  44.2056190  65.2149810  17.1902310  44.9453980  65.8478360  16.0308770
  46.4247880  66.3645860  15.0269980  45.8983100  66.8888480  14.4235120
  46.7679220  66.9973250  15.6579710  39.6003500  74.3845500  16.1827360
  39.0624590  75.1091560  15.8636060  39.8537460  73.9075840  15.3924700
  45.6722180  61.9695830  17.9416310  44.9837700  61.3077370  17.8766300
  46.3928200  61.5234100  18.3864770  46.3022580  58.5647460   4.0006570
  46.5824870  57.7215360   4.3565990  45.5288310  58.7970570   4.5145320
  42.4565710  75.6196710  16.4414010  42.3824410  76.5231850  16.7486380
  41.5544550  75.3008610  16.4136080  40.8402000  59.7974470   2.4453770
  40.4924000  59.1198460   1.8656220  41.0414770  59.3363980   3.2597160
  43.0051040  74.7855220   4.0640370  43.9001830  75.1240190   4.0859130
  43.0368670  74.0634630   3.4364650  36.6447200  70.1582270   2.2927370
  37.0822070  70.7011940   2.9484950  37.1294930  69.3329220   2.3023710
  33.8593000  72.9471300   9.7447630  34.1896010  72.0792360   9.5126270
  34.2884000  73.1529820  10.5752590  38.4554920  71.2780310   7.4049600
  38.1550460  71.1545280   8.3053510  38.3492410  70.4188900   6.9965330
  34.3483210  73.8141890  12.4829260  33.9114200  73.9942690  13.3153410
  34.9160890  74.5716510  12.3410980  49.9845390  73.3158890  16.7706570
  49.3847380  73.3751450  16.0270490  50.1139290  72.3763870  16.9003420
  51.2246840  71.0576710   2.1076280  50.3939800  71.1253360   2.5783510
  51.4018670  71.9480830   1.8043140  50.6803300  67.8024190   4.6110480
  51.4422210  68.3720840   4.7170170  50.6957670  67.2351390   5.3818790
  34.1807640  66.3262120   8.8418140  33.5256480  66.0573760   8.1977840
  35.0185590  66.2166600   8.3920120  51.6863270  68.6574290   9.4552410
  52.0572100  67.8741610   9.0488380  52.3265200  69.3463390   9.2769710
  48.6697030  70.0410870  14.8682730  47.8556870  70.4708030  15.1308520
  49.0771230  70.6529280  14.2551780  50.7322470  68.0958560   1.7683000
  51.0071310  69.0037440   1.6402220  50.5433210  68.0321090   2.7044990
  47.1298080  61.1203410   3.0636630  47.5482960  60.9334390   2.2233290
  46.8234140  60.2682460   3.3739560  50.6287810  66.0327550   6.7612430
  50.2531410  65.2655480   6.3293720  49.8990930  66.4150250   7.2487360
  35.2183570  66.7114690  13.3821480  35.5856610  66.6242090  14.2617500
  34.6494390  65.9481240  13.2828340  50.0187430  65.1799070  16.3951950
  49.7873520  64.9511820  15.4949900  50.2791980  66.0998620  16.3496840
  48.4575500  60.4055500  19.1731650  49.3345680  60.4138900  19.5565650
  48.4696340  59.6686340  18.5624000  33.3945720  63.5361050   4.7843470
  32.4909800  63.7991250   4.6095130  33.8786340  63.8072220   4.0043430
  49.9038770  64.2585040  10.0619670  50.4276250  63.7647690   9.4309840
  50.4898190  64.3935400  10.8067240  50.0828490  64.3424910  13.5839220
  49.1331200  64.3088450  13.6984210  50.2641500  65.2525020  13.3488990
  35.9372930  62.5926590   2.6937850  36.6464630  62.1709810   2.2085130
  35.2212870  62.6601820   2.0621200  49.3938740  63.5158390   6.0012080
  49.8897860  63.2829260   6.7860960  49.1954810  62.6770230   5.5849720
  35.2739280  57.8972110  11.6363120  35.9215470  57.3469490  11.1958280
  35.6941120  58.1515260  12.4578930  50.8225900  62.1519340   8.5349760
  50.7125180  61.9975380   9.4732030  51.5833490  61.6240280   8.2925170
  49.1691620  58.0913470  14.9932760  49.8063840  58.7047610  15.3591950
  49.3166510  58.1274130  14.0481990  51.7116170  59.9827260   1.7755900
  52.6365480  59.8508440   1.5674190  51.6891960  60.0620080   2.7292350
  51.7854660  60.7537920   4.4012610  50.9906160  60.6883040   4.9305520
  51.9897940  61.6888560   4.3897960  48.7273080  74.7929470   8.3951000
  49.3232150  74.4714040   7.7185420  48.9851230  74.3201290   9.1864270
  35.0271280  58.0527780  14.3788440  34.6786100  58.5091600  15.1446620
  34.6958980  57.1584910  14.4610870  36.6335650  71.2247380  18.5441630
  36.5905280  70.8540290  19.4256090  36.7646660  72.1624950  18.6843450
  40.3341680  72.7806970  14.1451350  40.0933040  73.0481530  13.2581870
  41.2744320  72.9512700  14.2002210  42.5396100  59.2439660  17.9007860
  42.4784990  59.8361490  18.6503270  43.4796480  59.1365620  17.7558120
  45.1770660  58.9009720  17.5400150  45.7911070  59.2189010  16.8781230
  45.7220220  58.4158310  18.1596010  51.5945840  74.8001350  14.9461990
  51.1004120  75.1970220  14.2289120  50.9859130  74.1750560  15.3399270
  36.4723680  74.1709630  15.6639410  35.8784000  74.0394330  16.4029450
  36.4647520  73.3347770  15.1981510  45.9178700  57.4641860  13.8669440
  45.0438540  57.7976970  13.6642370  45.8089450  56.9915040  14.6921310
  46.8250680  59.6712730  15.2511160  46.4964040  58.8564490  14.8712890
  47.7732980  59.6282540  15.1276850  49.2785290  75.4424770  12.2248730
  48.8188260  76.1940580  11.8506750  48.6497750  74.7231240  12.1663530
  36.1035910  71.5368010  14.6147450  35.3769970  70.9173300  14.5473400
  36.1645060  71.9308620  13.7445530  39.7081010  73.7513010  11.3996860
  40.2246030  73.1400370  10.8745120  40.3578390  74.2541790  11.8907870
  42.4476510  74.6421500  12.2265840  42.7354320  74.3875800  11.3498850
  42.9599730  74.0898860  12.8171410  43.6653520  58.3811700  12.8062350
  42.8825310  58.8557200  13.0859110  43.3716450  57.4766530  12.6975530
  48.2174590  59.0834800  10.8511440  48.6582680  59.0279900  10.0033040
  47.9482180  59.9992810  10.9221620  50.0813160  58.7150040   8.8620260
  50.0201560  57.7711260   8.7151280  50.8605190  58.8230130   9.4073720
  34.3865910  74.8542400   7.8244210  34.2187950  74.2213080   8.5226100
  33.5200420  75.0601800   7.4738400  35.0093930  58.6859180   5.3276070
  35.7673290  58.7988060   4.7540100  34.5471100  59.5228380   5.2819500
  41.5507740  60.7998450   8.3178380  40.7382250  60.4255340   7.9774260
  42.0549380  60.0443530   8.6199570  46.0532720  57.4640900   9.5561450
  46.6562090  58.0361110  10.0309970  45.3125710  58.0280340   9.3335350
  49.1967320  57.8662460   4.8301730  49.3917950  58.7645910   5.0969160
  48.4097190  57.6349540   5.3234680  35.9928610  73.5475630   5.2694350
  35.4676230  73.9283660   4.5656310  35.9173190  74.1726400   5.9904060
  37.3819080  59.2123230   3.8678040  37.9111840  58.4253030   3.7385990
  38.0147400  59.8914420   4.1013570  39.5756920  58.9498370   6.9223430
  38.9459660  58.2485680   7.0893560  39.0362060  59.7102500   6.7056590
  42.5148870  75.5637600  19.5934040  43.4416180  75.3281870  19.6370000
  42.4999300  76.3909600  19.1120070  50.7493930  75.1063170   6.5908290
  50.9246120  74.4200910   5.9469210  50.0515500  75.6310220   6.1984960
  39.7012480  58.2282350  19.3575920  39.4196750  58.7315950  18.5936740
  40.0832180  57.4304100  18.9918050  38.5921580  75.4958010   4.1443600
  39.3240400  75.2117290   3.5967490  38.8515250  75.2571290   5.0342980
  37.7536370  71.6122740   4.1489930  37.1245250  72.0807840   4.6975760
  37.8684200  70.7671960   4.5836120  46.3027940  57.6435930  19.9356390
  46.1893390  57.9630540  20.8307910  47.1197680  58.0448440  19.6393670
  49.0826430  74.7907460  19.4175080  49.8751750  74.2956690  19.2101040
  49.3759580  75.4697600  20.0250690  45.2086090  46.8884910  65.3965090
  45.1280140  45.9739520  65.1256800  44.7950510  47.3851980  64.6904800
  43.3404130  48.6663930  67.2774360  42.5646230  48.1864370  67.5672930
  43.9917060  47.9869580  67.1030520  37.3569960  48.9783740  68.1550120
  36.5254840  48.7232450  68.5546630  37.9650940  49.0494510  68.8908040
  47.3611560  53.0724120  66.0573490  46.8993090  52.3011360  66.3860660
  48.1737110  53.0990190  66.5625940  37.3371220  53.0123830  68.3508140
  37.6399260  52.1221570  68.1718360  38.0814810  53.5694050  68.1230390
  35.7661910  43.9385630  61.9392510  34.8778610  44.2801600  61.8372390
  36.0503100  43.7385950  61.0473340  33.7294920  46.5391280  67.8232210
  34.3011030  45.7713480  67.8235850  33.7296460  46.8380040  66.9138820
  43.5874870  55.3582130  65.6777480  42.9686310  55.8139630  65.1071920
  44.4426650  55.5133590  65.2767180  42.7813120  51.3421120  67.2844520
  42.7121400  50.4011060  67.1233650  43.5432980  51.4322530  67.8567090
  34.9719790  41.9475640  69.6101140  34.7922630  41.0501390  69.8903900
  34.5699870  42.4947510  70.2848090  43.8118290  44.1491500  67.5113450
  44.1883110  43.2763380  67.3987120  43.7137800  44.4850200  66.6203890
  37.9423300  42.5217130  62.9730890  38.0490050  43.4220860  63.2799650
  37.0315660  42.4735100  62.6825540  47.5942410  41.6441940  64.4441790
  48.4152030  41.1538510  64.4867270  47.6276490  42.2339600  65.1973630
  35.5906460  44.4436140  68.2183480  36.2716570  44.7074510  68.8370880
  35.2754510  43.6037010  68.5521490  39.7831030  45.4903500  67.3056070
  40.2909250  45.9884470  67.9461090  40.3144270  44.7138700  67.1295430
  51.8841960  43.6608690  71.0085420  51.1794130  44.0490400  70.4900530
  52.1499880  44.3558980  71.6106350  38.0667130  40.1302060  71.5719490
  38.0685570  40.6474450  70.7665390  37.2371440  39.6532240  71.5489420
  44.4538220  50.2421370  63.0709390  43.8355490  50.7070820  62.5072110
  44.9661470  50.9348850  63.4878900  39.3169980  49.7697240  69.7492990
  38.9839360  50.3966160  70.3914060  39.4936660  50.2959120  68.9694660
  47.8303890  43.5842320  67.2169330  47.1259460  43.8727210  67.7972440
  48.1916050  44.3942430  66.8568890  37.7482460  41.8412020  69.5789940
  38.0899270  42.6854070  69.2843810  36.8098270  41.9895760  69.6955280
  38.5289080  51.7378040  71.5642170  39.1463080  52.4129120  71.2826620
  37.6682200  52.1466020  71.4729670  33.8221420  50.9277900  60.4449020
  33.4449400  51.4165000  59.7133920  34.0794490  51.6003180  61.0755550
  49.4466670  53.2017450  69.4796810  48.7630190  53.8716560  69.4713480
  49.9860960  53.3998100  68.7141670  50.8990810  43.0297110  67.6078540
  49.9515720  43.0636090  67.7393970  51.2240800  43.8436060  67.9927900
  41.4310350  39.3294290  65.9034530  41.7385330  38.7741180  65.1870030
  40.5011050  39.4638750  65.7207520  46.9825410  55.0461580  68.1941990
  46.9952570  54.6423870  67.3264250  46.4300630  55.8208870  68.0903420
  48.2770830  51.7677800  63.2832160  48.1667160  50.8252130  63.4081580
  48.2739080  52.1293440  64.1694920  46.3810850  49.9491420  69.5224600
  46.7979640  49.7351530  68.6878060  47.1050670  50.2064210  70.0933220
  43.8191110  47.3943120  62.6394650  42.8920390  47.3280500  62.8683120
  43.9715930  48.3323250  62.5249890  43.8060190  43.6660120  59.6361810
  42.8663860  43.8274080  59.7214270  44.1243450  44.3845800  59.0897800
  50.3272950  48.3478640  69.6140840  49.4991580  48.4171730  69.1390970
  50.9223430  48.9332950  69.1456670  47.8488400  48.9563420  63.1429900
  47.2300820  48.6182970  62.4956200  47.8312850  48.3123180  63.8509090
  47.2914960  45.1347960  70.5595710  46.8786140  45.9601670  70.8135700
  46.5590910  44.5493000  70.3672070  39.4247750  47.9207860  65.4214380
  39.0204750  47.2085110  64.9260280  39.5110870  47.5761100  66.3102420
  39.8929450  51.6075420  67.5853590  39.5957740  51.0020890  66.9061370
  40.8429270  51.6452730  67.4742950  38.1376370  44.6951070  69.2013420
  38.6890960  44.8046410  68.4266670  38.6519880  45.0688670  69.9168650
  47.9815060  55.1807290  71.2476690  47.5045620  55.9879480  71.0549300
  47.2976850  54.5285620  71.4002900  38.9847880  51.3457110  74.2361390
  38.0876410  51.5697080  74.4834790  39.0100750  51.4692050  73.2872790
  46.0253100  48.1950230  60.1502650  46.4646380  47.3572660  60.0040470
  46.7381520  48.8279630  60.2366790  37.8119100  48.2170430  72.8118760
  37.6726870  49.0893230  73.1806160  36.9300460  47.8743240  72.6666700
  44.1348480  53.1346300  64.1183890  44.5744390  53.8770630  63.7039280
  44.0735370  53.3772870  65.0422850  39.6099450  54.1592130  75.0203910
  39.5814880  54.5635080  74.1532340  39.4464420  53.2302490  74.8575510
  49.6070240  39.4493040  58.4643690  49.2942900  39.5419870  59.3642760
  50.3682710  40.0274070  58.4141120  36.1252380  46.8152840  62.9221030
  36.0049980  47.5414930  62.3102300  35.8153270  46.0455750  62.4448940
  33.7637750  49.9867980  68.7289670  33.8418170  50.1216750  67.7845390
  34.3779430  49.2783870  68.9217790  35.0085380  51.6868170  65.1395850
  34.6013460  51.8282760  64.2849450  35.8998390  51.4028330  64.9367060
  50.9647520  52.1332080  73.4768090  51.0910580  51.8943960  72.5585270
  51.0068900  51.3016620  73.9490170  44.8264260  55.8360080  72.0462900
  45.3408930  55.7468090  72.8485330  43.9833340  56.1819780  72.3390810
  46.8018660  56.1215420  61.4746900  46.6419800  55.8318360  62.3728730
  46.6365370  55.3455550  60.9392130  39.2807040  55.9013950  63.2518520
  39.1049520  54.9849490  63.0386320  38.4262780  56.2601240  63.4916320
  46.5044790  53.6302980  60.0344900  45.8109950  53.6280270  59.3747180
  47.2467650  53.2062300  59.6039070  46.0694720  55.2565690  64.1093390
  46.5251670  54.4755070  64.4232010  46.4087240  55.9672510  64.6534570
  50.8171530  44.1864540  74.4417830  50.2015800  44.6944210  73.9133290
  50.4967950  43.2862870  74.3843770  33.8197270  51.0282150  71.2684130
  33.9828310  50.5587510  70.4503500  34.2849720  50.5205710  71.9332970
  38.5916040  40.1587910  66.3044700  38.1484190  40.9397450  65.9729220
  39.1501030  40.4817800  67.0115640  42.8785850  43.0256430  71.9080020
  42.4165220  43.2339450  72.7199960  42.4763960  42.2115780  71.6050690
  47.8790360  44.2465380  73.0376680  47.0283950  43.9471130  73.3585750
  47.7192150  44.4907390  72.1260500  44.9740070  45.7467130  75.1375470
  45.2993480  44.9130880  74.7977700  45.7620400  46.2695650  75.2853800
  41.7074860  39.7798610  61.1850530  41.0829040  39.7758480  61.9103840
  41.6204980  38.9129570  60.7886500  40.6291940  40.7035240  68.1634300
  40.9264270  41.6098070  68.0826320  41.1777500  40.2154020  67.5493870
  38.3830260  45.2821480  64.0325950  38.1571180  45.0658650  64.9372570
  37.6022790  45.7149940  63.6871920  45.6128020  45.2884850  62.6316600
  45.0136910  46.0120650  62.4480220  46.1607630  45.2261630  61.8493050
  40.8229470  46.1807060  74.6986220  40.7273070  45.2401790  74.5486620
  41.6661450  46.4022130  74.3034290  44.2192890  43.9248390  64.6619880
  44.6122460  44.2420590  63.8488570  44.5809740  43.0460270  64.7764400
  35.9540010  42.5920730  72.8520000  35.5603400  43.4395940  73.0592780
  35.2658410  41.9547100  73.0428640  33.2557060  40.5149190  66.8850080
  32.9670110  41.0852050  67.5975060  34.0002820  40.0353640  67.2481310
  33.4427290  44.4569310  58.0952800  33.3601960  45.4000070  58.2367790
  33.0910350  44.3144220  57.2165150  44.8048030  46.5154140  68.7570660
  44.0729150  47.0240950  69.1060760  44.4072370  45.6984120  68.4559440
  41.2425420  43.1908340  67.1623150  41.2461480  42.7498290  66.3127690
  42.1376540  43.5125670  67.2694970  37.0927800  43.0734830  66.1217360
  36.7527850  43.5510060  66.8784410  36.3305120  42.6199950  65.7618460
  41.3045570  44.1920420  60.1529910  41.4258390  44.1506900  61.1015730
  40.9194080  45.0544570  59.9976640  45.2673940  41.9687820  68.1693600
  45.2846680  42.4196470  69.0135450  45.0189520  41.0693460  68.3827040
  40.3167070  46.5021560  59.5513210  39.7483970  46.0539810  58.9249120
  41.0256070  46.8614340  59.0178360  48.6944690  39.3820000  74.0079980
  49.0190460  38.6509660  74.5337960  48.7301200  39.0633640  73.1060970
  35.3936250  50.4033580  73.4279940  35.0091040  49.7627250  74.0262900
  35.7048440  51.1069700  73.9974670  41.5433390  47.2510120  68.9088560
  41.9103520  46.7768690  69.6549900  41.3538450  48.1251690  69.2496900
  34.4073880  41.9953810  65.0382030  34.1220800  41.6309480  65.8760650
  34.3452740  41.2634270  64.4245170  39.3332760  46.2918760  71.2272770
  39.0289830  47.1710740  71.4523130  40.2879220  46.3518550  71.2630210
  37.8614550  50.4979750  61.8239620  37.0876810  49.9577370  61.6638340
  38.5909180  49.9786360  61.4857380  48.6202530  49.4945110  67.6166010
  49.3401650  49.9900400  67.2262120  48.4184350  48.8163000  66.9719880
  44.0812470  40.8883070  61.7595400  43.2677080  40.3896240  61.6840710
  43.8874420  41.7281320  61.3431750  44.0021330  49.5654170  73.5035010
  43.9358640  48.6449840  73.2492600  43.3726470  49.6629610  74.2179650
  46.7960860  45.2602720  60.0557560  47.6840480  45.5719950  59.8808900
  46.7665950  44.3874970  59.6638140  37.9051950  50.1660130  65.4618430
  38.4230620  49.3628390  65.4075320  37.4535970  50.1039270  66.3035260
  42.7921450  51.4326410  60.7345730  43.1337150  52.1768640  60.2389050
  41.9634160  51.7457530  61.0970560  35.3896490  47.1321500  72.3744130
  35.0311430  47.7975350  72.9617470  35.0951050  46.3005050  72.7456750
  38.5909610  47.5905740  75.2583680  38.2909750  47.7362920  74.3611500
  39.3620850  47.0311030  75.1657070  43.9338060  52.3874740  73.2538810
  43.9482600  51.4555700  73.0357720  43.2263160  52.4734500  73.8928580
  49.0675130  46.5714560  59.5237420  48.9838850  47.0028780  58.6733860
  49.7869320  47.0312910  59.9564240  50.1449270  49.0282080  72.6007390
  49.4197460  49.6210860  72.4036780  50.6724730  49.0205620  71.8020760
  50.0962380  53.4256820  62.2519550  49.4538540  52.7712440  62.5263270
  49.7093040  53.8311910  61.4760220  45.6748860  50.7542250  66.0991240
  46.0272680  50.1570380  65.4392610  44.7911190  50.4286480  66.2699490
  41.7612140  51.5139940  63.5061650  42.4483270  52.0609150  63.8869240
  40.9744560  52.0580670  63.5411260  33.9004540  47.1312760  58.9978730
  34.7699390  47.4137560  59.2814650  33.4094860  47.9448630  58.8827540
  41.0639350  48.5185970  63.1187010  41.5202130  49.3291220  63.3447200
  40.7127560  48.2009110  63.9505500  43.3671960  54.0292310  70.3479310
  44.0114180  54.2351690  71.0252730  43.7301400  53.2680710  69.8950160
  36.9651130  38.8623620  63.5909530  36.8365760  38.8541520  64.5394450
  36.1413150  39.2006710  63.2400540  44.6404040  52.0324660  69.0656760
  45.2826270  51.3317820  69.1788930  45.1653390  52.8123100  68.8853650
  48.4859760  52.3173280  58.7895900  48.2597340  51.6003720  59.3820540
  48.0955960  52.0685720  57.9517650  46.4141660  52.8319560  72.2692820
  46.7497900  53.4186250  72.9470740  45.4942000  52.7012270  72.4990610
  34.2675790  56.3440140  59.5640360  34.6273430  56.9429480  58.9097630
  34.1268130  56.8900030  60.3375390  33.9645060  40.6214740  73.0516230
  33.2503580  40.8211660  73.6568840  34.3840100  39.8454310  73.4231030
  48.0676010  50.2345220  60.4510060  47.7797710  50.6957910  61.2387940
  48.8628180  49.7742990  60.7194280  34.2517650  54.6095000  74.0382760
  34.3608770  53.6689740  73.8978150  33.5998210  54.8749750  73.3896490
  42.2430240  52.8810890  75.4380880  41.9227110  52.1620130  75.9826570
  41.5688600  53.5565960  75.5116940  40.2844410  53.7271340  60.3814030
  40.2754510  54.4601030  59.7658540  39.3642770  53.4802920  60.4740990
  35.8851050  48.9486230  61.1260790  35.2779000  49.6885130  61.1356090
  36.3600400  49.0385590  60.2998990  45.4583840  43.1137050  70.8017680
  45.8264660  42.2932260  71.1297250  44.5982040  43.1738940  71.2173330
  48.8245870  42.0693990  61.6105240  48.1959030  42.1739660  60.8963470
  48.3297790  42.2890770  62.3999120  43.2704010  53.7899580  59.0439220
  43.3715990  53.5863570  58.1141200  42.3705750  53.5357860  59.2487000
  40.7929900  44.3479940  63.0263120  40.0846050  44.8166280  63.4676730
  41.0774380  43.6901950  63.6608310  42.4185830  45.7676640  71.0255650
  42.9171080  46.2422460  71.6907500  42.5608780  44.8440160  71.2325680
  44.8245330  41.0730600  64.4658910  44.7013110  41.0916730  63.5168420
  45.7729890  41.1209540  64.5857310  41.9122120  56.3085900  63.7386890
  42.1663620  56.2707290  62.8166260  40.9634600  56.1819230  63.7315140
  38.9964920  42.6565020  60.4013830  39.8455450  43.0935170  60.3354020
  38.6296190  42.9685280  61.2285890  49.6252690  41.9844600  71.8684040
  49.1226290  42.7250000  72.2077850  50.4409350  42.3728600  71.5520830
  47.9174700  47.2277780  65.3145400  46.9764840  47.2428010  65.4893090
  48.2318770  46.4413740  65.7605700  37.8956340  48.9097380  58.8749360
  38.6619610  48.7978740  59.4374790  37.9731030  48.2135350  58.2226130
  36.5903100  46.3422450  59.5582250  36.6706690  45.3949960  59.6699650
  37.4822850  46.6729330  59.6642910  49.9200280  54.3986630  66.9899660
  50.0447700  55.2217800  67.4623470  50.7865840  54.1877360  66.6423810
  37.3917810  56.4917840  66.6616790  38.1280290  55.9433300  66.9325360
  37.7758730  57.3573850  66.5222780  34.2763290  52.5591410  62.5358300
  33.3503070  52.8012550  62.5263710  34.7419720  53.3865670  62.4143050
  40.5020120  55.6648150  58.4842360  41.2948730  55.9536980  58.0324150
  39.9824470  55.2340320  57.8054840  46.6641090  55.5124070  74.4087190
  47.6162840  55.4282090  74.3587430  46.5169310  56.1765780  75.0820980
  49.5550290  54.8918280  59.9079100  49.2691800  54.4783420  59.0933280
  49.3569840  55.8205990  59.7879620  34.1173900  48.1637370  74.7938420
  34.6212920  47.5844650  75.3654650  33.3781320  48.4477600  75.3314790
  41.0197520  50.8851560  58.3484710  40.9148160  50.2703910  59.0746090
  40.8521740  50.3617450  57.5647720  41.1711840  49.5708360  74.3273940
  40.4057510  50.1393360  74.2428610  41.3527800  49.2784570  73.4342170
  44.2600250  49.9471590  58.9526700  43.7110350  50.3940890  59.5969440
  44.8819510  49.4420840  59.4764370  48.3135190  51.3013690  74.8848960
  49.0544660  51.6389450  74.3816420  47.5507870  51.4705750  74.3318730
  39.9275370  48.9062510  60.8492000  40.3491790  48.7402380  61.6923390
  40.0526210  48.0962740  60.3547140  38.0902790  44.8859060  73.6562980
  37.5599250  44.3950010  73.0286320  38.7590860  45.3143260  73.1220910
  42.4403010  47.9300120  58.0969100  42.9608670  47.2149140  57.7310250
  43.0871410  48.5685990  58.3969610  46.9880850  49.3528520  73.4204170
  47.4021870  49.5073600  74.2694590  46.0531850  49.4783740  73.5829950
  47.4603020  46.6924680  75.4243320  48.0423790  45.9377000  75.3363800
  47.6364790  47.2232120  74.6474800  38.5775090  41.8521430  73.7360270
  38.4831960  41.2342180  73.0111140  37.9972480  42.5787720  73.5090180
  41.3436530  40.4094670  70.7687660  40.8953830  40.4318930  69.9233210
  40.7101730  40.0113690  71.3657960  41.7496080  49.3049000  71.3900100
  42.1684190  50.1481730  71.2176340  40.8304710  49.4421040  71.1606880
  44.0859980  47.0365180  72.7737940  44.2056190  46.4406320  73.5132780
  44.9453980  47.0734870  72.3539240  46.4247880  47.5902370  71.3500450
  45.8983100  48.1144990  70.7465590  46.7679220  48.2229760  71.9810180
  38.8234270  44.9795740  57.7950160  38.6223330  44.1163100  58.1563500
  38.6526320  44.8929100  56.8571760  39.6003500  55.6102010  72.5057830
  39.0624590  56.3348070  72.1866530  39.8537460  55.1332350  71.7155170
  40.8528750  43.5786530  74.0313760  41.4428440  43.2702380  74.7191580
  40.0348990  43.1066280  74.1873660  45.6722180  43.1952340  74.2646780
  44.9837700  42.5333880  74.1996770  46.3928200  42.7490610  74.7095240
  46.3022580  39.7903970  60.3237040  46.5824870  38.9471870  60.6796460
  45.5288310  40.0227080  60.8375790  37.6217070  42.0796360  57.7828040
  37.9242970  42.0863790  56.8747190  38.3611660  41.7294220  58.2795700
  42.4565710  56.8453220  72.7644480  42.3824410  57.7488360  73.0716850
  41.5544550  56.5265120  72.7366550  40.8402000  41.0230980  58.7684240
  40.4924000  40.3454970  58.1886690  41.0414770  40.5620490  59.5827630
  43.0051040  56.0111730  60.3870840  43.9001830  56.3496700  60.4089600
  43.0368670  55.2891140  59.7595120  36.6447200  51.3838780  58.6157840
  37.0822070  51.9268450  59.2715420  37.1294930  50.5585730  58.6254180
  33.8593000  54.1727810  66.0678100  34.1896010  53.3048870  65.8356740
  34.2884000  54.3786330  66.8983060  38.4554920  52.5036820  63.7280070
  38.1550460  52.3801790  64.6283980  38.3492410  51.6445410  63.3195800
  34.3483210  55.0398400  68.8059730  33.9114200  55.2199200  69.6383880
  34.9160890  55.7973020  68.6641450  49.9845390  54.5415400  73.0937040
  49.3847380  54.6007960  72.3500960  50.1139290  53.6020380  73.2233890
  51.2246840  52.2833220  58.4306750  50.3939800  52.3509870  58.9013980
  51.4018670  53.1737340  58.1273610  50.6803300  49.0280700  60.9340950
  51.4422210  49.5977350  61.0400640  50.6957670  48.4607900  61.7049260
  34.1807640  47.5518630  65.1648610  33.5256480  47.2830270  64.5208310
  35.0185590  47.4423110  64.7150590  51.6863270  49.8830800  65.7782880
  52.0572100  49.0998120  65.3718850  52.3265200  50.5719900  65.6000180
  48.6697030  51.2667380  71.1913200  47.8556870  51.6964540  71.4538990
  49.0771230  51.8785790  70.5782250  50.7322470  49.3215070  58.0913470
  51.0071310  50.2293950  57.9632690  50.5433210  49.2577600  59.0275460
  47.1298080  42.3459920  59.3867100  47.5482960  42.1590900  58.5463760
  46.8234140  41.4938970  59.6970030  50.6287810  47.2584060  63.0842900
  50.2531410  46.4911990  62.6524190  49.8990930  47.6406760  63.5717830
  35.2183570  47.9371200  69.7051950  35.5856610  47.8498600  70.5847970
  34.6494390  47.1737750  69.6058810  50.0187430  46.4055580  72.7182420
  49.7873520  46.1768330  71.8180370  50.2791980  47.3255130  72.6727310
  34.7699570  44.8480290  73.6110370  33.8755620  44.8147050  73.9504080
  35.3097120  45.0467080  74.3761620  48.4575500  41.6312010  75.4962120
  49.3345680  41.6395410  75.8796120  48.4696340  40.8942850  74.8854470
  33.3945720  44.7617560  61.1073940  32.4909800  45.0247760  60.9325600
  33.8786340  45.0328730  60.3273900  49.9038770  45.4841550  66.3850140
  50.4276250  44.9904200  65.7540310  50.4898190  45.6191910  67.1297710
  50.0828490  45.5681420  69.9069690  49.1331200  45.5344960  70.0214680
  50.2641500  46.4781530  69.6719460  35.9372930  43.8183100  59.0168320
  36.6464630  43.3966320  58.5315600  35.2212870  43.8858330  58.3851670
  35.5847090  39.8722430  58.0570970  36.3075220  40.4131370  58.3752190
  35.8571610  39.5985850  57.1812510  49.3938740  44.7414900  62.3242550
  49.8897860  44.5085770  63.1091430  49.1954810  43.9026740  61.9080190
  35.2739280  39.1228620  67.9593590  35.9215470  38.5726000  67.5188750
  35.6941120  39.3771770  68.7809400  50.8225900  43.3775850  64.8580230
  50.7125180  43.2231890  65.7962500  51.5833490  42.8496790  64.6155640
  49.1691620  39.3169980  71.3163230  49.8063840  39.9304120  71.6822420
  49.3166510  39.3530640  70.3712460  51.7116170  41.2083770  58.0986370
  52.6365480  41.0764950  57.8904660  51.6891960  41.2876590  59.0522820
  51.7854660  41.9794430  60.7243080  50.9906160  41.9139550  61.2535990
  51.9897940  42.9145070  60.7128430  48.7273080  56.0185980  64.7181470
  49.3232150  55.6970550  64.0415890  48.9851230  55.5457800  65.5094740
  35.0271280  39.2784290  70.7018910  34.6786100  39.7348110  71.4677090
  34.6958980  38.3841420  70.7841340  36.6335650  52.4503890  74.8672100
  36.5905280  52.0796800  75.7486560  36.7646660  53.3881460  75.0073920
  40.3341680  54.0063480  70.4681820  40.0933040  54.2738040  69.5812340
  41.2744320  54.1769210  70.5232680  42.5396100  40.4696170  74.2238330
  42.4784990  41.0618000  74.9733740  43.4796480  40.3622130  74.0788590
  45.1770660  40.1266230  73.8630620  45.7911070  40.4445520  73.2011700
  45.7220220  39.6414820  74.4826480  51.5945840  56.0257860  71.2692460
  51.1004120  56.4226730  70.5519590  50.9859130  55.4007070  71.6629740
  35.6991920  38.8060490  73.9769680  36.2474910  38.6248540  73.2135790
  35.7647230  38.0154600  74.5125990  36.4723680  55.3966140  71.9869880
  35.8784000  55.2650840  72.7259920  36.4647520  54.5604280  71.5211980
  45.9178700  38.6898370  70.1899910  45.0438540  39.0233480  69.9872840
  45.8089450  38.2171550  71.0151780  46.8250680  40.8969240  71.5741630
  46.4964040  40.0821000  71.1943360  47.7732980  40.8539050  71.4507320
  49.2785290  56.6681280  68.5479200  48.8188260  57.4197090  68.1737220
  48.6497750  55.9487750  68.4894000  36.1035910  52.7624520  70.9377920
  35.3769970  52.1429810  70.8703870  36.1645060  53.1565130  70.0676000
  39.7081010  54.9769520  67.7227330  40.2246030  54.3656880  67.1975590
  40.3578390  55.4798300  68.2138340  42.4476510  55.8678010  68.5496310
  42.7354320  55.6132310  67.6729320  42.9599730  55.3155370  69.1401880
  43.6653520  39.6068210  69.1292820  42.8825310  40.0813710  69.4089580
  43.3716450  38.7023040  69.0206000  48.2174590  40.3091310  67.1741910
  48.6582680  40.2536410  66.3263510  47.9482180  41.2249320  67.2452090
  50.0813160  39.9406550  65.1850730  50.0201560  38.9967770  65.0381750
  50.8605190  40.0486640  65.7304190  34.3865910  56.0798910  64.1474680
  34.2187950  55.4469590  64.8456570  33.5200420  56.2858310  63.7968870
  35.0093930  39.9115690  61.6506540  35.7673290  40.0244570  61.0770570
  34.5471100  40.7484890  61.6049970  41.5507740  42.0254960  64.6408850
  40.7382250  41.6511850  64.3004730  42.0549380  41.2700040  64.9430040
  46.0532720  38.6897410  65.8791920  46.6562090  39.2617620  66.3540440
  45.3125710  39.2536850  65.6565820  49.1967320  39.0918970  61.1532200
  49.3917950  39.9902420  61.4199630  48.4097190  38.8606050  61.6465150
  35.9928610  54.7732140  61.5924820  35.4676230  55.1540170  60.8886780
  35.9173190  55.3982910  62.3134530  37.3819080  40.4379740  60.1908510
  37.9111840  39.6509540  60.0616460  38.0147400  41.1170930  60.4244040
  39.5756920  40.1754880  63.2453900  38.9459660  39.4742190  63.4124030
  39.0362060  40.9359010  63.0287060  42.5148870  56.7894110  75.9164510
  43.4416180  56.5538380  75.9600470  42.4999300  57.6166110  75.4350540
  50.7493930  56.3319680  62.9138760  50.9246120  55.6457420  62.2699680
  50.0515500  56.8566730  62.5215430  39.7012480  39.4538860  75.6806390
  39.4196750  39.9572460  74.9167210  40.0832180  38.6560610  75.3148520
  38.5921580  56.7214520  60.4674070  39.3240400  56.4373800  59.9197960
  38.8515250  56.4827800  61.3573450  37.7536370  52.8379250  60.4720400
  37.1245250  53.3064350  61.0206230  37.8684200  51.9928470  60.9066590
  45.2086090  46.8884910  46.6221600  45.1280140  45.9739520  46.3513310
  44.7950510  47.3851980  45.9161310  43.3404130  48.6663930  48.5030870
  42.5646230  48.1864370  48.7929440  43.9917060  47.9869580  48.3287030
  37.3569960  48.9783740  49.3806630  36.5254840  48.7232450  49.7803140
  37.9650940  49.0494510  50.1164550  47.3611560  53.0724120  47.2830000
  46.8993090  52.3011360  47.6117170  48.1737110  53.0990190  47.7882450
  37.3371220  53.0123830  49.5764650  37.6399260  52.1221570  49.3974870
  38.0814810  53.5694050  49.3486900  35.7661910  43.9385630  43.1649020
  34.8778610  44.2801600  43.0628900  36.0503100  43.7385950  42.2729850
  33.7294920  46.5391280  49.0488720  34.3011030  45.7713480  49.0492360
  33.7296460  46.8380040  48.1395330  43.5874870  55.3582130  46.9033990
  42.9686310  55.8139630  46.3328430  44.4426650  55.5133590  46.5023690
  42.7813120  51.3421120  48.5101030  42.7121400  50.4011060  48.3490160
  43.5432980  51.4322530  49.0823600  34.9719790  41.9475640  50.8357650
  34.7922630  41.0501390  51.1160410  34.5699870  42.4947510  51.5104600
  43.8118290  44.1491500  48.7369960  44.1883110  43.2763380  48.6243630
  43.7137800  44.4850200  47.8460400  37.9423300  42.5217130  44.1987400
  38.0490050  43.4220860  44.5056160  37.0315660  42.4735100  43.9082050
  47.5942410  41.6441940  45.6698300  48.4152030  41.1538510  45.7123780
  47.6276490  42.2339600  46.4230140  35.5906460  44.4436140  49.4439990
  36.2716570  44.7074510  50.0627390  35.2754510  43.6037010  49.7778000
  39.7831030  45.4903500  48.5312580  40.2909250  45.9884470  49.1717600
  40.3144270  44.7138700  48.3551940  51.8841960  43.6608690  52.2341930
  51.1794130  44.0490400  51.7157040  52.1499880  44.3558980  52.8362860
  38.0667130  40.1302060  52.7976000  38.0685570  40.6474450  51.9921900
  37.2371440  39.6532240  52.7745930  44.4538220  50.2421370  44.2965900
  43.8355490  50.7070820  43.7328620  44.9661470  50.9348850  44.7135410
  39.3169980  49.7697240  50.9749500  38.9839360  50.3966160  51.6170570
  39.4936660  50.2959120  50.1951170  47.8303890  43.5842320  48.4425840
  47.1259460  43.8727210  49.0228950  48.1916050  44.3942430  48.0825400
  37.7482460  41.8412020  50.8046450  38.0899270  42.6854070  50.5100320
  36.8098270  41.9895760  50.9211790  38.5289080  51.7378040  52.7898680
  39.1463080  52.4129120  52.5083130  37.6682200  52.1466020  52.6986180
  33.8221420  50.9277900  41.6705530  33.4449400  51.4165000  40.9390430
  34.0794490  51.6003180  42.3012060  49.4466670  53.2017450  50.7053320
  48.7630190  53.8716560  50.6969990  49.9860960  53.3998100  49.9398180
  50.8990810  43.0297110  48.8335050  49.9515720  43.0636090  48.9650480
  51.2240800  43.8436060  49.2184410  41.4310350  39.3294290  47.1291040
  41.7385330  38.7741180  46.4126540  40.5011050  39.4638750  46.9464030
  46.9825410  55.0461580  49.4198500  46.9952570  54.6423870  48.5520760
  46.4300630  55.8208870  49.3159930  48.2770830  51.7677800  44.5088670
  48.1667160  50.8252130  44.6338090  48.2739080  52.1293440  45.3951430
  46.3810850  49.9491420  50.7481110  46.7979640  49.7351530  49.9134570
  47.1050670  50.2064210  51.3189730  43.8191110  47.3943120  43.8651160
  42.8920390  47.3280500  44.0939630  43.9715930  48.3323250  43.7506400
  50.3272950  48.3478640  50.8397350  49.4991580  48.4171730  50.3647480
  50.9223430  48.9332950  50.3713180  47.2914960  45.1347960  51.7852220
  46.8786140  45.9601670  52.0392210  46.5590910  44.5493000  51.5928580
  39.4247750  47.9207860  46.6470890  39.0204750  47.2085110  46.1516790
  39.5110870  47.5761100  47.5358930  39.8929450  51.6075420  48.8110100
  39.5957740  51.0020890  48.1317880  40.8429270  51.6452730  48.6999460
  38.1376370  44.6951070  50.4269930  38.6890960  44.8046410  49.6523180
  38.6519880  45.0688670  51.1425160  47.9815060  55.1807290  52.4733200
  47.5045620  55.9879480  52.2805810  47.2976850  54.5285620  52.6259410
  38.9847880  51.3457110  55.4617900  38.0876410  51.5697080  55.7091300
  39.0100750  51.4692050  54.5129300  37.8119100  48.2170430  54.0375270
  37.6726870  49.0893230  54.4062670  36.9300460  47.8743240  53.8923210
  44.1348480  53.1346300  45.3440400  44.5744390  53.8770630  44.9295790
  44.0735370  53.3772870  46.2679360  39.6099450  54.1592130  56.2460420
  39.5814880  54.5635080  55.3788850  39.4464420  53.2302490  56.0832020
  36.1252380  46.8152840  44.1477540  36.0049980  47.5414930  43.5358810
  35.8153270  46.0455750  43.6705450  51.5614270  54.9419230  57.5424590
  52.0373990  55.4202120  58.2213670  52.1821430  54.8736720  56.8170090
  33.7637750  49.9867980  49.9546180  33.8418170  50.1216750  49.0101900
  34.3779430  49.2783870  50.1474300  35.0085380  51.6868170  46.3652360
  34.6013460  51.8282760  45.5105960  35.8998390  51.4028330  46.1623570
  50.9647520  52.1332080  54.7024600  51.0910580  51.8943960  53.7841780
  51.0068900  51.3016620  55.1746680  44.8264260  55.8360080  53.2719410
  45.3408930  55.7468090  54.0741840  43.9833340  56.1819780  53.5647320
  39.2807040  55.9013950  44.4775030  39.1049520  54.9849490  44.2642830
  38.4262780  56.2601240  44.7172830  50.8171530  44.1864540  55.6674340
  50.2015800  44.6944210  55.1389800  50.4967950  43.2862870  55.6100280
  33.8197270  51.0282150  52.4940640  33.9828310  50.5587510  51.6760010
  34.2849720  50.5205710  53.1589480  38.5916040  40.1587910  47.5301210
  38.1484190  40.9397450  47.1985730  39.1501030  40.4817800  48.2372150
  42.8785850  43.0256430  53.1336530  42.4165220  43.2339450  53.9456470
  42.4763960  42.2115780  52.8307200  47.8790360  44.2465380  54.2633190
  47.0283950  43.9471130  54.5842260  47.7192150  44.4907390  53.3517010
  44.9740070  45.7467130  56.3631980  45.2993480  44.9130880  56.0234210
  45.7620400  46.2695650  56.5110310  40.6291940  40.7035240  49.3890810
  40.9264270  41.6098070  49.3082830  41.1777500  40.2154020  48.7750380
  38.3830260  45.2821480  45.2582460  38.1571180  45.0658650  46.1629080
  37.6022790  45.7149940  44.9128430  45.6128020  45.2884850  43.8573110
  45.0136910  46.0120650  43.6736730  46.1607630  45.2261630  43.0749560
  40.8229470  46.1807060  55.9242730  40.7273070  45.2401790  55.7743130
  41.6661450  46.4022130  55.5290800  44.2192890  43.9248390  45.8876390
  44.6122460  44.2420590  45.0745080  44.5809740  43.0460270  46.0020910
  35.9540010  42.5920730  54.0776510  35.5603400  43.4395940  54.2849290
  35.2658410  41.9547100  54.2685150  42.5285060  42.6755700  57.1473250
  41.8383380  42.4827900  57.7819340  43.2717360  42.9590340  57.6797550
  33.2557060  40.5149190  48.1106590  32.9670110  41.0852050  48.8231570
  34.0002820  40.0353640  48.4737820  33.4427290  44.4569310  39.3209310
  33.3601960  45.4000070  39.4624300  33.0910350  44.3144220  38.4421660
  44.8048030  46.5154140  49.9827170  44.0729150  47.0240950  50.3317270
  44.4072370  45.6984120  49.6815950  41.2425420  43.1908340  48.3879660
  41.2461480  42.7498290  47.5384200  42.1376540  43.5125670  48.4951480
  37.0927800  43.0734830  47.3473870  36.7527850  43.5510060  48.1040920
  36.3305120  42.6199950  46.9874970  45.2673940  41.9687820  49.3950110
  45.2846680  42.4196470  50.2391960  45.0189520  41.0693460  49.6083550
  48.6944690  39.3820000  55.2336490  49.0190460  38.6509660  55.7594470
  48.7301200  39.0633640  54.3317480  35.3936250  50.4033580  54.6536450
  35.0091040  49.7627250  55.2519410  35.7048440  51.1069700  55.2231180
  41.5433390  47.2510120  50.1345070  41.9103520  46.7768690  50.8806410
  41.3538450  48.1251690  50.4753410  34.4073880  41.9953810  46.2638540
  34.1220800  41.6309480  47.1017160  34.3452740  41.2634270  45.6501680
  39.3332760  46.2918760  52.4529280  39.0289830  47.1710740  52.6779640
  40.2879220  46.3518550  52.4886720  37.8614550  50.4979750  43.0496130
  37.0876810  49.9577370  42.8894850  38.5909180  49.9786360  42.7113890
  48.6202530  49.4945110  48.8422520  49.3401650  49.9900400  48.4518630
  48.4184350  48.8163000  48.1976390  44.0812470  40.8883070  42.9851910
  43.2677080  40.3896240  42.9097220  43.8874420  41.7281320  42.5688260
  44.0021330  49.5654170  54.7291520  43.9358640  48.6449840  54.4749110
  43.3726470  49.6629610  55.4436160  37.9051950  50.1660130  46.6874940
  38.4230620  49.3628390  46.6331830  37.4535970  50.1039270  47.5291770
  35.3896490  47.1321500  53.6000640  35.0311430  47.7975350  54.1873980
  35.0951050  46.3005050  53.9713260  38.5909610  47.5905740  56.4840190
  38.2909750  47.7362920  55.5868010  39.3620850  47.0311030  56.3913580
  43.9338060  52.3874740  54.4795320  43.9482600  51.4555700  54.2614230
  43.2263160  52.4734500  55.1185090  50.1449270  49.0282080  53.8263900
  49.4197460  49.6210860  53.6293290  50.6724730  49.0205620  53.0277270
  50.0962380  53.4256820  43.4776060  49.4538540  52.7712440  43.7519780
  49.7093040  53.8311910  42.7016730  45.6748860  50.7542250  47.3247750
  46.0272680  50.1570380  46.6649120  44.7911190  50.4286480  47.4956000
  41.7612140  51.5139940  44.7318160  42.4483270  52.0609150  45.1125750
  40.9744560  52.0580670  44.7667770  33.9004540  47.1312760  40.2235240
  34.7699390  47.4137560  40.5071160  33.4094860  47.9448630  40.1084050
  41.0639350  48.5185970  44.3443520  41.5202130  49.3291220  44.5703710
  40.7127560  48.2009110  45.1762010  43.3671960  54.0292310  51.5735820
  44.0114180  54.2351690  52.2509240  43.7301400  53.2680710  51.1206670
  36.9651130  38.8623620  44.8166040  36.8365760  38.8541520  45.7650960
  36.1413150  39.2006710  44.4657050  44.6404040  52.0324660  50.2913270
  45.2826270  51.3317820  50.4045440  45.1653390  52.8123100  50.1110160
  46.4141660  52.8319560  53.4949330  46.7497900  53.4186250  54.1727250
  45.4942000  52.7012270  53.7247120  34.2675790  56.3440140  40.7896870
  34.6273430  56.9429480  40.1354140  34.1268130  56.8900030  41.5631900
  33.9645060  40.6214740  54.2772740  33.2503580  40.8211660  54.8825350
  34.3840100  39.8454310  54.6487540  34.2517650  54.6095000  55.2639270
  34.3608770  53.6689740  55.1234660  33.5998210  54.8749750  54.6153000
  42.2430240  52.8810890  56.6637390  41.9227110  52.1620130  57.2083080
  41.5688600  53.5565960  56.7373450  40.2844410  53.7271340  41.6070540
  40.2754510  54.4601030  40.9915050  39.3642770  53.4802920  41.6997500
  35.8851050  48.9486230  42.3517300  35.2779000  49.6885130  42.3612600
  36.3600400  49.0385590  41.5255500  45.4583840  43.1137050  52.0274190
  45.8264660  42.2932260  52.3553760  44.5982040  43.1738940  52.4429840
  40.7929900  44.3479940  44.2519630  40.0846050  44.8166280  44.6933240
  41.0774380  43.6901950  44.8864820  42.4185830  45.7676640  52.2512160
  42.9171080  46.2422460  52.9164010  42.5608780  44.8440160  52.4582190
  44.8245330  41.0730600  45.6915420  44.7013110  41.0916730  44.7424930
  45.7729890  41.1209540  45.8113820  38.9964920  42.6565020  41.6270340
  39.8455450  43.0935170  41.5610530  38.6296190  42.9685280  42.4542400
  49.6252690  41.9844600  53.0940550  49.1226290  42.7250000  53.4334360
  50.4409350  42.3728600  52.7777340  47.9174700  47.2277780  46.5401910
  46.9764840  47.2428010  46.7149600  48.2318770  46.4413740  46.9862210
  37.8956340  48.9097380  40.1005870  38.6619610  48.7978740  40.6631300
  37.9731030  48.2135350  39.4482640  36.5903100  46.3422450  40.7838760
  36.6706690  45.3949960  40.8956160  37.4822850  46.6729330  40.8899420
  49.9200280  54.3986630  48.2156170  50.0447700  55.2217800  48.6879980
  50.7865840  54.1877360  47.8680320  37.3917810  56.4917840  47.8873300
  38.1280290  55.9433300  48.1581870  37.7758730  57.3573850  47.7479290
  34.2763290  52.5591410  43.7614810  33.3503070  52.8012550  43.7520220
  34.7419720  53.3865670  43.6399560  36.3976090  55.6763910  57.0758880
  37.1988820  55.9975960  57.4894280  35.8827910  55.3159490  57.7978790
  40.5020120  55.6648150  39.7098870  41.2948730  55.9536980  39.2580660
  39.9824470  55.2340320  39.0311350  45.2340720  51.7843780  57.0234290
  44.6278880  51.8075380  56.2830040  44.9294830  51.0526820  57.5601540
  46.6641090  55.5124070  55.6343700  47.6162840  55.4282090  55.5843940
  46.5169310  56.1765780  56.3077490  34.1173900  48.1637370  56.0194930
  34.6212920  47.5844650  56.5911160  33.3781320  48.4477600  56.5571300
  41.1711840  49.5708360  55.5530450  40.4057510  50.1393360  55.4685120
  41.3527800  49.2784570  54.6598680  48.3135190  51.3013690  56.1105470
  49.0544660  51.6389450  55.6072930  47.5507870  51.4705750  55.5575240
  36.1496980  46.3066960  56.9145000  36.1902320  46.0080830  57.8230230
  37.0042480  46.7074570  56.7552520  38.0902790  44.8859060  54.8819490
  37.5599250  44.3950010  54.2542830  38.7590860  45.3143260  54.3477420
  46.9880850  49.3528520  54.6460680  47.4021870  49.5073600  55.4951100
  46.0531850  49.4783740  54.8086460  47.4603020  46.6924680  56.6499830
  48.0423790  45.9377000  56.5620310  47.6364790  47.2232120  55.8731310
  38.5775090  41.8521430  54.9616780  38.4831960  41.2342180  54.2367650
  37.9972480  42.5787720  54.7346690  41.3436530  40.4094670  51.9944170
  40.8953830  40.4318930  51.1489720  40.7101730  40.0113690  52.5914470
  41.7496080  49.3049000  52.6156610  42.1684190  50.1481730  52.4432850
  40.8304710  49.4421040  52.3863390  44.0859980  47.0365180  53.9994450
  44.2056190  46.4406320  54.7389290  44.9453980  47.0734870  53.5795750
  46.4247880  47.5902370  52.5756960  45.8983100  48.1144990  51.9722100
  46.7679220  48.2229760  53.2066690  39.6003500  55.6102010  53.7314340
  39.0624590  56.3348070  53.4123040  39.8537460  55.1332350  52.9411680
  40.8528750  43.5786530  55.2570270  41.4428440  43.2702380  55.9448090
  40.0348990  43.1066280  55.4130170  45.6722180  43.1952340  55.4903290
  44.9837700  42.5333880  55.4253280  46.3928200  42.7490610  55.9351750
  42.4565710  56.8453220  53.9900990  42.3824410  57.7488360  54.2973360
  41.5544550  56.5265120  53.9623060  36.6447200  51.3838780  39.8414350
  37.0822070  51.9268450  40.4971930  37.1294930  50.5585730  39.8510690
  33.8593000  54.1727810  47.2934610  34.1896010  53.3048870  47.0613250
  34.2884000  54.3786330  48.1239570  38.4554920  52.5036820  44.9536580
  38.1550460  52.3801790  45.8540490  38.3492410  51.6445410  44.5452310
  34.3483210  55.0398400  50.0316240  33.9114200  55.2199200  50.8640390
  34.9160890  55.7973020  49.8897960  49.9845390  54.5415400  54.3193550
  49.3847380  54.6007960  53.5757470  50.1139290  53.6020380  54.4490400
  34.1807640  47.5518630  46.3905120  33.5256480  47.2830270  45.7464820
  35.0185590  47.4423110  45.9407100  51.6863270  49.8830800  47.0039390
  52.0572100  49.0998120  46.5975360  52.3265200  50.5719900  46.8256690
  48.6697030  51.2667380  52.4169710  47.8556870  51.6964540  52.6795500
  49.0771230  51.8785790  51.8038760  50.6287810  47.2584060  44.3099410
  50.2531410  46.4911990  43.8780700  49.8990930  47.6406760  44.7974340
  35.2183570  47.9371200  50.9308460  35.5856610  47.8498600  51.8104480
  34.6494390  47.1737750  50.8315320  50.0187430  46.4055580  53.9438930
  49.7873520  46.1768330  53.0436880  50.2791980  47.3255130  53.8983820
  34.7699570  44.8480290  54.8366880  33.8755620  44.8147050  55.1760590
  35.3097120  45.0467080  55.6018130  48.4575500  41.6312010  56.7218630
  49.3345680  41.6395410  57.1052630  48.4696340  40.8942850  56.1110980
  33.3945720  44.7617560  42.3330450  32.4909800  45.0247760  42.1582110
  33.8786340  45.0328730  41.5530410  49.9038770  45.4841550  47.6106650
  50.4276250  44.9904200  46.9796820  50.4898190  45.6191910  48.3554220
  50.0828490  45.5681420  51.1326200  49.1331200  45.5344960  51.2471190
  50.2641500  46.4781530  50.8975970  35.9372930  43.8183100  40.2424830
  36.6464630  43.3966320  39.7572110  35.2212870  43.8858330  39.6108180
  35.5847090  39.8722430  39.2827480  36.3075220  40.4131370  39.6008700
  35.8571610  39.5985850  38.4069020  49.3938740  44.7414900  43.5499060
  49.8897860  44.5085770  44.3347940  49.1954810  43.9026740  43.1336700
  35.2739280  39.1228620  49.1850100  35.9215470  38.5726000  48.7445260
  35.6941120  39.3771770  50.0065910  49.1691620  39.3169980  52.5419740
  49.8063840  39.9304120  52.9078930  49.3166510  39.3530640  51.5968970
  48.7273080  56.0185980  45.9437980  49.3232150  55.6970550  45.2672400
  48.9851230  55.5457800  46.7351250  35.0271280  39.2784290  51.9275420
  34.6786100  39.7348110  52.6933600  34.6958980  38.3841420  52.0097850
  36.6335650  52.4503890  56.0928610  36.5905280  52.0796800  56.9743070
  36.7646660  53.3881460  56.2330430  40.3341680  54.0063480  51.6938330
  40.0933040  54.2738040  50.8068850  41.2744320  54.1769210  51.7489190
  42.5396100  40.4696170  55.4494840  42.4784990  41.0618000  56.1990250
  43.4796480  40.3622130  55.3045100  45.1770660  40.1266230  55.0887130
  45.7911070  40.4445520  54.4268210  45.7220220  39.6414820  55.7082990
  51.5945840  56.0257860  52.4948970  51.1004120  56.4226730  51.7776100
  50.9859130  55.4007070  52.8886250  35.6991920  38.8060490  55.2026190
  36.2474910  38.6248540  54.4392300  35.7647230  38.0154600  55.7382500
  36.4723680  55.3966140  53.2126390  35.8784000  55.2650840  53.9516430
  36.4647520  54.5604280  52.7468490  45.9178700  38.6898370  51.4156420
  45.0438540  39.0233480  51.2129350  45.8089450  38.2171550  52.2408290
  46.8250680  40.8969240  52.7998140  46.4964040  40.0821000  52.4199870
  47.7732980  40.8539050  52.6763830  49.2785290  56.6681280  49.7735710
  48.8188260  57.4197090  49.3993730  48.6497750  55.9487750  49.7150510
  36.1035910  52.7624520  52.1634430  35.3769970  52.1429810  52.0960380
  36.1645060  53.1565130  51.2932510  39.7081010  54.9769520  48.9483840
  40.2246030  54.3656880  48.4232100  40.3578390  55.4798300  49.4394850
  42.4476510  55.8678010  49.7752820  42.7354320  55.6132310  48.8985830
  42.9599730  55.3155370  50.3658390  43.6653520  39.6068210  50.3549330
  42.8825310  40.0813710  50.6346090  43.3716450  38.7023040  50.2462510
  48.2174590  40.3091310  48.3998420  48.6582680  40.2536410  47.5520020
  47.9482180  41.2249320  48.4708600  34.3865910  56.0798910  45.3731190
  34.2187950  55.4469590  46.0713080  33.5200420  56.2858310  45.0225380
  35.0093930  39.9115690  42.8763050  35.7673290  40.0244570  42.3027080
  34.5471100  40.7484890  42.8306480  41.5507740  42.0254960  45.8665360
  40.7382250  41.6511850  45.5261240  42.0549380  41.2700040  46.1686550
  46.0532720  38.6897410  47.1048430  46.6562090  39.2617620  47.5796950
  45.3125710  39.2536850  46.8822330  35.9928610  54.7732140  42.8181330
  35.4676230  55.1540170  42.1143290  35.9173190  55.3982910  43.5391040
  37.3819080  40.4379740  41.4165020  37.9111840  39.6509540  41.2872970
  38.0147400  41.1170930  41.6500550  39.5756920  40.1754880  44.4710410
  38.9459660  39.4742190  44.6380540  39.0362060  40.9359010  44.2543570
  42.5148870  56.7894110  57.1421020  43.4416180  56.5538380  57.1856980
  42.4999300  57.6166110  56.6607050  50.7493930  56.3319680  44.1395270
  50.9246120  55.6457420  43.4956190  50.0515500  56.8566730  43.7471940
  39.7012480  39.4538860  56.9062900  39.4196750  39.9572460  56.1423720
  40.0832180  38.6560610  56.5405030  38.5921580  56.7214520  41.6930580
  39.3240400  56.4373800  41.1454470  38.8515250  56.4827800  42.5829960
  37.7536370  52.8379250  41.6976910  37.1245250  53.3064350  42.2462740
  37.8684200  51.9928470  42.1323100  46.3027940  38.8692440  57.4843370
  46.1893390  39.1887050  58.3794890  47.1197680  39.2704950  57.1880650
  49.0826430  56.0163970  56.9662060  49.8751750  55.5213200  56.7588020
  49.3759580  56.6954110  57.5737670  37.3569960  48.9783740  30.6063140
  36.5254840  48.7232450  31.0059650  37.9650940  49.0494510  31.3421060
  35.7661910  43.9385630  24.3905530  34.8778610  44.2801600  24.2885410
  36.0503100  43.7385950  23.4986360  33.7294920  46.5391280  30.2745230
  34.3011030  45.7713480  30.2748870  33.7296460  46.8380040  29.3651840
  34.9719790  41.9475640  32.0614160  34.7922630  41.0501390  32.3416920
  34.5699870  42.4947510  32.7361110  37.9423300  42.5217130  25.4243910
  38.0490050  43.4220860  25.7312670  37.0315660  42.4735100  25.1338560
  35.5906460  44.4436140  30.6696500  36.2716570  44.7074510  31.2883900
  35.2754510  43.6037010  31.0034510  39.7831030  45.4903500  29.7569090
  40.2909250  45.9884470  30.3974110  40.3144270  44.7138700  29.5808450
  39.3169980  49.7697240  32.2006010  38.9839360  50.3966160  32.8427080
  39.4936660  50.2959120  31.4207680  37.7482460  41.8412020  32.0302960
  38.0899270  42.6854070  31.7356830  36.8098270  41.9895760  32.1468300
  41.4310350  39.3294290  28.3547550  41.7385330  38.7741180  27.6383050
  40.5011050  39.4638750  28.1720540  43.8191110  47.3943120  25.0907670
  42.8920390  47.3280500  25.3196140  43.9715930  48.3323250  24.9762910
  43.8060190  43.6660120  22.0874830  42.8663860  43.8274080  22.1727290
  44.1243450  44.3845800  21.5410820  39.4247750  47.9207860  27.8727400
  39.0204750  47.2085110  27.3773300  39.5110870  47.5761100  28.7615440
  38.1376370  44.6951070  31.6526440  38.6890960  44.8046410  30.8779690
  38.6519880  45.0688670  32.3681670  38.9847880  51.3457110  36.6874410
  38.0876410  51.5697080  36.9347810  39.0100750  51.4692050  35.7385810
  46.0253100  48.1950230  22.6015670  46.4646380  47.3572660  22.4553490
  46.7381520  48.8279630  22.6879810  37.8119100  48.2170430  35.2631780
  37.6726870  49.0893230  35.6319180  36.9300460  47.8743240  35.1179720
  39.6099450  54.1592130  37.4716930  39.5814880  54.5635080  36.6045360
  39.4464420  53.2302490  37.3088530  49.6070240  39.4493040  20.9156710
  49.2942900  39.5419870  21.8155780  50.3682710  40.0274070  20.8654140
  36.1252380  46.8152840  25.3734050  36.0049980  47.5414930  24.7615320
  35.8153270  46.0455750  24.8961960  33.7637750  49.9867980  31.1802690
  33.8418170  50.1216750  30.2358410  34.3779430  49.2783870  31.3730810
  35.0085380  51.6868170  27.5908870  34.6013460  51.8282760  26.7362470
  35.8998390  51.4028330  27.3880080  33.8197270  51.0282150  33.7197150
  33.9828310  50.5587510  32.9016520  34.2849720  50.5205710  34.3845990
  38.5916040  40.1587910  28.7557720  38.1484190  40.9397450  28.4242240
  39.1501030  40.4817800  29.4628660  41.7074860  39.7798610  23.6363550
  41.0829040  39.7758480  24.3616860  41.6204980  38.9129570  23.2399520
  38.3830260  45.2821480  26.4838970  38.1571180  45.0658650  27.3885590
  37.6022790  45.7149940  26.1384940  45.6128020  45.2884850  25.0829620
  45.0136910  46.0120650  24.8993240  46.1607630  45.2261630  24.3006070
  33.2557060  40.5149190  29.3363100  32.9670110  41.0852050  30.0488080
  34.0002820  40.0353640  29.6994330  33.4427290  44.4569310  20.5465820
  33.3601960  45.4000070  20.6880810  33.0910350  44.3144220  19.6678170
  44.8048030  46.5154140  31.2083680  44.0729150  47.0240950  31.5573780
  44.4072370  45.6984120  30.9072460  37.0927800  43.0734830  28.5730380
  36.7527850  43.5510060  29.3297430  36.3305120  42.6199950  28.2131480
  41.3045570  44.1920420  22.6042930  41.4258390  44.1506900  23.5528750
  40.9194080  45.0544570  22.4489660  40.3167070  46.5021560  22.0026230
  39.7483970  46.0539810  21.3762140  41.0256070  46.8614340  21.4691380
  35.3936250  50.4033580  35.8792960  35.0091040  49.7627250  36.4775920
  35.7048440  51.1069700  36.4487690  41.5433390  47.2510120  31.3601580
  41.9103520  46.7768690  32.1062920  41.3538450  48.1251690  31.7009920
  34.4073880  41.9953810  27.4895050  34.1220800  41.6309480  28.3273670
  34.3452740  41.2634270  26.8758190  39.3332760  46.2918760  33.6785790
  39.0289830  47.1710740  33.9036150  40.2879220  46.3518550  33.7143230
  44.0812470  40.8883070  24.2108420  43.2677080  40.3896240  24.1353730
  43.8874420  41.7281320  23.7944770  46.7960860  45.2602720  22.5070580
  47.6840480  45.5719950  22.3321920  46.7665950  44.3874970  22.1151160
  35.3896490  47.1321500  34.8257150  35.0311430  47.7975350  35.4130490
  35.0951050  46.3005050  35.1969770  38.5909610  47.5905740  37.7096700
  38.2909750  47.7362920  36.8124520  39.3620850  47.0311030  37.6170090
  49.0675130  46.5714560  21.9750440  48.9838850  47.0028780  21.1246880
  49.7869320  47.0312910  22.4077260  50.0962380  53.4256820  24.7032570
  49.4538540  52.7712440  24.9776290  49.7093040  53.8311910  23.9273240
  33.9004540  47.1312760  21.4491750  34.7699390  47.4137560  21.7327670
  33.4094860  47.9448630  21.3340560  41.0639350  48.5185970  25.5700030
  41.5202130  49.3291220  25.7960220  40.7127560  48.2009110  26.4018520
  36.9651130  38.8623620  26.0422550  36.8365760  38.8541520  26.9907470
  36.1413150  39.2006710  25.6913560  48.4859760  52.3173280  21.2408920
  48.2597340  51.6003720  21.8333560  48.0955960  52.0685720  20.4030670
  33.9645060  40.6214740  35.5029250  33.2503580  40.8211660  36.1081860
  34.3840100  39.8454310  35.8744050  48.0676010  50.2345220  22.9023080
  47.7797710  50.6957910  23.6900960  48.8628180  49.7742990  23.1707300
  35.8851050  48.9486230  23.5773810  35.2779000  49.6885130  23.5869110
  36.3600400  49.0385590  22.7512010  48.8245870  42.0693990  24.0618260
  48.1959030  42.1739660  23.3476490  48.3297790  42.2890770  24.8512140
  40.7929900  44.3479940  25.4776140  40.0846050  44.8166280  25.9189750
  41.0774380  43.6901950  26.1121330  42.4185830  45.7676640  33.4768670
  42.9171080  46.2422460  34.1420520  42.5608780  44.8440160  33.6838700
  38.9964920  42.6565020  22.8526850  39.8455450  43.0935170  22.7867040
  38.6296190  42.9685280  23.6798910  37.8956340  48.9097380  21.3262380
  38.6619610  48.7978740  21.8887810  37.9731030  48.2135350  20.6739150
  36.5903100  46.3422450  22.0095270  36.6706690  45.3949960  22.1212670
  37.4822850  46.6729330  22.1155930  40.5020120  55.6648150  20.9355380
  41.2948730  55.9536980  20.4837170  39.9824470  55.2340320  20.2567860
  49.5550290  54.8918280  22.3592120  49.2691800  54.4783420  21.5446300
  49.3569840  55.8205990  22.2392640  34.1173900  48.1637370  37.2451440
  34.6212920  47.5844650  37.8167670  33.3781320  48.4477600  37.7827810
  41.0197520  50.8851560  20.7997730  40.9148160  50.2703910  21.5259110
  40.8521740  50.3617450  20.0160740  36.1496980  46.3066960  38.1401510
  36.1902320  46.0080830  39.0486740  37.0042480  46.7074570  37.9809030
  39.9275370  48.9062510  23.3005020  40.3491790  48.7402380  24.1436410
  40.0526210  48.0962740  22.8060160  42.4403010  47.9300120  20.5482120
  42.9608670  47.2149140  20.1823270  43.0871410  48.5685990  20.8482630
  41.3436530  40.4094670  33.2200680  40.8953830  40.4318930  32.3746230
  40.7101730  40.0113690  33.8170980  41.7496080  49.3049000  33.8413120
  42.1684190  50.1481730  33.6689360  40.8304710  49.4421040  33.6119900
  44.0859980  47.0365180  35.2250960  44.2056190  46.4406320  35.9645800
  44.9453980  47.0734870  34.8052260  38.8234270  44.9795740  20.2463180
  38.6223330  44.1163100  20.6076520  38.6526320  44.8929100  19.3084780
  46.3022580  39.7903970  22.7750060  46.5824870  38.9471870  23.1309480
  45.5288310  40.0227080  23.2888810  37.6217070  42.0796360  20.2341060
  37.9242970  42.0863790  19.3260210  38.3611660  41.7294220  20.7308720
  40.8402000  41.0230980  21.2197260  40.4924000  40.3454970  20.6399710
  41.0414770  40.5620490  22.0340650  33.8593000  54.1727810  28.5191120
  34.1896010  53.3048870  28.2869760  34.2884000  54.3786330  29.3496080
  51.2246840  52.2833220  20.8819770  50.3939800  52.3509870  21.3527000
  51.4018670  53.1737340  20.5786630  50.6803300  49.0280700  23.3853970
  51.4422210  49.5977350  23.4913660  50.6957670  48.4607900  24.1562280
  34.1807640  47.5518630  27.6161630  33.5256480  47.2830270  26.9721330
  35.0185590  47.4423110  27.1663610  50.7322470  49.3215070  20.5426490
  51.0071310  50.2293950  20.4145710  50.5433210  49.2577600  21.4788480
  47.1298080  42.3459920  21.8380120  47.5482960  42.1590900  20.9976780
  46.8234140  41.4938970  22.1483050  50.6287810  47.2584060  25.5355920
  50.2531410  46.4911990  25.1037210  49.8990930  47.6406760  26.0230850
  35.2183570  47.9371200  32.1564970  35.5856610  47.8498600  33.0360990
  34.6494390  47.1737750  32.0571830  33.3945720  44.7617560  23.5586960
  32.4909800  45.0247760  23.3838620  33.8786340  45.0328730  22.7786920
  35.9372930  43.8183100  21.4681340  36.6464630  43.3966320  20.9828620
  35.2212870  43.8858330  20.8364690  35.5847090  39.8722430  20.5083990
  36.3075220  40.4131370  20.8265210  35.8571610  39.5985850  19.6325530
  49.3938740  44.7414900  24.7755570  49.8897860  44.5085770  25.5604450
  49.1954810  43.9026740  24.3593210  35.2739280  39.1228620  30.4106610
  35.9215470  38.5726000  29.9701770  35.6941120  39.3771770  31.2322420
  51.7116170  41.2083770  20.5499390  52.6365480  41.0764950  20.3417680
  51.6891960  41.2876590  21.5035840  51.7854660  41.9794430  23.1756100
  50.9906160  41.9139550  23.7049010  51.9897940  42.9145070  23.1641450
  35.0271280  39.2784290  33.1531930  34.6786100  39.7348110  33.9190110
  34.6958980  38.3841420  33.2354360  35.6991920  38.8060490  36.4282700
  36.2474910  38.6248540  35.6648810  35.7647230  38.0154600  36.9639010
  45.9178700  38.6898370  32.6412930  45.0438540  39.0233480  32.4385860
  45.8089450  38.2171550  33.4664800  35.0093930  39.9115690  24.1019560
  35.7673290  40.0244570  23.5283590  34.5471100  40.7484890  24.0562990
  49.1967320  39.0918970  23.6045220  49.3917950  39.9902420  23.8712650
  48.4097190  38.8606050  24.0978170  37.3819080  40.4379740  22.6421530
  37.9111840  39.6509540  22.5129480  38.0147400  41.1170930  22.8757060
  39.5756920  40.1754880  25.6966920  38.9459660  39.4742190  25.8637050
  39.0362060  40.9359010  25.4800080  42.5148870  56.7894110  38.3677530
  43.4416180  56.5538380  38.4113490  42.4999300  57.6166110  37.8863560
  45.2086090  46.8884910   9.0734620  45.1280140  45.9739520   8.8026330
  44.7950510  47.3851980   8.3674330  43.3404130  48.6663930  10.9543890
  42.5646230  48.1864370  11.2442460  43.9917060  47.9869580  10.7800050
  37.3569960  48.9783740  11.8319650  36.5254840  48.7232450  12.2316160
  37.9650940  49.0494510  12.5677570  47.3611560  53.0724120   9.7343020
  46.8993090  52.3011360  10.0630190  48.1737110  53.0990190  10.2395470
  37.3371220  53.0123830  12.0277670  37.6399260  52.1221570  11.8487890
  38.0814810  53.5694050  11.7999920  35.7661910  43.9385630   5.6162040
  34.8778610  44.2801600   5.5141920  36.0503100  43.7385950   4.7242870
  33.7294920  46.5391280  11.5001740  34.3011030  45.7713480  11.5005380
  33.7296460  46.8380040  10.5908350  43.5874870  55.3582130   9.3547010
  42.9686310  55.8139630   8.7841450  44.4426650  55.5133590   8.9536710
  42.7813120  51.3421120  10.9614050  42.7121400  50.4011060  10.8003180
  43.5432980  51.4322530  11.5336620  34.9719790  41.9475640  13.2870670
  34.7922630  41.0501390  13.5673430  34.5699870  42.4947510  13.9617620
  43.8118290  44.1491500  11.1882980  44.1883110  43.2763380  11.0756650
  43.7137800  44.4850200  10.2973420  37.9423300  42.5217130   6.6500420
  38.0490050  43.4220860   6.9569180  37.0315660  42.4735100   6.3595070
  47.5942410  41.6441940   8.1211320  48.4152030  41.1538510   8.1636800
  47.6276490  42.2339600   8.8743160  35.5906460  44.4436140  11.8953010
  36.2716570  44.7074510  12.5140410  35.2754510  43.6037010  12.2291020
  39.7831030  45.4903500  10.9825600  40.2909250  45.9884470  11.6230620
  40.3144270  44.7138700  10.8064960  51.8841960  43.6608690  14.6854950
  51.1794130  44.0490400  14.1670060  52.1499880  44.3558980  15.2875880
  38.0667130  40.1302060  15.2489020  38.0685570  40.6474450  14.4434920
  37.2371440  39.6532240  15.2258950  44.4538220  50.2421370   6.7478920
  43.8355490  50.7070820   6.1841640  44.9661470  50.9348850   7.1648430
  39.3169980  49.7697240  13.4262520  38.9839360  50.3966160  14.0683590
  39.4936660  50.2959120  12.6464190  47.8303890  43.5842320  10.8938860
  47.1259460  43.8727210  11.4741970  48.1916050  44.3942430  10.5338420
  37.7482460  41.8412020  13.2559470  38.0899270  42.6854070  12.9613340
  36.8098270  41.9895760  13.3724810  38.5289080  51.7378040  15.2411700
  39.1463080  52.4129120  14.9596150  37.6682200  52.1466020  15.1499200
  33.8221420  50.9277900   4.1218550  33.4449400  51.4165000   3.3903450
  34.0794490  51.6003180   4.7525080  49.4466670  53.2017450  13.1566340
  48.7630190  53.8716560  13.1483010  49.9860960  53.3998100  12.3911200
  50.8990810  43.0297110  11.2848070  49.9515720  43.0636090  11.4163500
  51.2240800  43.8436060  11.6697430  41.4310350  39.3294290   9.5804060
  41.7385330  38.7741180   8.8639560  40.5011050  39.4638750   9.3977050
  46.9825410  55.0461580  11.8711520  46.9952570  54.6423870  11.0033780
  46.4300630  55.8208870  11.7672950  48.2770830  51.7677800   6.9601690
  48.1667160  50.8252130   7.0851110  48.2739080  52.1293440   7.8464450
  46.3810850  49.9491420  13.1994130  46.7979640  49.7351530  12.3647590
  47.1050670  50.2064210  13.7702750  43.8191110  47.3943120   6.3164180
  42.8920390  47.3280500   6.5452650  43.9715930  48.3323250   6.2019420
  43.8060190  43.6660120   3.3131340  42.8663860  43.8274080   3.3983800
  44.1243450  44.3845800   2.7667330  50.3272950  48.3478640  13.2910370
  49.4991580  48.4171730  12.8160500  50.9223430  48.9332950  12.8226200
  47.8488400  48.9563420   6.8199430  47.2300820  48.6182970   6.1725730
  47.8312850  48.3123180   7.5278620  47.2914960  45.1347960  14.2365240
  46.8786140  45.9601670  14.4905230  46.5590910  44.5493000  14.0441600
  39.4247750  47.9207860   9.0983910  39.0204750  47.2085110   8.6029810
  39.5110870  47.5761100   9.9871950  39.8929450  51.6075420  11.2623120
  39.5957740  51.0020890  10.5830900  40.8429270  51.6452730  11.1512480
  38.1376370  44.6951070  12.8782950  38.6890960  44.8046410  12.1036200
  38.6519880  45.0688670  13.5938180  47.9815060  55.1807290  14.9246220
  47.5045620  55.9879480  14.7318830  47.2976850  54.5285620  15.0772430
  38.9847880  51.3457110  17.9130920  38.0876410  51.5697080  18.1604320
  39.0100750  51.4692050  16.9642320  46.0253100  48.1950230   3.8272180
  46.4646380  47.3572660   3.6810000  46.7381520  48.8279630   3.9136320
  37.8119100  48.2170430  16.4888290  37.6726870  49.0893230  16.8575690
  36.9300460  47.8743240  16.3436230  44.1348480  53.1346300   7.7953420
  44.5744390  53.8770630   7.3808810  44.0735370  53.3772870   8.7192380
  39.6099450  54.1592130  18.6973440  39.5814880  54.5635080  17.8301870
  39.4464420  53.2302490  18.5345040  49.6070240  39.4493040   2.1413220
  49.2942900  39.5419870   3.0412290  50.3682710  40.0274070   2.0910650
  36.1252380  46.8152840   6.5990560  36.0049980  47.5414930   5.9871830
  35.8153270  46.0455750   6.1218470  51.5614270  54.9419230  19.9937610
  52.0373990  55.4202120  20.6726690  52.1821430  54.8736720  19.2683110
  33.7637750  49.9867980  12.4059200  33.8418170  50.1216750  11.4614920
  34.3779430  49.2783870  12.5987320  35.0085380  51.6868170   8.8165380
  34.6013460  51.8282760   7.9618980  35.8998390  51.4028330   8.6136590
  50.9647520  52.1332080  17.1537620  51.0910580  51.8943960  16.2354800
  51.0068900  51.3016620  17.6259700  44.8264260  55.8360080  15.7232430
  45.3408930  55.7468090  16.5254860  43.9833340  56.1819780  16.0160340
  46.8018660  56.1215420   5.1516430  46.6419800  55.8318360   6.0498260
  46.6365370  55.3455550   4.6161660  39.2807040  55.9013950   6.9288050
  39.1049520  54.9849490   6.7155850  38.4262780  56.2601240   7.1685850
  46.5044790  53.6302980   3.7114430  45.8109950  53.6280270   3.0516710
  47.2467650  53.2062300   3.2808600  46.0694720  55.2565690   7.7862920
  46.5251670  54.4755070   8.1001540  46.4087240  55.9672510   8.3304100
  50.8171530  44.1864540  18.1187360  50.2015800  44.6944210  17.5902820
  50.4967950  43.2862870  18.0613300  33.8197270  51.0282150  14.9453660
  33.9828310  50.5587510  14.1273030  34.2849720  50.5205710  15.6102500
  38.5916040  40.1587910   9.9814230  38.1484190  40.9397450   9.6498750
  39.1501030  40.4817800  10.6885170  42.8785850  43.0256430  15.5849550
  42.4165220  43.2339450  16.3969490  42.4763960  42.2115780  15.2820220
  47.8790360  44.2465380  16.7146210  47.0283950  43.9471130  17.0355280
  47.7192150  44.4907390  15.8030030  44.9740070  45.7467130  18.8145000
  45.2993480  44.9130880  18.4747230  45.7620400  46.2695650  18.9623330
  41.7074860  39.7798610   4.8620060  41.0829040  39.7758480   5.5873370
  41.6204980  38.9129570   4.4656030  40.6291940  40.7035240  11.8403830
  40.9264270  41.6098070  11.7595850  41.1777500  40.2154020  11.2263400
  38.3830260  45.2821480   7.7095480  38.1571180  45.0658650   8.6142100
  37.6022790  45.7149940   7.3641450  45.6128020  45.2884850   6.3086130
  45.0136910  46.0120650   6.1249750  46.1607630  45.2261630   5.5262580
  40.8229470  46.1807060  18.3755750  40.7273070  45.2401790  18.2256150
  41.6661450  46.4022130  17.9803820  44.2192890  43.9248390   8.3389410
  44.6122460  44.2420590   7.5258100  44.5809740  43.0460270   8.4533930
  35.9540010  42.5920730  16.5289530  35.5603400  43.4395940  16.7362310
  35.2658410  41.9547100  16.7198170  42.5285060  42.6755700  19.5986270
  41.8383380  42.4827900  20.2332360  43.2717360  42.9590340  20.1310570
  33.2557060  40.5149190  10.5619610  32.9670110  41.0852050  11.2744590
  34.0002820  40.0353640  10.9250840  44.8048030  46.5154140  12.4340190
  44.0729150  47.0240950  12.7830290  44.4072370  45.6984120  12.1328970
  41.2425420  43.1908340  10.8392680  41.2461480  42.7498290   9.9897220
  42.1376540  43.5125670  10.9464500  37.0927800  43.0734830   9.7986890
  36.7527850  43.5510060  10.5553940  36.3305120  42.6199950   9.4387990
  41.3045570  44.1920420   3.8299440  41.4258390  44.1506900   4.7785260
  40.9194080  45.0544570   3.6746170  45.2673940  41.9687820  11.8463130
  45.2846680  42.4196470  12.6904980  45.0189520  41.0693460  12.0596570
  40.3167070  46.5021560   3.2282740  39.7483970  46.0539810   2.6018650
  41.0256070  46.8614340   2.6947890  48.6944690  39.3820000  17.6849510
  49.0190460  38.6509660  18.2107490  48.7301200  39.0633640  16.7830500
  35.3936250  50.4033580  17.1049470  35.0091040  49.7627250  17.7032430
  35.7048440  51.1069700  17.6744200  41.5433390  47.2510120  12.5858090
  41.9103520  46.7768690  13.3319430  41.3538450  48.1251690  12.9266430
  34.4073880  41.9953810   8.7151560  34.1220800  41.6309480   9.5530180
  34.3452740  41.2634270   8.1014700  39.3332760  46.2918760  14.9042300
  39.0289830  47.1710740  15.1292660  40.2879220  46.3518550  14.9399740
  37.8614550  50.4979750   5.5009150  37.0876810  49.9577370   5.3407870
  38.5909180  49.9786360   5.1626910  48.6202530  49.4945110  11.2935540
  49.3401650  49.9900400  10.9031650  48.4184350  48.8163000  10.6489410
  44.0812470  40.8883070   5.4364930  43.2677080  40.3896240   5.3610240
  43.8874420  41.7281320   5.0201280  44.0021330  49.5654170  17.1804540
  43.9358640  48.6449840  16.9262130  43.3726470  49.6629610  17.8949180
  46.7960860  45.2602720   3.7327090  47.6840480  45.5719950   3.5578430
  46.7665950  44.3874970   3.3407670  37.9051950  50.1660130   9.1387960
  38.4230620  49.3628390   9.0844850  37.4535970  50.1039270   9.9804790
  42.7921450  51.4326410   4.4115260  43.1337150  52.1768640   3.9158580
  41.9634160  51.7457530   4.7740090  35.3896490  47.1321500  16.0513660
  35.0311430  47.7975350  16.6387000  35.0951050  46.3005050  16.4226280
  38.5909610  47.5905740  18.9353210  38.2909750  47.7362920  18.0381030
  39.3620850  47.0311030  18.8426600  43.9338060  52.3874740  16.9308340
  43.9482600  51.4555700  16.7127250  43.2263160  52.4734500  17.5698110
  49.0675130  46.5714560   3.2006950  48.9838850  47.0028780   2.3503390
  49.7869320  47.0312910   3.6333770  50.1449270  49.0282080  16.2776920
  49.4197460  49.6210860  16.0806310  50.6724730  49.0205620  15.4790290
  50.0962380  53.4256820   5.9289080  49.4538540  52.7712440   6.2032800
  49.7093040  53.8311910   5.1529750  45.6748860  50.7542250   9.7760770
  46.0272680  50.1570380   9.1162140  44.7911190  50.4286480   9.9469020
  41.7612140  51.5139940   7.1831180  42.4483270  52.0609150   7.5638770
  40.9744560  52.0580670   7.2180790  33.9004540  47.1312760   2.6748260
  34.7699390  47.4137560   2.9584180  33.4094860  47.9448630   2.5597070
  41.0639350  48.5185970   6.7956540  41.5202130  49.3291220   7.0216730
  40.7127560  48.2009110   7.6275030  43.3671960  54.0292310  14.0248840
  44.0114180  54.2351690  14.7022260  43.7301400  53.2680710  13.5719690
  36.9651130  38.8623620   7.2679060  36.8365760  38.8541520   8.2163980
  36.1413150  39.2006710   6.9170070  44.6404040  52.0324660  12.7426290
  45.2826270  51.3317820  12.8558460  45.1653390  52.8123100  12.5623180
  48.4859760  52.3173280   2.4665430  48.2597340  51.6003720   3.0590070
  48.0955960  52.0685720   1.6287180  46.4141660  52.8319560  15.9462350
  46.7497900  53.4186250  16.6240270  45.4942000  52.7012270  16.1760140
  34.2675790  56.3440140   3.2409890  34.6273430  56.9429480   2.5867160
  34.1268130  56.8900030   4.0144920  33.9645060  40.6214740  16.7285760
  33.2503580  40.8211660  17.3338370  34.3840100  39.8454310  17.1000560
  48.0676010  50.2345220   4.1279590  47.7797710  50.6957910   4.9157470
  48.8628180  49.7742990   4.3963810  34.2517650  54.6095000  17.7152290
  34.3608770  53.6689740  17.5747680  33.5998210  54.8749750  17.0666020
  42.2430240  52.8810890  19.1150410  41.9227110  52.1620130  19.6596100
  41.5688600  53.5565960  19.1886470  40.2844410  53.7271340   4.0583560
  40.2754510  54.4601030   3.4428070  39.3642770  53.4802920   4.1510520
  35.8851050  48.9486230   4.8030320  35.2779000  49.6885130   4.8125620
  36.3600400  49.0385590   3.9768520  45.4583840  43.1137050  14.4787210
  45.8264660  42.2932260  14.8066780  44.5982040  43.1738940  14.8942860
  48.8245870  42.0693990   5.2874770  48.1959030  42.1739660   4.5733000
  48.3297790  42.2890770   6.0768650  43.2704010  53.7899580   2.7208750
  43.3715990  53.5863570   1.7910730  42.3705750  53.5357860   2.9256530
  40.7929900  44.3479940   6.7032650  40.0846050  44.8166280   7.1446260
  41.0774380  43.6901950   7.3377840  42.4185830  45.7676640  14.7025180
  42.9171080  46.2422460  15.3677030  42.5608780  44.8440160  14.9095210
  44.8245330  41.0730600   8.1428440  44.7013110  41.0916730   7.1937950
  45.7729890  41.1209540   8.2626840  41.9122120  56.3085900   7.4156420
  42.1663620  56.2707290   6.4935790  40.9634600  56.1819230   7.4084670
  38.9964920  42.6565020   4.0783360  39.8455450  43.0935170   4.0123550
  38.6296190  42.9685280   4.9055420  49.6252690  41.9844600  15.5453570
  49.1226290  42.7250000  15.8847380  50.4409350  42.3728600  15.2290360
  47.9174700  47.2277780   8.9914930  46.9764840  47.2428010   9.1662620
  48.2318770  46.4413740   9.4375230  37.8956340  48.9097380   2.5518890
  38.6619610  48.7978740   3.1144320  37.9731030  48.2135350   1.8995660
  36.5903100  46.3422450   3.2351780  36.6706690  45.3949960   3.3469180
  37.4822850  46.6729330   3.3412440  49.9200280  54.3986630  10.6669190
  50.0447700  55.2217800  11.1393000  50.7865840  54.1877360  10.3193340
  37.3917810  56.4917840  10.3386320  38.1280290  55.9433300  10.6094890
  37.7758730  57.3573850  10.1992310  34.2763290  52.5591410   6.2127830
  33.3503070  52.8012550   6.2033240  34.7419720  53.3865670   6.0912580
  45.2340720  51.7843780  19.4747310  44.6278880  51.8075380  18.7343060
  44.9294830  51.0526820  20.0114560  46.6641090  55.5124070  18.0856720
  47.6162840  55.4282090  18.0356960  46.5169310  56.1765780  18.7590510
  49.5550290  54.8918280   3.5848630  49.2691800  54.4783420   2.7702810
  49.3569840  55.8205990   3.4649150  34.1173900  48.1637370  18.4707950
  34.6212920  47.5844650  19.0424180  33.3781320  48.4477600  19.0084320
  41.1711840  49.5708360  18.0043470  40.4057510  50.1393360  17.9198140
  41.3527800  49.2784570  17.1111700  44.2600250  49.9471590   2.6296230
  43.7110350  50.3940890   3.2738970  44.8819510  49.4420840   3.1533900
  48.3135190  51.3013690  18.5618490  49.0544660  51.6389450  18.0585950
  47.5507870  51.4705750  18.0088260  36.1496980  46.3066960  19.3658020
  36.1902320  46.0080830  20.2743250  37.0042480  46.7074570  19.2065540
  39.9275370  48.9062510   4.5261530  40.3491790  48.7402380   5.3692920
  40.0526210  48.0962740   4.0316670  38.0902790  44.8859060  17.3332510
  37.5599250  44.3950010  16.7055850  38.7590860  45.3143260  16.7990440
  46.9880850  49.3528520  17.0973700  47.4021870  49.5073600  17.9464120
  46.0531850  49.4783740  17.2599480  47.4603020  46.6924680  19.1012850
  48.0423790  45.9377000  19.0133330  47.6364790  47.2232120  18.3244330
  38.5775090  41.8521430  17.4129800  38.4831960  41.2342180  16.6880670
  37.9972480  42.5787720  17.1859710  41.3436530  40.4094670  14.4457190
  40.8953830  40.4318930  13.6002740  40.7101730  40.0113690  15.0427490
  41.7496080  49.3049000  15.0669630  42.1684190  50.1481730  14.8945870
  40.8304710  49.4421040  14.8376410  44.0859980  47.0365180  16.4507470
  44.2056190  46.4406320  17.1902310  44.9453980  47.0734870  16.0308770
  46.4247880  47.5902370  15.0269980  45.8983100  48.1144990  14.4235120
  46.7679220  48.2229760  15.6579710  39.6003500  55.6102010  16.1827360
  39.0624590  56.3348070  15.8636060  39.8537460  55.1332350  15.3924700
  40.8528750  43.5786530  17.7083290  41.4428440  43.2702380  18.3961110
  40.0348990  43.1066280  17.8643190  45.6722180  43.1952340  17.9416310
  44.9837700  42.5333880  17.8766300  46.3928200  42.7490610  18.3864770
  46.3022580  39.7903970   4.0006570  46.5824870  38.9471870   4.3565990
  45.5288310  40.0227080   4.5145320  42.4565710  56.8453220  16.4414010
  42.3824410  57.7488360  16.7486380  41.5544550  56.5265120  16.4136080
  40.8402000  41.0230980   2.4453770  40.4924000  40.3454970   1.8656220
  41.0414770  40.5620490   3.2597160  43.0051040  56.0111730   4.0640370
  43.9001830  56.3496700   4.0859130  43.0368670  55.2891140   3.4364650
  36.6447200  51.3838780   2.2927370  37.0822070  51.9268450   2.9484950
  37.1294930  50.5585730   2.3023710  33.8593000  54.1727810   9.7447630
  34.1896010  53.3048870   9.5126270  34.2884000  54.3786330  10.5752590
  38.4554920  52.5036820   7.4049600  38.1550460  52.3801790   8.3053510
  38.3492410  51.6445410   6.9965330  34.3483210  55.0398400  12.4829260
  33.9114200  55.2199200  13.3153410  34.9160890  55.7973020  12.3410980
  49.9845390  54.5415400  16.7706570  49.3847380  54.6007960  16.0270490
  50.1139290  53.6020380  16.9003420  51.2246840  52.2833220   2.1076280
  50.3939800  52.3509870   2.5783510  51.4018670  53.1737340   1.8043140
  50.6803300  49.0280700   4.6110480  51.4422210  49.5977350   4.7170170
  50.6957670  48.4607900   5.3818790  34.1807640  47.5518630   8.8418140
  33.5256480  47.2830270   8.1977840  35.0185590  47.4423110   8.3920120
  51.6863270  49.8830800   9.4552410  52.0572100  49.0998120   9.0488380
  52.3265200  50.5719900   9.2769710  48.6697030  51.2667380  14.8682730
  47.8556870  51.6964540  15.1308520  49.0771230  51.8785790  14.2551780
  50.7322470  49.3215070   1.7683000  51.0071310  50.2293950   1.6402220
  50.5433210  49.2577600   2.7044990  47.1298080  42.3459920   3.0636630
  47.5482960  42.1590900   2.2233290  46.8234140  41.4938970   3.3739560
  50.6287810  47.2584060   6.7612430  50.2531410  46.4911990   6.3293720
  49.8990930  47.6406760   7.2487360  35.2183570  47.9371200  13.3821480
  35.5856610  47.8498600  14.2617500  34.6494390  47.1737750  13.2828340
  50.0187430  46.4055580  16.3951950  49.7873520  46.1768330  15.4949900
  50.2791980  47.3255130  16.3496840  34.7699570  44.8480290  17.2879900
  33.8755620  44.8147050  17.6273610  35.3097120  45.0467080  18.0531150
  48.4575500  41.6312010  19.1731650  49.3345680  41.6395410  19.5565650
  48.4696340  40.8942850  18.5624000  33.3945720  44.7617560   4.7843470
  32.4909800  45.0247760   4.6095130  33.8786340  45.0328730   4.0043430
  49.9038770  45.4841550  10.0619670  50.4276250  44.9904200   9.4309840
  50.4898190  45.6191910  10.8067240  50.0828490  45.5681420  13.5839220
  49.1331200  45.5344960  13.6984210  50.2641500  46.4781530  13.3488990
  35.9372930  43.8183100   2.6937850  36.6464630  43.3966320   2.2085130
  35.2212870  43.8858330   2.0621200  49.3938740  44.7414900   6.0012080
  49.8897860  44.5085770   6.7860960  49.1954810  43.9026740   5.5849720
  35.2739280  39.1228620  11.6363120  35.9215470  38.5726000  11.1958280
  35.6941120  39.3771770  12.4578930  50.8225900  43.3775850   8.5349760
  50.7125180  43.2231890   9.4732030  51.5833490  42.8496790   8.2925170
  49.1691620  39.3169980  14.9932760  49.8063840  39.9304120  15.3591950
  49.3166510  39.3530640  14.0481990  51.7116170  41.2083770   1.7755900
  52.6365480  41.0764950   1.5674190  51.6891960  41.2876590   2.7292350
  51.7854660  41.9794430   4.4012610  50.9906160  41.9139550   4.9305520
  51.9897940  42.9145070   4.3897960  48.7273080  56.0185980   8.3951000
  49.3232150  55.6970550   7.7185420  48.9851230  55.5457800   9.1864270
  35.0271280  39.2784290  14.3788440  34.6786100  39.7348110  15.1446620
  34.6958980  38.3841420  14.4610870  36.6335650  52.4503890  18.5441630
  36.5905280  52.0796800  19.4256090  36.7646660  53.3881460  18.6843450
  40.3341680  54.0063480  14.1451350  40.0933040  54.2738040  13.2581870
  41.2744320  54.1769210  14.2002210  42.5396100  40.4696170  17.9007860
  42.4784990  41.0618000  18.6503270  43.4796480  40.3622130  17.7558120
  45.1770660  40.1266230  17.5400150  45.7911070  40.4445520  16.8781230
  45.7220220  39.6414820  18.1596010  51.5945840  56.0257860  14.9461990
  51.1004120  56.4226730  14.2289120  50.9859130  55.4007070  15.3399270
  35.6991920  38.8060490  17.6539210  36.2474910  38.6248540  16.8905320
  35.7647230  38.0154600  18.1895520  36.4723680  55.3966140  15.6639410
  35.8784000  55.2650840  16.4029450  36.4647520  54.5604280  15.1981510
  45.9178700  38.6898370  13.8669440  45.0438540  39.0233480  13.6642370
  45.8089450  38.2171550  14.6921310  46.8250680  40.8969240  15.2511160
  46.4964040  40.0821000  14.8712890  47.7732980  40.8539050  15.1276850
  49.2785290  56.6681280  12.2248730  48.8188260  57.4197090  11.8506750
  48.6497750  55.9487750  12.1663530  36.1035910  52.7624520  14.6147450
  35.3769970  52.1429810  14.5473400  36.1645060  53.1565130  13.7445530
  39.7081010  54.9769520  11.3996860  40.2246030  54.3656880  10.8745120
  40.3578390  55.4798300  11.8907870  42.4476510  55.8678010  12.2265840
  42.7354320  55.6132310  11.3498850  42.9599730  55.3155370  12.8171410
  43.6653520  39.6068210  12.8062350  42.8825310  40.0813710  13.0859110
  43.3716450  38.7023040  12.6975530  48.2174590  40.3091310  10.8511440
  48.6582680  40.2536410  10.0033040  47.9482180  41.2249320  10.9221620
  50.0813160  39.9406550   8.8620260  50.0201560  38.9967770   8.7151280
  50.8605190  40.0486640   9.4073720  34.3865910  56.0798910   7.8244210
  34.2187950  55.4469590   8.5226100  33.5200420  56.2858310   7.4738400
  35.0093930  39.9115690   5.3276070  35.7673290  40.0244570   4.7540100
  34.5471100  40.7484890   5.2819500  41.5507740  42.0254960   8.3178380
  40.7382250  41.6511850   7.9774260  42.0549380  41.2700040   8.6199570
  46.0532720  38.6897410   9.5561450  46.6562090  39.2617620  10.0309970
  45.3125710  39.2536850   9.3335350  49.1967320  39.0918970   4.8301730
  49.3917950  39.9902420   5.0969160  48.4097190  38.8606050   5.3234680
  35.9928610  54.7732140   5.2694350  35.4676230  55.1540170   4.5656310
  35.9173190  55.3982910   5.9904060  37.3819080  40.4379740   3.8678040
  37.9111840  39.6509540   3.7385990  38.0147400  41.1170930   4.1013570
  39.5756920  40.1754880   6.9223430  38.9459660  39.4742190   7.0893560
  39.0362060  40.9359010   6.7056590  42.5148870  56.7894110  19.5934040
  43.4416180  56.5538380  19.6370000  42.4999300  57.6166110  19.1120070
  50.7493930  56.3319680   6.5908290  50.9246120  55.6457420   5.9469210
  50.0515500  56.8566730   6.1984960  39.7012480  39.4538860  19.3575920
  39.4196750  39.9572460  18.5936740  40.0832180  38.6560610  18.9918050
  38.5921580  56.7214520   4.1443600  39.3240400  56.4373800   3.5967490
  38.8515250  56.4827800   5.0342980  37.7536370  52.8379250   4.1489930
  37.1245250  53.3064350   4.6975760  37.8684200  51.9928470   4.5836120
  46.3027940  38.8692440  19.9356390  46.1893390  39.1887050  20.8307910
  47.1197680  39.2704950  19.6393670  49.0826430  56.0163970  19.4175080
  49.8751750  55.5213200  19.2101040  49.3759580  56.6954110  20.0250690
  45.2086090  28.1141420  65.3965090  45.1280140  27.1996030  65.1256800
  44.7950510  28.6108490  64.6904800  43.3404130  29.8920440  67.2774360
  42.5646230  29.4120880  67.5672930  43.9917060  29.2126090  67.1030520
  37.3569960  30.2040250  68.1550120  36.5254840  29.9488960  68.5546630
  37.9650940  30.2751020  68.8908040  47.3611560  34.2980630  66.0573490
  46.8993090  33.5267870  66.3860660  48.1737110  34.3246700  66.5625940
  37.3371220  34.2380340  68.3508140  37.6399260  33.3478080  68.1718360
  38.0814810  34.7950560  68.1230390  35.7661910  25.1642140  61.9392510
  34.8778610  25.5058110  61.8372390  36.0503100  24.9642460  61.0473340
  33.7294920  27.7647790  67.8232210  34.3011030  26.9969990  67.8235850
  33.7296460  28.0636550  66.9138820  43.5874870  36.5838640  65.6777480
  42.9686310  37.0396140  65.1071920  44.4426650  36.7390100  65.2767180
  42.7813120  32.5677630  67.2844520  42.7121400  31.6267570  67.1233650
  43.5432980  32.6579040  67.8567090  34.9719790  23.1732150  69.6101140
  34.7922630  22.2757900  69.8903900  34.5699870  23.7204020  70.2848090
  43.8118290  25.3748010  67.5113450  44.1883110  24.5019890  67.3987120
  43.7137800  25.7106710  66.6203890  37.9423300  23.7473640  62.9730890
  38.0490050  24.6477370  63.2799650  37.0315660  23.6991610  62.6825540
  47.5942410  22.8698450  64.4441790  48.4152030  22.3795020  64.4867270
  47.6276490  23.4596110  65.1973630  35.5906460  25.6692650  68.2183480
  36.2716570  25.9331020  68.8370880  35.2754510  24.8293520  68.5521490
  39.7831030  26.7160010  67.3056070  40.2909250  27.2140980  67.9461090
  40.3144270  25.9395210  67.1295430  51.8841960  24.8865200  71.0085420
  51.1794130  25.2746910  70.4900530  52.1499880  25.5815490  71.6106350
  38.0667130  21.3558570  71.5719490  38.0685570  21.8730960  70.7665390
  37.2371440  20.8788750  71.5489420  44.4538220  31.4677880  63.0709390
  43.8355490  31.9327330  62.5072110  44.9661470  32.1605360  63.4878900
  39.3169980  30.9953750  69.7492990  38.9839360  31.6222670  70.3914060
  39.4936660  31.5215630  68.9694660  47.8303890  24.8098830  67.2169330
  47.1259460  25.0983720  67.7972440  48.1916050  25.6198940  66.8568890
  37.7482460  23.0668530  69.5789940  38.0899270  23.9110580  69.2843810
  36.8098270  23.2152270  69.6955280  38.5289080  32.9634550  71.5642170
  39.1463080  33.6385630  71.2826620  37.6682200  33.3722530  71.4729670
  33.8221420  32.1534410  60.4449020  33.4449400  32.6421510  59.7133920
  34.0794490  32.8259690  61.0755550  49.4466670  34.4273960  69.4796810
  48.7630190  35.0973070  69.4713480  49.9860960  34.6254610  68.7141670
  50.8990810  24.2553620  67.6078540  49.9515720  24.2892600  67.7393970
  51.2240800  25.0692570  67.9927900  41.4310350  20.5550800  65.9034530
  41.7385330  19.9997690  65.1870030  40.5011050  20.6895260  65.7207520
  46.9825410  36.2718090  68.1941990  46.9952570  35.8680380  67.3264250
  46.4300630  37.0465380  68.0903420  48.2770830  32.9934310  63.2832160
  48.1667160  32.0508640  63.4081580  48.2739080  33.3549950  64.1694920
  46.3810850  31.1747930  69.5224600  46.7979640  30.9608040  68.6878060
  47.1050670  31.4320720  70.0933220  43.8191110  28.6199630  62.6394650
  42.8920390  28.5537010  62.8683120  43.9715930  29.5579760  62.5249890
  43.8060190  24.8916630  59.6361810  42.8663860  25.0530590  59.7214270
  44.1243450  25.6102310  59.0897800  50.3272950  29.5735150  69.6140840
  49.4991580  29.6428240  69.1390970  50.9223430  30.1589460  69.1456670
  47.8488400  30.1819930  63.1429900  47.2300820  29.8439480  62.4956200
  47.8312850  29.5379690  63.8509090  47.2914960  26.3604470  70.5595710
  46.8786140  27.1858180  70.8135700  46.5590910  25.7749510  70.3672070
  39.4247750  29.1464370  65.4214380  39.0204750  28.4341620  64.9260280
  39.5110870  28.8017610  66.3102420  39.8929450  32.8331930  67.5853590
  39.5957740  32.2277400  66.9061370  40.8429270  32.8709240  67.4742950
  38.1376370  25.9207580  69.2013420  38.6890960  26.0302920  68.4266670
  38.6519880  26.2945180  69.9168650  47.9815060  36.4063800  71.2476690
  47.5045620  37.2135990  71.0549300  47.2976850  35.7542130  71.4002900
  38.9847880  32.5713620  74.2361390  38.0876410  32.7953590  74.4834790
  39.0100750  32.6948560  73.2872790  46.0253100  29.4206740  60.1502650
  46.4646380  28.5829170  60.0040470  46.7381520  30.0536140  60.2366790
  37.8119100  29.4426940  72.8118760  37.6726870  30.3149740  73.1806160
  36.9300460  29.0999750  72.6666700  44.1348480  34.3602810  64.1183890
  44.5744390  35.1027140  63.7039280  44.0735370  34.6029380  65.0422850
  39.6099450  35.3848640  75.0203910  39.5814880  35.7891590  74.1532340
  39.4464420  34.4559000  74.8575510  49.6070240  20.6749550  58.4643690
  49.2942900  20.7676380  59.3642760  50.3682710  21.2530580  58.4141120
  36.1252380  28.0409350  62.9221030  36.0049980  28.7671440  62.3102300
  35.8153270  27.2712260  62.4448940  33.7637750  31.2124490  68.7289670
  33.8418170  31.3473260  67.7845390  34.3779430  30.5040380  68.9217790
  35.0085380  32.9124680  65.1395850  34.6013460  33.0539270  64.2849450
  35.8998390  32.6284840  64.9367060  50.9647520  33.3588590  73.4768090
  51.0910580  33.1200470  72.5585270  51.0068900  32.5273130  73.9490170
  44.8264260  37.0616590  72.0462900  45.3408930  36.9724600  72.8485330
  43.9833340  37.4076290  72.3390810  46.8018660  37.3471930  61.4746900
  46.6419800  37.0574870  62.3728730  46.6365370  36.5712060  60.9392130
  39.2807040  37.1270460  63.2518520  39.1049520  36.2106000  63.0386320
  38.4262780  37.4857750  63.4916320  46.5044790  34.8559490  60.0344900
  45.8109950  34.8536780  59.3747180  47.2467650  34.4318810  59.6039070
  46.0694720  36.4822200  64.1093390  46.5251670  35.7011580  64.4232010
  46.4087240  37.1929020  64.6534570  50.8171530  25.4121050  74.4417830
  50.2015800  25.9200720  73.9133290  50.4967950  24.5119380  74.3843770
  33.8197270  32.2538660  71.2684130  33.9828310  31.7844020  70.4503500
  34.2849720  31.7462220  71.9332970  38.5916040  21.3844420  66.3044700
  38.1484190  22.1653960  65.9729220  39.1501030  21.7074310  67.0115640
  42.8785850  24.2512940  71.9080020  42.4165220  24.4595960  72.7199960
  42.4763960  23.4372290  71.6050690  47.8790360  25.4721890  73.0376680
  47.0283950  25.1727640  73.3585750  47.7192150  25.7163900  72.1260500
  44.9740070  26.9723640  75.1375470  45.2993480  26.1387390  74.7977700
  45.7620400  27.4952160  75.2853800  41.7074860  21.0055120  61.1850530
  41.0829040  21.0014990  61.9103840  41.6204980  20.1386080  60.7886500
  40.6291940  21.9291750  68.1634300  40.9264270  22.8354580  68.0826320
  41.1777500  21.4410530  67.5493870  38.3830260  26.5077990  64.0325950
  38.1571180  26.2915160  64.9372570  37.6022790  26.9406450  63.6871920
  45.6128020  26.5141360  62.6316600  45.0136910  27.2377160  62.4480220
  46.1607630  26.4518140  61.8493050  40.8229470  27.4063570  74.6986220
  40.7273070  26.4658300  74.5486620  41.6661450  27.6278640  74.3034290
  44.2192890  25.1504900  64.6619880  44.6122460  25.4677100  63.8488570
  44.5809740  24.2716780  64.7764400  35.9540010  23.8177240  72.8520000
  35.5603400  24.6652450  73.0592780  35.2658410  23.1803610  73.0428640
  33.2557060  21.7405700  66.8850080  32.9670110  22.3108560  67.5975060
  34.0002820  21.2610150  67.2481310  33.4427290  25.6825820  58.0952800
  33.3601960  26.6256580  58.2367790  33.0910350  25.5400730  57.2165150
  44.8048030  27.7410650  68.7570660  44.0729150  28.2497460  69.1060760
  44.4072370  26.9240630  68.4559440  41.2425420  24.4164850  67.1623150
  41.2461480  23.9754800  66.3127690  42.1376540  24.7382180  67.2694970
  37.0927800  24.2991340  66.1217360  36.7527850  24.7766570  66.8784410
  36.3305120  23.8456460  65.7618460  41.3045570  25.4176930  60.1529910
  41.4258390  25.3763410  61.1015730  40.9194080  26.2801080  59.9976640
  45.2673940  23.1944330  68.1693600  45.2846680  23.6452980  69.0135450
  45.0189520  22.2949970  68.3827040  40.3167070  27.7278070  59.5513210
  39.7483970  27.2796320  58.9249120  41.0256070  28.0870850  59.0178360
  48.6944690  20.6076510  74.0079980  49.0190460  19.8766170  74.5337960
  48.7301200  20.2890150  73.1060970  35.3936250  31.6290090  73.4279940
  35.0091040  30.9883760  74.0262900  35.7048440  32.3326210  73.9974670
  41.5433390  28.4766630  68.9088560  41.9103520  28.0025200  69.6549900
  41.3538450  29.3508200  69.2496900  34.4073880  23.2210320  65.0382030
  34.1220800  22.8565990  65.8760650  34.3452740  22.4890780  64.4245170
  39.3332760  27.5175270  71.2272770  39.0289830  28.3967250  71.4523130
  40.2879220  27.5775060  71.2630210  37.8614550  31.7236260  61.8239620
  37.0876810  31.1833880  61.6638340  38.5909180  31.2042870  61.4857380
  48.6202530  30.7201620  67.6166010  49.3401650  31.2156910  67.2262120
  48.4184350  30.0419510  66.9719880  44.0812470  22.1139580  61.7595400
  43.2677080  21.6152750  61.6840710  43.8874420  22.9537830  61.3431750
  44.0021330  30.7910680  73.5035010  43.9358640  29.8706350  73.2492600
  43.3726470  30.8886120  74.2179650  46.7960860  26.4859230  60.0557560
  47.6840480  26.7976460  59.8808900  46.7665950  25.6131480  59.6638140
  37.9051950  31.3916640  65.4618430  38.4230620  30.5884900  65.4075320
  37.4535970  31.3295780  66.3035260  42.7921450  32.6582920  60.7345730
  43.1337150  33.4025150  60.2389050  41.9634160  32.9714040  61.0970560
  35.3896490  28.3578010  72.3744130  35.0311430  29.0231860  72.9617470
  35.0951050  27.5261560  72.7456750  38.5909610  28.8162250  75.2583680
  38.2909750  28.9619430  74.3611500  39.3620850  28.2567540  75.1657070
  43.9338060  33.6131250  73.2538810  43.9482600  32.6812210  73.0357720
  43.2263160  33.6991010  73.8928580  49.0675130  27.7971070  59.5237420
  48.9838850  28.2285290  58.6733860  49.7869320  28.2569420  59.9564240
  50.1449270  30.2538590  72.6007390  49.4197460  30.8467370  72.4036780
  50.6724730  30.2462130  71.8020760  50.0962380  34.6513330  62.2519550
  49.4538540  33.9968950  62.5263270  49.7093040  35.0568420  61.4760220
  45.6748860  31.9798760  66.0991240  46.0272680  31.3826890  65.4392610
  44.7911190  31.6542990  66.2699490  41.7612140  32.7396450  63.5061650
  42.4483270  33.2865660  63.8869240  40.9744560  33.2837180  63.5411260
  33.9004540  28.3569270  58.9978730  34.7699390  28.6394070  59.2814650
  33.4094860  29.1705140  58.8827540  41.0639350  29.7442480  63.1187010
  41.5202130  30.5547730  63.3447200  40.7127560  29.4265620  63.9505500
  43.3671960  35.2548820  70.3479310  44.0114180  35.4608200  71.0252730
  43.7301400  34.4937220  69.8950160  36.9651130  20.0880130  63.5909530
  36.8365760  20.0798030  64.5394450  36.1413150  20.4263220  63.2400540
  44.6404040  33.2581170  69.0656760  45.2826270  32.5574330  69.1788930
  45.1653390  34.0379610  68.8853650  48.4859760  33.5429790  58.7895900
  48.2597340  32.8260230  59.3820540  48.0955960  33.2942230  57.9517650
  46.4141660  34.0576070  72.2692820  46.7497900  34.6442760  72.9470740
  45.4942000  33.9268780  72.4990610  34.2675790  37.5696650  59.5640360
  34.6273430  38.1685990  58.9097630  34.1268130  38.1156540  60.3375390
  33.9645060  21.8471250  73.0516230  33.2503580  22.0468170  73.6568840
  34.3840100  21.0710820  73.4231030  48.0676010  31.4601730  60.4510060
  47.7797710  31.9214420  61.2387940  48.8628180  30.9999500  60.7194280
  34.2517650  35.8351510  74.0382760  34.3608770  34.8946250  73.8978150
  33.5998210  36.1006260  73.3896490  42.2430240  34.1067400  75.4380880
  41.9227110  33.3876640  75.9826570  41.5688600  34.7822470  75.5116940
  40.2844410  34.9527850  60.3814030  40.2754510  35.6857540  59.7658540
  39.3642770  34.7059430  60.4740990  35.8851050  30.1742740  61.1260790
  35.2779000  30.9141640  61.1356090  36.3600400  30.2642100  60.2998990
  45.4583840  24.3393560  70.8017680  45.8264660  23.5188770  71.1297250
  44.5982040  24.3995450  71.2173330  48.8245870  23.2950500  61.6105240
  48.1959030  23.3996170  60.8963470  48.3297790  23.5147280  62.3999120
  43.2704010  35.0156090  59.0439220  43.3715990  34.8120080  58.1141200
  42.3705750  34.7614370  59.2487000  40.7929900  25.5736450  63.0263120
  40.0846050  26.0422790  63.4676730  41.0774380  24.9158460  63.6608310
  42.4185830  26.9933150  71.0255650  42.9171080  27.4678970  71.6907500
  42.5608780  26.0696670  71.2325680  44.8245330  22.2987110  64.4658910
  44.7013110  22.3173240  63.5168420  45.7729890  22.3466050  64.5857310
  41.9122120  37.5342410  63.7386890  42.1663620  37.4963800  62.8166260
  40.9634600  37.4075740  63.7315140  38.9964920  23.8821530  60.4013830
  39.8455450  24.3191680  60.3354020  38.6296190  24.1941790  61.2285890
  49.6252690  23.2101110  71.8684040  49.1226290  23.9506510  72.2077850
  50.4409350  23.5985110  71.5520830  47.9174700  28.4534290  65.3145400
  46.9764840  28.4684520  65.4893090  48.2318770  27.6670250  65.7605700
  37.8956340  30.1353890  58.8749360  38.6619610  30.0235250  59.4374790
  37.9731030  29.4391860  58.2226130  36.5903100  27.5678960  59.5582250
  36.6706690  26.6206470  59.6699650  37.4822850  27.8985840  59.6642910
  49.9200280  35.6243140  66.9899660  50.0447700  36.4474310  67.4623470
  50.7865840  35.4133870  66.6423810  37.3917810  37.7174350  66.6616790
  38.1280290  37.1689810  66.9325360  37.7758730  38.5830360  66.5222780
  34.2763290  33.7847920  62.5358300  33.3503070  34.0269060  62.5263710
  34.7419720  34.6122180  62.4143050  40.5020120  36.8904660  58.4842360
  41.2948730  37.1793490  58.0324150  39.9824470  36.4596830  57.8054840
  46.6641090  36.7380580  74.4087190  47.6162840  36.6538600  74.3587430
  46.5169310  37.4022290  75.0820980  49.5550290  36.1174790  59.9079100
  49.2691800  35.7039930  59.0933280  49.3569840  37.0462500  59.7879620
  34.1173900  29.3893880  74.7938420  34.6212920  28.8101160  75.3654650
  33.3781320  29.6734110  75.3314790  41.0197520  32.1108070  58.3484710
  40.9148160  31.4960420  59.0746090  40.8521740  31.5873960  57.5647720
  41.1711840  30.7964870  74.3273940  40.4057510  31.3649870  74.2428610
  41.3527800  30.5041080  73.4342170  44.2600250  31.1728100  58.9526700
  43.7110350  31.6197400  59.5969440  44.8819510  30.6677350  59.4764370
  48.3135190  32.5270200  74.8848960  49.0544660  32.8645960  74.3816420
  47.5507870  32.6962260  74.3318730  39.9275370  30.1319020  60.8492000
  40.3491790  29.9658890  61.6923390  40.0526210  29.3219250  60.3547140
  38.0902790  26.1115570  73.6562980  37.5599250  25.6206520  73.0286320
  38.7590860  26.5399770  73.1220910  42.4403010  29.1556630  58.0969100
  42.9608670  28.4405650  57.7310250  43.0871410  29.7942500  58.3969610
  46.9880850  30.5785030  73.4204170  47.4021870  30.7330110  74.2694590
  46.0531850  30.7040250  73.5829950  47.4603020  27.9181190  75.4243320
  48.0423790  27.1633510  75.3363800  47.6364790  28.4488630  74.6474800
  38.5775090  23.0777940  73.7360270  38.4831960  22.4598690  73.0111140
  37.9972480  23.8044230  73.5090180  41.3436530  21.6351180  70.7687660
  40.8953830  21.6575440  69.9233210  40.7101730  21.2370200  71.3657960
  41.7496080  30.5305510  71.3900100  42.1684190  31.3738240  71.2176340
  40.8304710  30.6677550  71.1606880  44.0859980  28.2621690  72.7737940
  44.2056190  27.6662830  73.5132780  44.9453980  28.2991380  72.3539240
  46.4247880  28.8158880  71.3500450  45.8983100  29.3401500  70.7465590
  46.7679220  29.4486270  71.9810180  38.8234270  26.2052250  57.7950160
  38.6223330  25.3419610  58.1563500  38.6526320  26.1185610  56.8571760
  39.6003500  36.8358520  72.5057830  39.0624590  37.5604580  72.1866530
  39.8537460  36.3588860  71.7155170  40.8528750  24.8043040  74.0313760
  41.4428440  24.4958890  74.7191580  40.0348990  24.3322790  74.1873660
  45.6722180  24.4208850  74.2646780  44.9837700  23.7590390  74.1996770
  46.3928200  23.9747120  74.7095240  46.3022580  21.0160480  60.3237040
  46.5824870  20.1728380  60.6796460  45.5288310  21.2483590  60.8375790
  37.6217070  23.3052870  57.7828040  37.9242970  23.3120300  56.8747190
  38.3611660  22.9550730  58.2795700  42.4565710  38.0709730  72.7644480
  42.3824410  38.9744870  73.0716850  41.5544550  37.7521630  72.7366550
  40.8402000  22.2487490  58.7684240  40.4924000  21.5711480  58.1886690
  41.0414770  21.7877000  59.5827630  43.0051040  37.2368240  60.3870840
  43.9001830  37.5753210  60.4089600  43.0368670  36.5147650  59.7595120
  36.6447200  32.6095290  58.6157840  37.0822070  33.1524960  59.2715420
  37.1294930  31.7842240  58.6254180  33.8593000  35.3984320  66.0678100
  34.1896010  34.5305380  65.8356740  34.2884000  35.6042840  66.8983060
  38.4554920  33.7293330  63.7280070  38.1550460  33.6058300  64.6283980
  38.3492410  32.8701920  63.3195800  34.3483210  36.2654910  68.8059730
  33.9114200  36.4455710  69.6383880  34.9160890  37.0229530  68.6641450
  49.9845390  35.7671910  73.0937040  49.3847380  35.8264470  72.3500960
  50.1139290  34.8276890  73.2233890  51.2246840  33.5089730  58.4306750
  50.3939800  33.5766380  58.9013980  51.4018670  34.3993850  58.1273610
  50.6803300  30.2537210  60.9340950  51.4422210  30.8233860  61.0400640
  50.6957670  29.6864410  61.7049260  34.1807640  28.7775140  65.1648610
  33.5256480  28.5086780  64.5208310  35.0185590  28.6679620  64.7150590
  51.6863270  31.1087310  65.7782880  52.0572100  30.3254630  65.3718850
  52.3265200  31.7976410  65.6000180  48.6697030  32.4923890  71.1913200
  47.8556870  32.9221050  71.4538990  49.0771230  33.1042300  70.5782250
  50.7322470  30.5471580  58.0913470  51.0071310  31.4550460  57.9632690
  50.5433210  30.4834110  59.0275460  47.1298080  23.5716430  59.3867100
  47.5482960  23.3847410  58.5463760  46.8234140  22.7195480  59.6970030
  50.6287810  28.4840570  63.0842900  50.2531410  27.7168500  62.6524190
  49.8990930  28.8663270  63.5717830  35.2183570  29.1627710  69.7051950
  35.5856610  29.0755110  70.5847970  34.6494390  28.3994260  69.6058810
  50.0187430  27.6312090  72.7182420  49.7873520  27.4024840  71.8180370
  50.2791980  28.5511640  72.6727310  34.7699570  26.0736800  73.6110370
  33.8755620  26.0403560  73.9504080  35.3097120  26.2723590  74.3761620
  48.4575500  22.8568520  75.4962120  49.3345680  22.8651920  75.8796120
  48.4696340  22.1199360  74.8854470  33.3945720  25.9874070  61.1073940
  32.4909800  26.2504270  60.9325600  33.8786340  26.2585240  60.3273900
  49.9038770  26.7098060  66.3850140  50.4276250  26.2160710  65.7540310
  50.4898190  26.8448420  67.1297710  50.0828490  26.7937930  69.9069690
  49.1331200  26.7601470  70.0214680  50.2641500  27.7038040  69.6719460
  35.9372930  25.0439610  59.0168320  36.6464630  24.6222830  58.5315600
  35.2212870  25.1114840  58.3851670  35.5847090  21.0978940  58.0570970
  36.3075220  21.6387880  58.3752190  35.8571610  20.8242360  57.1812510
  49.3938740  25.9671410  62.3242550  49.8897860  25.7342280  63.1091430
  49.1954810  25.1283250  61.9080190  35.2739280  20.3485130  67.9593590
  35.9215470  19.7982510  67.5188750  35.6941120  20.6028280  68.7809400
  50.8225900  24.6032360  64.8580230  50.7125180  24.4488400  65.7962500
  51.5833490  24.0753300  64.6155640  49.1691620  20.5426490  71.3163230
  49.8063840  21.1560630  71.6822420  49.3166510  20.5787150  70.3712460
  51.7116170  22.4340280  58.0986370  52.6365480  22.3021460  57.8904660
  51.6891960  22.5133100  59.0522820  51.7854660  23.2050940  60.7243080
  50.9906160  23.1396060  61.2535990  51.9897940  24.1401580  60.7128430
  48.7273080  37.2442490  64.7181470  49.3232150  36.9227060  64.0415890
  48.9851230  36.7714310  65.5094740  35.0271280  20.5040800  70.7018910
  34.6786100  20.9604620  71.4677090  34.6958980  19.6097930  70.7841340
  36.6335650  33.6760400  74.8672100  36.5905280  33.3053310  75.7486560
  36.7646660  34.6137970  75.0073920  40.3341680  35.2319990  70.4681820
  40.0933040  35.4994550  69.5812340  41.2744320  35.4025720  70.5232680
  42.5396100  21.6952680  74.2238330  42.4784990  22.2874510  74.9733740
  43.4796480  21.5878640  74.0788590  45.1770660  21.3522740  73.8630620
  45.7911070  21.6702030  73.2011700  45.7220220  20.8671330  74.4826480
  51.5945840  37.2514370  71.2692460  51.1004120  37.6483240  70.5519590
  50.9859130  36.6263580  71.6629740  35.6991920  20.0317000  73.9769680
  36.2474910  19.8505050  73.2135790  35.7647230  19.2411110  74.5125990
  36.4723680  36.6222650  71.9869880  35.8784000  36.4907350  72.7259920
  36.4647520  35.7860790  71.5211980  45.9178700  19.9154880  70.1899910
  45.0438540  20.2489990  69.9872840  45.8089450  19.4428060  71.0151780
  46.8250680  22.1225750  71.5741630  46.4964040  21.3077510  71.1943360
  47.7732980  22.0795560  71.4507320  49.2785290  37.8937790  68.5479200
  48.8188260  38.6453600  68.1737220  48.6497750  37.1744260  68.4894000
  36.1035910  33.9881030  70.9377920  35.3769970  33.3686320  70.8703870
  36.1645060  34.3821640  70.0676000  39.7081010  36.2026030  67.7227330
  40.2246030  35.5913390  67.1975590  40.3578390  36.7054810  68.2138340
  42.4476510  37.0934520  68.5496310  42.7354320  36.8388820  67.6729320
  42.9599730  36.5411880  69.1401880  43.6653520  20.8324720  69.1292820
  42.8825310  21.3070220  69.4089580  43.3716450  19.9279550  69.0206000
  48.2174590  21.5347820  67.1741910  48.6582680  21.4792920  66.3263510
  47.9482180  22.4505830  67.2452090  50.0813160  21.1663060  65.1850730
  50.0201560  20.2224280  65.0381750  50.8605190  21.2743150  65.7304190
  34.3865910  37.3055420  64.1474680  34.2187950  36.6726100  64.8456570
  33.5200420  37.5114820  63.7968870  35.0093930  21.1372200  61.6506540
  35.7673290  21.2501080  61.0770570  34.5471100  21.9741400  61.6049970
  41.5507740  23.2511470  64.6408850  40.7382250  22.8768360  64.3004730
  42.0549380  22.4956550  64.9430040  46.0532720  19.9153920  65.8791920
  46.6562090  20.4874130  66.3540440  45.3125710  20.4793360  65.6565820
  49.1967320  20.3175480  61.1532200  49.3917950  21.2158930  61.4199630
  48.4097190  20.0862560  61.6465150  35.9928610  35.9988650  61.5924820
  35.4676230  36.3796680  60.8886780  35.9173190  36.6239420  62.3134530
  37.3819080  21.6636250  60.1908510  37.9111840  20.8766050  60.0616460
  38.0147400  22.3427440  60.4244040  39.5756920  21.4011390  63.2453900
  38.9459660  20.6998700  63.4124030  39.0362060  22.1615520  63.0287060
  42.5148870  38.0150620  75.9164510  43.4416180  37.7794890  75.9600470
  42.4999300  38.8422620  75.4350540  50.7493930  37.5576190  62.9138760
  50.9246120  36.8713930  62.2699680  50.0515500  38.0823240  62.5215430
  39.7012480  20.6795370  75.6806390  39.4196750  21.1828970  74.9167210
  40.0832180  19.8817120  75.3148520  38.5921580  37.9471030  60.4674070
  39.3240400  37.6630310  59.9197960  38.8515250  37.7084310  61.3573450
  37.7536370  34.0635760  60.4720400  37.1245250  34.5320860  61.0206230
  37.8684200  33.2184980  60.9066590  37.3569960  30.2040250  49.3806630
  36.5254840  29.9488960  49.7803140  37.9650940  30.2751020  50.1164550
  37.3371220  34.2380340  49.5764650  37.6399260  33.3478080  49.3974870
  38.0814810  34.7950560  49.3486900  35.7661910  25.1642140  43.1649020
  34.8778610  25.5058110  43.0628900  36.0503100  24.9642460  42.2729850
  33.7294920  27.7647790  49.0488720  34.3011030  26.9969990  49.0492360
  33.7296460  28.0636550  48.1395330  43.5874870  36.5838640  46.9033990
  42.9686310  37.0396140  46.3328430  44.4426650  36.7390100  46.5023690
  34.9719790  23.1732150  50.8357650  34.7922630  22.2757900  51.1160410
  34.5699870  23.7204020  51.5104600  35.5906460  25.6692650  49.4439990
  36.2716570  25.9331020  50.0627390  35.2754510  24.8293520  49.7778000
  39.7831030  26.7160010  48.5312580  40.2909250  27.2140980  49.1717600
  40.3144270  25.9395210  48.3551940  51.8841960  24.8865200  52.2341930
  51.1794130  25.2746910  51.7157040  52.1499880  25.5815490  52.8362860
  38.0667130  21.3558570  52.7976000  38.0685570  21.8730960  51.9921900
  37.2371440  20.8788750  52.7745930  39.3169980  30.9953750  50.9749500
  38.9839360  31.6222670  51.6170570  39.4936660  31.5215630  50.1951170
  47.8303890  24.8098830  48.4425840  47.1259460  25.0983720  49.0228950
  48.1916050  25.6198940  48.0825400  37.7482460  23.0668530  50.8046450
  38.0899270  23.9110580  50.5100320  36.8098270  23.2152270  50.9211790
  38.5289080  32.9634550  52.7898680  39.1463080  33.6385630  52.5083130
  37.6682200  33.3722530  52.6986180  33.8221420  32.1534410  41.6705530
  33.4449400  32.6421510  40.9390430  34.0794490  32.8259690  42.3012060
  49.4466670  34.4273960  50.7053320  48.7630190  35.0973070  50.6969990
  49.9860960  34.6254610  49.9398180  50.8990810  24.2553620  48.8335050
  49.9515720  24.2892600  48.9650480  51.2240800  25.0692570  49.2184410
  46.9825410  36.2718090  49.4198500  46.9952570  35.8680380  48.5520760
  46.4300630  37.0465380  49.3159930  50.3272950  29.5735150  50.8397350
  49.4991580  29.6428240  50.3647480  50.9223430  30.1589460  50.3713180
  47.2914960  26.3604470  51.7852220  46.8786140  27.1858180  52.0392210
  46.5590910  25.7749510  51.5928580  39.4247750  29.1464370  46.6470890
  39.0204750  28.4341620  46.1516790  39.5110870  28.8017610  47.5358930
  39.8929450  32.8331930  48.8110100  39.5957740  32.2277400  48.1317880
  40.8429270  32.8709240  48.6999460  38.1376370  25.9207580  50.4269930
  38.6890960  26.0302920  49.6523180  38.6519880  26.2945180  51.1425160
  47.9815060  36.4063800  52.4733200  47.5045620  37.2135990  52.2805810
  47.2976850  35.7542130  52.6259410  38.9847880  32.5713620  55.4617900
  38.0876410  32.7953590  55.7091300  39.0100750  32.6948560  54.5129300
  37.8119100  29.4426940  54.0375270  37.6726870  30.3149740  54.4062670
  36.9300460  29.0999750  53.8923210  39.6099450  35.3848640  56.2460420
  39.5814880  35.7891590  55.3788850  39.4464420  34.4559000  56.0832020
  36.1252380  28.0409350  44.1477540  36.0049980  28.7671440  43.5358810
  35.8153270  27.2712260  43.6705450  51.5614270  36.1675740  57.5424590
  52.0373990  36.6458630  58.2213670  52.1821430  36.0993230  56.8170090
  33.7637750  31.2124490  49.9546180  33.8418170  31.3473260  49.0101900
  34.3779430  30.5040380  50.1474300  35.0085380  32.9124680  46.3652360
  34.6013460  33.0539270  45.5105960  35.8998390  32.6284840  46.1623570
  50.9647520  33.3588590  54.7024600  51.0910580  33.1200470  53.7841780
  51.0068900  32.5273130  55.1746680  44.8264260  37.0616590  53.2719410
  45.3408930  36.9724600  54.0741840  43.9833340  37.4076290  53.5647320
  39.2807040  37.1270460  44.4775030  39.1049520  36.2106000  44.2642830
  38.4262780  37.4857750  44.7172830  46.0694720  36.4822200  45.3349900
  46.5251670  35.7011580  45.6488520  46.4087240  37.1929020  45.8791080
  50.8171530  25.4121050  55.6674340  50.2015800  25.9200720  55.1389800
  50.4967950  24.5119380  55.6100280  33.8197270  32.2538660  52.4940640
  33.9828310  31.7844020  51.6760010  34.2849720  31.7462220  53.1589480
  38.5916040  21.3844420  47.5301210  38.1484190  22.1653960  47.1985730
  39.1501030  21.7074310  48.2372150  42.8785850  24.2512940  53.1336530
  42.4165220  24.4595960  53.9456470  42.4763960  23.4372290  52.8307200
  47.8790360  25.4721890  54.2633190  47.0283950  25.1727640  54.5842260
  47.7192150  25.7163900  53.3517010  44.9740070  26.9723640  56.3631980
  45.2993480  26.1387390  56.0234210  45.7620400  27.4952160  56.5110310
  38.3830260  26.5077990  45.2582460  38.1571180  26.2915160  46.1629080
  37.6022790  26.9406450  44.9128430  45.6128020  26.5141360  43.8573110
  45.0136910  27.2377160  43.6736730  46.1607630  26.4518140  43.0749560
  40.8229470  27.4063570  55.9242730  40.7273070  26.4658300  55.7743130
  41.6661450  27.6278640  55.5290800  35.9540010  23.8177240  54.0776510
  35.5603400  24.6652450  54.2849290  35.2658410  23.1803610  54.2685150
  42.5285060  23.9012210  57.1473250  41.8383380  23.7084410  57.7819340
  43.2717360  24.1846850  57.6797550  33.2557060  21.7405700  48.1106590
  32.9670110  22.3108560  48.8231570  34.0002820  21.2610150  48.4737820
  33.4427290  25.6825820  39.3209310  33.3601960  26.6256580  39.4624300
  33.0910350  25.5400730  38.4421660  44.8048030  27.7410650  49.9827170
  44.0729150  28.2497460  50.3317270  44.4072370  26.9240630  49.6815950
  37.0927800  24.2991340  47.3473870  36.7527850  24.7766570  48.1040920
  36.3305120  23.8456460  46.9874970  40.3167070  27.7278070  40.7769720
  39.7483970  27.2796320  40.1505630  41.0256070  28.0870850  40.2434870
  48.6944690  20.6076510  55.2336490  49.0190460  19.8766170  55.7594470
  48.7301200  20.2890150  54.3317480  35.3936250  31.6290090  54.6536450
  35.0091040  30.9883760  55.2519410  35.7048440  32.3326210  55.2231180
  41.5433390  28.4766630  50.1345070  41.9103520  28.0025200  50.8806410
  41.3538450  29.3508200  50.4753410  34.4073880  23.2210320  46.2638540
  34.1220800  22.8565990  47.1017160  34.3452740  22.4890780  45.6501680
  39.3332760  27.5175270  52.4529280  39.0289830  28.3967250  52.6779640
  40.2879220  27.5775060  52.4886720  37.8614550  31.7236260  43.0496130
  37.0876810  31.1833880  42.8894850  38.5909180  31.2042870  42.7113890
  44.0021330  30.7910680  54.7291520  43.9358640  29.8706350  54.4749110
  43.3726470  30.8886120  55.4436160  37.9051950  31.3916640  46.6874940
  38.4230620  30.5884900  46.6331830  37.4535970  31.3295780  47.5291770
  35.3896490  28.3578010  53.6000640  35.0311430  29.0231860  54.1873980
  35.0951050  27.5261560  53.9713260  38.5909610  28.8162250  56.4840190
  38.2909750  28.9619430  55.5868010  39.3620850  28.2567540  56.3913580
  43.9338060  33.6131250  54.4795320  43.9482600  32.6812210  54.2614230
  43.2263160  33.6991010  55.1185090  50.1449270  30.2538590  53.8263900
  49.4197460  30.8467370  53.6293290  50.6724730  30.2462130  53.0277270
  33.9004540  28.3569270  40.2235240  34.7699390  28.6394070  40.5071160
  33.4094860  29.1705140  40.1084050  43.3671960  35.2548820  51.5735820
  44.0114180  35.4608200  52.2509240  43.7301400  34.4937220  51.1206670
  36.9651130  20.0880130  44.8166040  36.8365760  20.0798030  45.7650960
  36.1413150  20.4263220  44.4657050  46.4141660  34.0576070  53.4949330
  46.7497900  34.6442760  54.1727250  45.4942000  33.9268780  53.7247120
  34.2675790  37.5696650  40.7896870  34.6273430  38.1685990  40.1354140
  34.1268130  38.1156540  41.5631900  33.9645060  21.8471250  54.2772740
  33.2503580  22.0468170  54.8825350  34.3840100  21.0710820  54.6487540
  34.2517650  35.8351510  55.2639270  34.3608770  34.8946250  55.1234660
  33.5998210  36.1006260  54.6153000  42.2430240  34.1067400  56.6637390
  41.9227110  33.3876640  57.2083080  41.5688600  34.7822470  56.7373450
  35.8851050  30.1742740  42.3517300  35.2779000  30.9141640  42.3612600
  36.3600400  30.2642100  41.5255500  45.4583840  24.3393560  52.0274190
  45.8264660  23.5188770  52.3553760  44.5982040  24.3995450  52.4429840
  42.4185830  26.9933150  52.2512160  42.9171080  27.4678970  52.9164010
  42.5608780  26.0696670  52.4582190  41.9122120  37.5342410  44.9643400
  42.1663620  37.4963800  44.0422770  40.9634600  37.4075740  44.9571650
  49.6252690  23.2101110  53.0940550  49.1226290  23.9506510  53.4334360
  50.4409350  23.5985110  52.7777340  37.8956340  30.1353890  40.1005870
  38.6619610  30.0235250  40.6631300  37.9731030  29.4391860  39.4482640
  36.5903100  27.5678960  40.7838760  36.6706690  26.6206470  40.8956160
  37.4822850  27.8985840  40.8899420  49.9200280  35.6243140  48.2156170
  50.0447700  36.4474310  48.6879980  50.7865840  35.4133870  47.8680320
  37.3917810  37.7174350  47.8873300  38.1280290  37.1689810  48.1581870
  37.7758730  38.5830360  47.7479290  34.2763290  33.7847920  43.7614810
  33.3503070  34.0269060  43.7520220  34.7419720  34.6122180  43.6399560
  36.3976090  36.9020420  57.0758880  37.1988820  37.2232470  57.4894280
  35.8827910  36.5416000  57.7978790  40.5020120  36.8904660  39.7098870
  41.2948730  37.1793490  39.2580660  39.9824470  36.4596830  39.0311350
  45.2340720  33.0100290  57.0234290  44.6278880  33.0331890  56.2830040
  44.9294830  32.2783330  57.5601540  46.6641090  36.7380580  55.6343700
  47.6162840  36.6538600  55.5843940  46.5169310  37.4022290  56.3077490
  34.1173900  29.3893880  56.0194930  34.6212920  28.8101160  56.5911160
  33.3781320  29.6734110  56.5571300  41.1711840  30.7964870  55.5530450
  40.4057510  31.3649870  55.4685120  41.3527800  30.5041080  54.6598680
  48.3135190  32.5270200  56.1105470  49.0544660  32.8645960  55.6072930
  47.5507870  32.6962260  55.5575240  36.1496980  27.5323470  56.9145000
  36.1902320  27.2337340  57.8230230  37.0042480  27.9331080  56.7552520
  38.0902790  26.1115570  54.8819490  37.5599250  25.6206520  54.2542830
  38.7590860  26.5399770  54.3477420  46.9880850  30.5785030  54.6460680
  47.4021870  30.7330110  55.4951100  46.0531850  30.7040250  54.8086460
  47.4603020  27.9181190  56.6499830  48.0423790  27.1633510  56.5620310
  47.6364790  28.4488630  55.8731310  38.5775090  23.0777940  54.9616780
  38.4831960  22.4598690  54.2367650  37.9972480  23.8044230  54.7346690
  41.3436530  21.6351180  51.9944170  40.8953830  21.6575440  51.1489720
  40.7101730  21.2370200  52.5914470  41.7496080  30.5305510  52.6156610
  42.1684190  31.3738240  52.4432850  40.8304710  30.6677550  52.3863390
  44.0859980  28.2621690  53.9994450  44.2056190  27.6662830  54.7389290
  44.9453980  28.2991380  53.5795750  46.4247880  28.8158880  52.5756960
  45.8983100  29.3401500  51.9722100  46.7679220  29.4486270  53.2066690
  39.6003500  36.8358520  53.7314340  39.0624590  37.5604580  53.4123040
  39.8537460  36.3588860  52.9411680  40.8528750  24.8043040  55.2570270
  41.4428440  24.4958890  55.9448090  40.0348990  24.3322790  55.4130170
  45.6722180  24.4208850  55.4903290  44.9837700  23.7590390  55.4253280
  46.3928200  23.9747120  55.9351750  42.4565710  38.0709730  53.9900990
  42.3824410  38.9744870  54.2973360  41.5544550  37.7521630  53.9623060
  43.0051040  37.2368240  41.6127350  43.9001830  37.5753210  41.6346110
  43.0368670  36.5147650  40.9851630  36.6447200  32.6095290  39.8414350
  37.0822070  33.1524960  40.4971930  37.1294930  31.7842240  39.8510690
  33.8593000  35.3984320  47.2934610  34.1896010  34.5305380  47.0613250
  34.2884000  35.6042840  48.1239570  38.4554920  33.7293330  44.9536580
  38.1550460  33.6058300  45.8540490  38.3492410  32.8701920  44.5452310
  34.3483210  36.2654910  50.0316240  33.9114200  36.4455710  50.8640390
  34.9160890  37.0229530  49.8897960  49.9845390  35.7671910  54.3193550
  49.3847380  35.8264470  53.5757470  50.1139290  34.8276890  54.4490400
  34.1807640  28.7775140  46.3905120  33.5256480  28.5086780  45.7464820
  35.0185590  28.6679620  45.9407100  48.6697030  32.4923890  52.4169710
  47.8556870  32.9221050  52.6795500  49.0771230  33.1042300  51.8038760
  35.2183570  29.1627710  50.9308460  35.5856610  29.0755110  51.8104480
  34.6494390  28.3994260  50.8315320  50.0187430  27.6312090  53.9438930
  49.7873520  27.4024840  53.0436880  50.2791980  28.5511640  53.8983820
  34.7699570  26.0736800  54.8366880  33.8755620  26.0403560  55.1760590
  35.3097120  26.2723590  55.6018130  48.4575500  22.8568520  56.7218630
  49.3345680  22.8651920  57.1052630  48.4696340  22.1199360  56.1110980
  33.3945720  25.9874070  42.3330450  32.4909800  26.2504270  42.1582110
  33.8786340  26.2585240  41.5530410  49.9038770  26.7098060  47.6106650
  50.4276250  26.2160710  46.9796820  50.4898190  26.8448420  48.3554220
  50.0828490  26.7937930  51.1326200  49.1331200  26.7601470  51.2471190
  50.2641500  27.7038040  50.8975970  35.9372930  25.0439610  40.2424830
  36.6464630  24.6222830  39.7572110  35.2212870  25.1114840  39.6108180
  35.5847090  21.0978940  39.2827480  36.3075220  21.6387880  39.6008700
  35.8571610  20.8242360  38.4069020  35.2739280  20.3485130  49.1850100
  35.9215470  19.7982510  48.7445260  35.6941120  20.6028280  50.0065910
  50.8225900  24.6032360  46.0836740  50.7125180  24.4488400  47.0219010
  51.5833490  24.0753300  45.8412150  49.1691620  20.5426490  52.5419740
  49.8063840  21.1560630  52.9078930  49.3166510  20.5787150  51.5968970
  35.0271280  20.5040800  51.9275420  34.6786100  20.9604620  52.6933600
  34.6958980  19.6097930  52.0097850  36.6335650  33.6760400  56.0928610
  36.5905280  33.3053310  56.9743070  36.7646660  34.6137970  56.2330430
  40.3341680  35.2319990  51.6938330  40.0933040  35.4994550  50.8068850
  41.2744320  35.4025720  51.7489190  42.5396100  21.6952680  55.4494840
  42.4784990  22.2874510  56.1990250  43.4796480  21.5878640  55.3045100
  45.1770660  21.3522740  55.0887130  45.7911070  21.6702030  54.4268210
  45.7220220  20.8671330  55.7082990  51.5945840  37.2514370  52.4948970
  51.1004120  37.6483240  51.7776100  50.9859130  36.6263580  52.8886250
  35.6991920  20.0317000  55.2026190  36.2474910  19.8505050  54.4392300
  35.7647230  19.2411110  55.7382500  36.4723680  36.6222650  53.2126390
  35.8784000  36.4907350  53.9516430  36.4647520  35.7860790  52.7468490
  45.9178700  19.9154880  51.4156420  45.0438540  20.2489990  51.2129350
  45.8089450  19.4428060  52.2408290  46.8250680  22.1225750  52.7998140
  46.4964040  21.3077510  52.4199870  47.7732980  22.0795560  52.6763830
  49.2785290  37.8937790  49.7735710  48.8188260  38.6453600  49.3993730
  48.6497750  37.1744260  49.7150510  36.1035910  33.9881030  52.1634430
  35.3769970  33.3686320  52.0960380  36.1645060  34.3821640  51.2932510
  39.7081010  36.2026030  48.9483840  40.2246030  35.5913390  48.4232100
  40.3578390  36.7054810  49.4394850  42.4476510  37.0934520  49.7752820
  42.7354320  36.8388820  48.8985830  42.9599730  36.5411880  50.3658390
  43.6653520  20.8324720  50.3549330  42.8825310  21.3070220  50.6346090
  43.3716450  19.9279550  50.2462510  34.3865910  37.3055420  45.3731190
  34.2187950  36.6726100  46.0713080  33.5200420  37.5114820  45.0225380
  35.0093930  21.1372200  42.8763050  35.7673290  21.2501080  42.3027080
  34.5471100  21.9741400  42.8306480  35.9928610  35.9988650  42.8181330
  35.4676230  36.3796680  42.1143290  35.9173190  36.6239420  43.5391040
  42.5148870  38.0150620  57.1421020  43.4416180  37.7794890  57.1856980
  42.4999300  38.8422620  56.6607050  39.7012480  20.6795370  56.9062900
  39.4196750  21.1828970  56.1423720  40.0832180  19.8817120  56.5405030
  38.5921580  37.9471030  41.6930580  39.3240400  37.6630310  41.1454470
  38.8515250  37.7084310  42.5829960  37.7536370  34.0635760  41.6976910
  37.1245250  34.5320860  42.2462740  37.8684200  33.2184980  42.1323100
  46.3027940  20.0948950  57.4843370  46.1893390  20.4143560  58.3794890
  47.1197680  20.4961460  57.1880650  49.0826430  37.2420480  56.9662060
  49.8751750  36.7469710  56.7588020  49.3759580  37.9210620  57.5737670
  45.2086090  28.1141420  27.8478110  45.1280140  27.1996030  27.5769820
  44.7950510  28.6108490  27.1417820  37.3569960  30.2040250  30.6063140
  36.5254840  29.9488960  31.0059650  37.9650940  30.2751020  31.3421060
  37.3371220  34.2380340  30.8021160  37.6399260  33.3478080  30.6231380
  38.0814810  34.7950560  30.5743410  35.7661910  25.1642140  24.3905530
  34.8778610  25.5058110  24.2885410  36.0503100  24.9642460  23.4986360
  33.7294920  27.7647790  30.2745230  34.3011030  26.9969990  30.2748870
  33.7296460  28.0636550  29.3651840  43.5874870  36.5838640  28.1290500
  42.9686310  37.0396140  27.5584940  44.4426650  36.7390100  27.7280200
  34.9719790  23.1732150  32.0614160  34.7922630  22.2757900  32.3416920
  34.5699870  23.7204020  32.7361110  43.8118290  25.3748010  29.9626470
  44.1883110  24.5019890  29.8500140  43.7137800  25.7106710  29.0716910
  37.9423300  23.7473640  25.4243910  38.0490050  24.6477370  25.7312670
  37.0315660  23.6991610  25.1338560  47.5942410  22.8698450  26.8954810
  48.4152030  22.3795020  26.9380290  47.6276490  23.4596110  27.6486650
  35.5906460  25.6692650  30.6696500  36.2716570  25.9331020  31.2883900
  35.2754510  24.8293520  31.0034510  39.7831030  26.7160010  29.7569090
  40.2909250  27.2140980  30.3974110  40.3144270  25.9395210  29.5808450
  38.0667130  21.3558570  34.0232510  38.0685570  21.8730960  33.2178410
  37.2371440  20.8788750  34.0002440  44.4538220  31.4677880  25.5222410
  43.8355490  31.9327330  24.9585130  44.9661470  32.1605360  25.9391920
  37.7482460  23.0668530  32.0302960  38.0899270  23.9110580  31.7356830
  36.8098270  23.2152270  32.1468300  33.8221420  32.1534410  22.8962040
  33.4449400  32.6421510  22.1646940  34.0794490  32.8259690  23.5268570
  41.4310350  20.5550800  28.3547550  41.7385330  19.9997690  27.6383050
  40.5011050  20.6895260  28.1720540  48.2770830  32.9934310  25.7345180
  48.1667160  32.0508640  25.8594600  48.2739080  33.3549950  26.6207940
  43.8191110  28.6199630  25.0907670  42.8920390  28.5537010  25.3196140
  43.9715930  29.5579760  24.9762910  43.8060190  24.8916630  22.0874830
  42.8663860  25.0530590  22.1727290  44.1243450  25.6102310  21.5410820
  50.3272950  29.5735150  32.0653860  49.4991580  29.6428240  31.5903990
  50.9223430  30.1589460  31.5969690  47.8488400  30.1819930  25.5942920
  47.2300820  29.8439480  24.9469220  47.8312850  29.5379690  26.3022110
  47.2914960  26.3604470  33.0108730  46.8786140  27.1858180  33.2648720
  46.5590910  25.7749510  32.8185090  39.4247750  29.1464370  27.8727400
  39.0204750  28.4341620  27.3773300  39.5110870  28.8017610  28.7615440
  39.8929450  32.8331930  30.0366610  39.5957740  32.2277400  29.3574390
  40.8429270  32.8709240  29.9255970  38.1376370  25.9207580  31.6526440
  38.6890960  26.0302920  30.8779690  38.6519880  26.2945180  32.3681670
  46.0253100  29.4206740  22.6015670  46.4646380  28.5829170  22.4553490
  46.7381520  30.0536140  22.6879810  37.8119100  29.4426940  35.2631780
  37.6726870  30.3149740  35.6319180  36.9300460  29.0999750  35.1179720
  44.1348480  34.3602810  26.5696910  44.5744390  35.1027140  26.1552300
  44.0735370  34.6029380  27.4935870  49.6070240  20.6749550  20.9156710
  49.2942900  20.7676380  21.8155780  50.3682710  21.2530580  20.8654140
  36.1252380  28.0409350  25.3734050  36.0049980  28.7671440  24.7615320
  35.8153270  27.2712260  24.8961960  33.7637750  31.2124490  31.1802690
  33.8418170  31.3473260  30.2358410  34.3779430  30.5040380  31.3730810
  35.0085380  32.9124680  27.5908870  34.6013460  33.0539270  26.7362470
  35.8998390  32.6284840  27.3880080  46.8018660  37.3471930  23.9259920
  46.6419800  37.0574870  24.8241750  46.6365370  36.5712060  23.3905150
  39.2807040  37.1270460  25.7031540  39.1049520  36.2106000  25.4899340
  38.4262780  37.4857750  25.9429340  46.5044790  34.8559490  22.4857920
  45.8109950  34.8536780  21.8260200  47.2467650  34.4318810  22.0552090
  46.0694720  36.4822200  26.5606410  46.5251670  35.7011580  26.8745030
  46.4087240  37.1929020  27.1047590  33.8197270  32.2538660  33.7197150
  33.9828310  31.7844020  32.9016520  34.2849720  31.7462220  34.3845990
  38.5916040  21.3844420  28.7557720  38.1484190  22.1653960  28.4242240
  39.1501030  21.7074310  29.4628660  41.7074860  21.0055120  23.6363550
  41.0829040  21.0014990  24.3616860  41.6204980  20.1386080  23.2399520
  40.6291940  21.9291750  30.6147320  40.9264270  22.8354580  30.5339340
  41.1777500  21.4410530  30.0006890  38.3830260  26.5077990  26.4838970
  38.1571180  26.2915160  27.3885590  37.6022790  26.9406450  26.1384940
  45.6128020  26.5141360  25.0829620  45.0136910  27.2377160  24.8993240
  46.1607630  26.4518140  24.3006070  44.2192890  25.1504900  27.1132900
  44.6122460  25.4677100  26.3001590  44.5809740  24.2716780  27.2277420
  35.9540010  23.8177240  35.3033020  35.5603400  24.6652450  35.5105800
  35.2658410  23.1803610  35.4941660  33.2557060  21.7405700  29.3363100
  32.9670110  22.3108560  30.0488080  34.0002820  21.2610150  29.6994330
  33.4427290  25.6825820  20.5465820  33.3601960  26.6256580  20.6880810
  33.0910350  25.5400730  19.6678170  44.8048030  27.7410650  31.2083680
  44.0729150  28.2497460  31.5573780  44.4072370  26.9240630  30.9072460
  41.2425420  24.4164850  29.6136170  41.2461480  23.9754800  28.7640710
  42.1376540  24.7382180  29.7207990  37.0927800  24.2991340  28.5730380
  36.7527850  24.7766570  29.3297430  36.3305120  23.8456460  28.2131480
  41.3045570  25.4176930  22.6042930  41.4258390  25.3763410  23.5528750
  40.9194080  26.2801080  22.4489660  45.2673940  23.1944330  30.6206620
  45.2846680  23.6452980  31.4648470  45.0189520  22.2949970  30.8340060
  40.3167070  27.7278070  22.0026230  39.7483970  27.2796320  21.3762140
  41.0256070  28.0870850  21.4691380  35.3936250  31.6290090  35.8792960
  35.0091040  30.9883760  36.4775920  35.7048440  32.3326210  36.4487690
  41.5433390  28.4766630  31.3601580  41.9103520  28.0025200  32.1062920
  41.3538450  29.3508200  31.7009920  34.4073880  23.2210320  27.4895050
  34.1220800  22.8565990  28.3273670  34.3452740  22.4890780  26.8758190
  39.3332760  27.5175270  33.6785790  39.0289830  28.3967250  33.9036150
  40.2879220  27.5775060  33.7143230  37.8614550  31.7236260  24.2752640
  37.0876810  31.1833880  24.1151360  38.5909180  31.2042870  23.9370400
  44.0812470  22.1139580  24.2108420  43.2677080  21.6152750  24.1353730
  43.8874420  22.9537830  23.7944770  46.7960860  26.4859230  22.5070580
  47.6840480  26.7976460  22.3321920  46.7665950  25.6131480  22.1151160
  37.9051950  31.3916640  27.9131450  38.4230620  30.5884900  27.8588340
  37.4535970  31.3295780  28.7548280  42.7921450  32.6582920  23.1858750
  43.1337150  33.4025150  22.6902070  41.9634160  32.9714040  23.5483580
  35.3896490  28.3578010  34.8257150  35.0311430  29.0231860  35.4130490
  35.0951050  27.5261560  35.1969770  38.5909610  28.8162250  37.7096700
  38.2909750  28.9619430  36.8124520  39.3620850  28.2567540  37.6170090
  49.0675130  27.7971070  21.9750440  48.9838850  28.2285290  21.1246880
  49.7869320  28.2569420  22.4077260  50.0962380  34.6513330  24.7032570
  49.4538540  33.9968950  24.9776290  49.7093040  35.0568420  23.9273240
  41.7612140  32.7396450  25.9574670  42.4483270  33.2865660  26.3382260
  40.9744560  33.2837180  25.9924280  33.9004540  28.3569270  21.4491750
  34.7699390  28.6394070  21.7327670  33.4094860  29.1705140  21.3340560
  41.0639350  29.7442480  25.5700030  41.5202130  30.5547730  25.7960220
  40.7127560  29.4265620  26.4018520  36.9651130  20.0880130  26.0422550
  36.8365760  20.0798030  26.9907470  36.1413150  20.4263220  25.6913560
  48.4859760  33.5429790  21.2408920  48.2597340  32.8260230  21.8333560
  48.0955960  33.2942230  20.4030670  34.2675790  37.5696650  22.0153380
  34.6273430  38.1685990  21.3610650  34.1268130  38.1156540  22.7888410
  33.9645060  21.8471250  35.5029250  33.2503580  22.0468170  36.1081860
  34.3840100  21.0710820  35.8744050  48.0676010  31.4601730  22.9023080
  47.7797710  31.9214420  23.6900960  48.8628180  30.9999500  23.1707300
  34.2517650  35.8351510  36.4895780  34.3608770  34.8946250  36.3491170
  33.5998210  36.1006260  35.8409510  40.2844410  34.9527850  22.8327050
  40.2754510  35.6857540  22.2171560  39.3642770  34.7059430  22.9254010
  35.8851050  30.1742740  23.5773810  35.2779000  30.9141640  23.5869110
  36.3600400  30.2642100  22.7512010  48.8245870  23.2950500  24.0618260
  48.1959030  23.3996170  23.3476490  48.3297790  23.5147280  24.8512140
  43.2704010  35.0156090  21.4952240  43.3715990  34.8120080  20.5654220
  42.3705750  34.7614370  21.7000020  40.7929900  25.5736450  25.4776140
  40.0846050  26.0422790  25.9189750  41.0774380  24.9158460  26.1121330
  42.4185830  26.9933150  33.4768670  42.9171080  27.4678970  34.1420520
  42.5608780  26.0696670  33.6838700  44.8245330  22.2987110  26.9171930
  44.7013110  22.3173240  25.9681440  45.7729890  22.3466050  27.0370330
  41.9122120  37.5342410  26.1899910  42.1663620  37.4963800  25.2679280
  40.9634600  37.4075740  26.1828160  38.9964920  23.8821530  22.8526850
  39.8455450  24.3191680  22.7867040  38.6296190  24.1941790  23.6798910
  47.9174700  28.4534290  27.7658420  46.9764840  28.4684520  27.9406110
  48.2318770  27.6670250  28.2118720  37.8956340  30.1353890  21.3262380
  38.6619610  30.0235250  21.8887810  37.9731030  29.4391860  20.6739150
  36.5903100  27.5678960  22.0095270  36.6706690  26.6206470  22.1212670
  37.4822850  27.8985840  22.1155930  49.9200280  35.6243140  29.4412680
  50.0447700  36.4474310  29.9136490  50.7865840  35.4133870  29.0936830
  37.3917810  37.7174350  29.1129810  38.1280290  37.1689810  29.3838380
  37.7758730  38.5830360  28.9735800  34.2763290  33.7847920  24.9871320
  33.3503070  34.0269060  24.9776730  34.7419720  34.6122180  24.8656070
  36.3976090  36.9020420  38.3015390  37.1988820  37.2232470  38.7150790
  35.8827910  36.5416000  39.0235300  40.5020120  36.8904660  20.9355380
  41.2948730  37.1793490  20.4837170  39.9824470  36.4596830  20.2567860
  49.5550290  36.1174790  22.3592120  49.2691800  35.7039930  21.5446300
  49.3569840  37.0462500  22.2392640  34.1173900  29.3893880  37.2451440
  34.6212920  28.8101160  37.8167670  33.3781320  29.6734110  37.7827810
  41.0197520  32.1108070  20.7997730  40.9148160  31.4960420  21.5259110
  40.8521740  31.5873960  20.0160740  44.2600250  31.1728100  21.4039720
  43.7110350  31.6197400  22.0482460  44.8819510  30.6677350  21.9277390
  36.1496980  27.5323470  38.1401510  36.1902320  27.2337340  39.0486740
  37.0042480  27.9331080  37.9809030  39.9275370  30.1319020  23.3005020
  40.3491790  29.9658890  24.1436410  40.0526210  29.3219250  22.8060160
  38.0902790  26.1115570  36.1076000  37.5599250  25.6206520  35.4799340
  38.7590860  26.5399770  35.5733930  42.4403010  29.1556630  20.5482120
  42.9608670  28.4405650  20.1823270  43.0871410  29.7942500  20.8482630
  44.0859980  28.2621690  35.2250960  44.2056190  27.6662830  35.9645800
  44.9453980  28.2991380  34.8052260  38.8234270  26.2052250  20.2463180
  38.6223330  25.3419610  20.6076520  38.6526320  26.1185610  19.3084780
  39.6003500  36.8358520  34.9570850  39.0624590  37.5604580  34.6379550
  39.8537460  36.3588860  34.1668190  46.3022580  21.0160480  22.7750060
  46.5824870  20.1728380  23.1309480  45.5288310  21.2483590  23.2888810
  37.6217070  23.3052870  20.2341060  37.9242970  23.3120300  19.3260210
  38.3611660  22.9550730  20.7308720  40.8402000  22.2487490  21.2197260
  40.4924000  21.5711480  20.6399710  41.0414770  21.7877000  22.0340650
  43.0051040  37.2368240  22.8383860  43.9001830  37.5753210  22.8602620
  43.0368670  36.5147650  22.2108140  36.6447200  32.6095290  21.0670860
  37.0822070  33.1524960  21.7228440  37.1294930  31.7842240  21.0767200
  33.8593000  35.3984320  28.5191120  34.1896010  34.5305380  28.2869760
  34.2884000  35.6042840  29.3496080  38.4554920  33.7293330  26.1793090
  38.1550460  33.6058300  27.0797000  38.3492410  32.8701920  25.7708820
  34.3483210  36.2654910  31.2572750  33.9114200  36.4455710  32.0896900
  34.9160890  37.0229530  31.1154470  51.2246840  33.5089730  20.8819770
  50.3939800  33.5766380  21.3527000  51.4018670  34.3993850  20.5786630
  50.6803300  30.2537210  23.3853970  51.4422210  30.8233860  23.4913660
  50.6957670  29.6864410  24.1562280  34.1807640  28.7775140  27.6161630
  33.5256480  28.5086780  26.9721330  35.0185590  28.6679620  27.1663610
  51.6863270  31.1087310  28.2295900  52.0572100  30.3254630  27.8231870
  52.3265200  31.7976410  28.0513200  50.7322470  30.5471580  20.5426490
  51.0071310  31.4550460  20.4145710  50.5433210  30.4834110  21.4788480
  47.1298080  23.5716430  21.8380120  47.5482960  23.3847410  20.9976780
  46.8234140  22.7195480  22.1483050  50.6287810  28.4840570  25.5355920
  50.2531410  27.7168500  25.1037210  49.8990930  28.8663270  26.0230850
  35.2183570  29.1627710  32.1564970  35.5856610  29.0755110  33.0360990
  34.6494390  28.3994260  32.0571830  34.7699570  26.0736800  36.0623390
  33.8755620  26.0403560  36.4017100  35.3097120  26.2723590  36.8274640
  33.3945720  25.9874070  23.5586960  32.4909800  26.2504270  23.3838620
  33.8786340  26.2585240  22.7786920  35.9372930  25.0439610  21.4681340
  36.6464630  24.6222830  20.9828620  35.2212870  25.1114840  20.8364690
  35.5847090  21.0978940  20.5083990  36.3075220  21.6387880  20.8265210
  35.8571610  20.8242360  19.6325530  49.3938740  25.9671410  24.7755570
  49.8897860  25.7342280  25.5604450  49.1954810  25.1283250  24.3593210
  35.2739280  20.3485130  30.4106610  35.9215470  19.7982510  29.9701770
  35.6941120  20.6028280  31.2322420  51.7116170  22.4340280  20.5499390
  52.6365480  22.3021460  20.3417680  51.6891960  22.5133100  21.5035840
  51.7854660  23.2050940  23.1756100  50.9906160  23.1396060  23.7049010
  51.9897940  24.1401580  23.1641450  48.7273080  37.2442490  27.1694490
  49.3232150  36.9227060  26.4928910  48.9851230  36.7714310  27.9607760
  35.0271280  20.5040800  33.1531930  34.6786100  20.9604620  33.9190110
  34.6958980  19.6097930  33.2354360  36.6335650  33.6760400  37.3185120
  36.5905280  33.3053310  38.1999580  36.7646660  34.6137970  37.4586940
  35.6991920  20.0317000  36.4282700  36.2474910  19.8505050  35.6648810
  35.7647230  19.2411110  36.9639010  36.4723680  36.6222650  34.4382900
  35.8784000  36.4907350  35.1772940  36.4647520  35.7860790  33.9725000
  45.9178700  19.9154880  32.6412930  45.0438540  20.2489990  32.4385860
  45.8089450  19.4428060  33.4664800  49.2785290  37.8937790  30.9992220
  48.8188260  38.6453600  30.6250240  48.6497750  37.1744260  30.9407020
  36.1035910  33.9881030  33.3890940  35.3769970  33.3686320  33.3216890
  36.1645060  34.3821640  32.5189020  39.7081010  36.2026030  30.1740350
  40.2246030  35.5913390  29.6488610  40.3578390  36.7054810  30.6651360
  42.4476510  37.0934520  31.0009330  42.7354320  36.8388820  30.1242340
  42.9599730  36.5411880  31.5914900  43.6653520  20.8324720  31.5805840
  42.8825310  21.3070220  31.8602600  43.3716450  19.9279550  31.4719020
  34.3865910  37.3055420  26.5987700  34.2187950  36.6726100  27.2969590
  33.5200420  37.5114820  26.2481890  35.0093930  21.1372200  24.1019560
  35.7673290  21.2501080  23.5283590  34.5471100  21.9741400  24.0562990
  41.5507740  23.2511470  27.0921870  40.7382250  22.8768360  26.7517750
  42.0549380  22.4956550  27.3943060  46.0532720  19.9153920  28.3304940
  46.6562090  20.4874130  28.8053460  45.3125710  20.4793360  28.1078840
  49.1967320  20.3175480  23.6045220  49.3917950  21.2158930  23.8712650
  48.4097190  20.0862560  24.0978170  35.9928610  35.9988650  24.0437840
  35.4676230  36.3796680  23.3399800  35.9173190  36.6239420  24.7647550
  37.3819080  21.6636250  22.6421530  37.9111840  20.8766050  22.5129480
  38.0147400  22.3427440  22.8757060  39.5756920  21.4011390  25.6966920
  38.9459660  20.6998700  25.8637050  39.0362060  22.1615520  25.4800080
  50.7493930  37.5576190  25.3651780  50.9246120  36.8713930  24.7212700
  50.0515500  38.0823240  24.9728450  38.5921580  37.9471030  22.9187090
  39.3240400  37.6630310  22.3710980  38.8515250  37.7084310  23.8086470
  37.7536370  34.0635760  22.9233420  37.1245250  34.5320860  23.4719250
  37.8684200  33.2184980  23.3579610  45.2086090  28.1141420   9.0734620
  45.1280140  27.1996030   8.8026330  44.7950510  28.6108490   8.3674330
  43.3404130  29.8920440  10.9543890  42.5646230  29.4120880  11.2442460
  43.9917060  29.2126090  10.7800050  37.3569960  30.2040250  11.8319650
  36.5254840  29.9488960  12.2316160  37.9650940  30.2751020  12.5677570
  47.3611560  34.2980630   9.7343020  46.8993090  33.5267870  10.0630190
  48.1737110  34.3246700  10.2395470  37.3371220  34.2380340  12.0277670
  37.6399260  33.3478080  11.8487890  38.0814810  34.7950560  11.7999920
  35.7661910  25.1642140   5.6162040  34.8778610  25.5058110   5.5141920
  36.0503100  24.9642460   4.7242870  33.7294920  27.7647790  11.5001740
  34.3011030  26.9969990  11.5005380  33.7296460  28.0636550  10.5908350
  43.5874870  36.5838640   9.3547010  42.9686310  37.0396140   8.7841450
  44.4426650  36.7390100   8.9536710  42.7813120  32.5677630  10.9614050
  42.7121400  31.6267570  10.8003180  43.5432980  32.6579040  11.5336620
  34.9719790  23.1732150  13.2870670  34.7922630  22.2757900  13.5673430
  34.5699870  23.7204020  13.9617620  43.8118290  25.3748010  11.1882980
  44.1883110  24.5019890  11.0756650  43.7137800  25.7106710  10.2973420
  37.9423300  23.7473640   6.6500420  38.0490050  24.6477370   6.9569180
  37.0315660  23.6991610   6.3595070  47.5942410  22.8698450   8.1211320
  48.4152030  22.3795020   8.1636800  47.6276490  23.4596110   8.8743160
  35.5906460  25.6692650  11.8953010  36.2716570  25.9331020  12.5140410
  35.2754510  24.8293520  12.2291020  39.7831030  26.7160010  10.9825600
  40.2909250  27.2140980  11.6230620  40.3144270  25.9395210  10.8064960
  51.8841960  24.8865200  14.6854950  51.1794130  25.2746910  14.1670060
  52.1499880  25.5815490  15.2875880  38.0667130  21.3558570  15.2489020
  38.0685570  21.8730960  14.4434920  37.2371440  20.8788750  15.2258950
  44.4538220  31.4677880   6.7478920  43.8355490  31.9327330   6.1841640
  44.9661470  32.1605360   7.1648430  39.3169980  30.9953750  13.4262520
  38.9839360  31.6222670  14.0683590  39.4936660  31.5215630  12.6464190
  47.8303890  24.8098830  10.8938860  47.1259460  25.0983720  11.4741970
  48.1916050  25.6198940  10.5338420  37.7482460  23.0668530  13.2559470
  38.0899270  23.9110580  12.9613340  36.8098270  23.2152270  13.3724810
  38.5289080  32.9634550  15.2411700  39.1463080  33.6385630  14.9596150
  37.6682200  33.3722530  15.1499200  33.8221420  32.1534410   4.1218550
  33.4449400  32.6421510   3.3903450  34.0794490  32.8259690   4.7525080
  49.4466670  34.4273960  13.1566340  48.7630190  35.0973070  13.1483010
  49.9860960  34.6254610  12.3911200  50.8990810  24.2553620  11.2848070
  49.9515720  24.2892600  11.4163500  51.2240800  25.0692570  11.6697430
  41.4310350  20.5550800   9.5804060  41.7385330  19.9997690   8.8639560
  40.5011050  20.6895260   9.3977050  46.9825410  36.2718090  11.8711520
  46.9952570  35.8680380  11.0033780  46.4300630  37.0465380  11.7672950
  48.2770830  32.9934310   6.9601690  48.1667160  32.0508640   7.0851110
  48.2739080  33.3549950   7.8464450  46.3810850  31.1747930  13.1994130
  46.7979640  30.9608040  12.3647590  47.1050670  31.4320720  13.7702750
  43.8191110  28.6199630   6.3164180  42.8920390  28.5537010   6.5452650
  43.9715930  29.5579760   6.2019420  43.8060190  24.8916630   3.3131340
  42.8663860  25.0530590   3.3983800  44.1243450  25.6102310   2.7667330
  50.3272950  29.5735150  13.2910370  49.4991580  29.6428240  12.8160500
  50.9223430  30.1589460  12.8226200  47.8488400  30.1819930   6.8199430
  47.2300820  29.8439480   6.1725730  47.8312850  29.5379690   7.5278620
  47.2914960  26.3604470  14.2365240  46.8786140  27.1858180  14.4905230
  46.5590910  25.7749510  14.0441600  39.4247750  29.1464370   9.0983910
  39.0204750  28.4341620   8.6029810  39.5110870  28.8017610   9.9871950
  39.8929450  32.8331930  11.2623120  39.5957740  32.2277400  10.5830900
  40.8429270  32.8709240  11.1512480  38.1376370  25.9207580  12.8782950
  38.6890960  26.0302920  12.1036200  38.6519880  26.2945180  13.5938180
  47.9815060  36.4063800  14.9246220  47.5045620  37.2135990  14.7318830
  47.2976850  35.7542130  15.0772430  38.9847880  32.5713620  17.9130920
  38.0876410  32.7953590  18.1604320  39.0100750  32.6948560  16.9642320
  46.0253100  29.4206740   3.8272180  46.4646380  28.5829170   3.6810000
  46.7381520  30.0536140   3.9136320  37.8119100  29.4426940  16.4888290
  37.6726870  30.3149740  16.8575690  36.9300460  29.0999750  16.3436230
  44.1348480  34.3602810   7.7953420  44.5744390  35.1027140   7.3808810
  44.0735370  34.6029380   8.7192380  39.6099450  35.3848640  18.6973440
  39.5814880  35.7891590  17.8301870  39.4464420  34.4559000  18.5345040
  49.6070240  20.6749550   2.1413220  49.2942900  20.7676380   3.0412290
  50.3682710  21.2530580   2.0910650  36.1252380  28.0409350   6.5990560
  36.0049980  28.7671440   5.9871830  35.8153270  27.2712260   6.1218470
  51.5614270  36.1675740  19.9937610  52.0373990  36.6458630  20.6726690
  52.1821430  36.0993230  19.2683110  33.7637750  31.2124490  12.4059200
  33.8418170  31.3473260  11.4614920  34.3779430  30.5040380  12.5987320
  35.0085380  32.9124680   8.8165380  34.6013460  33.0539270   7.9618980
  35.8998390  32.6284840   8.6136590  50.9647520  33.3588590  17.1537620
  51.0910580  33.1200470  16.2354800  51.0068900  32.5273130  17.6259700
  44.8264260  37.0616590  15.7232430  45.3408930  36.9724600  16.5254860
  43.9833340  37.4076290  16.0160340  46.8018660  37.3471930   5.1516430
  46.6419800  37.0574870   6.0498260  46.6365370  36.5712060   4.6161660
  39.2807040  37.1270460   6.9288050  39.1049520  36.2106000   6.7155850
  38.4262780  37.4857750   7.1685850  46.5044790  34.8559490   3.7114430
  45.8109950  34.8536780   3.0516710  47.2467650  34.4318810   3.2808600
  46.0694720  36.4822200   7.7862920  46.5251670  35.7011580   8.1001540
  46.4087240  37.1929020   8.3304100  50.8171530  25.4121050  18.1187360
  50.2015800  25.9200720  17.5902820  50.4967950  24.5119380  18.0613300
  33.8197270  32.2538660  14.9453660  33.9828310  31.7844020  14.1273030
  34.2849720  31.7462220  15.6102500  38.5916040  21.3844420   9.9814230
  38.1484190  22.1653960   9.6498750  39.1501030  21.7074310  10.6885170
  42.8785850  24.2512940  15.5849550  42.4165220  24.4595960  16.3969490
  42.4763960  23.4372290  15.2820220  47.8790360  25.4721890  16.7146210
  47.0283950  25.1727640  17.0355280  47.7192150  25.7163900  15.8030030
  44.9740070  26.9723640  18.8145000  45.2993480  26.1387390  18.4747230
  45.7620400  27.4952160  18.9623330  41.7074860  21.0055120   4.8620060
  41.0829040  21.0014990   5.5873370  41.6204980  20.1386080   4.4656030
  40.6291940  21.9291750  11.8403830  40.9264270  22.8354580  11.7595850
  41.1777500  21.4410530  11.2263400  38.3830260  26.5077990   7.7095480
  38.1571180  26.2915160   8.6142100  37.6022790  26.9406450   7.3641450
  45.6128020  26.5141360   6.3086130  45.0136910  27.2377160   6.1249750
  46.1607630  26.4518140   5.5262580  40.8229470  27.4063570  18.3755750
  40.7273070  26.4658300  18.2256150  41.6661450  27.6278640  17.9803820
  44.2192890  25.1504900   8.3389410  44.6122460  25.4677100   7.5258100
  44.5809740  24.2716780   8.4533930  35.9540010  23.8177240  16.5289530
  35.5603400  24.6652450  16.7362310  35.2658410  23.1803610  16.7198170
  42.5285060  23.9012210  19.5986270  41.8383380  23.7084410  20.2332360
  43.2717360  24.1846850  20.1310570  33.2557060  21.7405700  10.5619610
  32.9670110  22.3108560  11.2744590  34.0002820  21.2610150  10.9250840
  44.8048030  27.7410650  12.4340190  44.0729150  28.2497460  12.7830290
  44.4072370  26.9240630  12.1328970  41.2425420  24.4164850  10.8392680
  41.2461480  23.9754800   9.9897220  42.1376540  24.7382180  10.9464500
  37.0927800  24.2991340   9.7986890  36.7527850  24.7766570  10.5553940
  36.3305120  23.8456460   9.4387990  41.3045570  25.4176930   3.8299440
  41.4258390  25.3763410   4.7785260  40.9194080  26.2801080   3.6746170
  45.2673940  23.1944330  11.8463130  45.2846680  23.6452980  12.6904980
  45.0189520  22.2949970  12.0596570  40.3167070  27.7278070   3.2282740
  39.7483970  27.2796320   2.6018650  41.0256070  28.0870850   2.6947890
  48.6944690  20.6076510  17.6849510  49.0190460  19.8766170  18.2107490
  48.7301200  20.2890150  16.7830500  35.3936250  31.6290090  17.1049470
  35.0091040  30.9883760  17.7032430  35.7048440  32.3326210  17.6744200
  41.5433390  28.4766630  12.5858090  41.9103520  28.0025200  13.3319430
  41.3538450  29.3508200  12.9266430  34.4073880  23.2210320   8.7151560
  34.1220800  22.8565990   9.5530180  34.3452740  22.4890780   8.1014700
  39.3332760  27.5175270  14.9042300  39.0289830  28.3967250  15.1292660
  40.2879220  27.5775060  14.9399740  37.8614550  31.7236260   5.5009150
  37.0876810  31.1833880   5.3407870  38.5909180  31.2042870   5.1626910
  48.6202530  30.7201620  11.2935540  49.3401650  31.2156910  10.9031650
  48.4184350  30.0419510  10.6489410  44.0812470  22.1139580   5.4364930
  43.2677080  21.6152750   5.3610240  43.8874420  22.9537830   5.0201280
  44.0021330  30.7910680  17.1804540  43.9358640  29.8706350  16.9262130
  43.3726470  30.8886120  17.8949180  46.7960860  26.4859230   3.7327090
  47.6840480  26.7976460   3.5578430  46.7665950  25.6131480   3.3407670
  37.9051950  31.3916640   9.1387960  38.4230620  30.5884900   9.0844850
  37.4535970  31.3295780   9.9804790  42.7921450  32.6582920   4.4115260
  43.1337150  33.4025150   3.9158580  41.9634160  32.9714040   4.7740090
  35.3896490  28.3578010  16.0513660  35.0311430  29.0231860  16.6387000
  35.0951050  27.5261560  16.4226280  38.5909610  28.8162250  18.9353210
  38.2909750  28.9619430  18.0381030  39.3620850  28.2567540  18.8426600
  43.9338060  33.6131250  16.9308340  43.9482600  32.6812210  16.7127250
  43.2263160  33.6991010  17.5698110  49.0675130  27.7971070   3.2006950
  48.9838850  28.2285290   2.3503390  49.7869320  28.2569420   3.6333770
  50.1449270  30.2538590  16.2776920  49.4197460  30.8467370  16.0806310
  50.6724730  30.2462130  15.4790290  50.0962380  34.6513330   5.9289080
  49.4538540  33.9968950   6.2032800  49.7093040  35.0568420   5.1529750
  45.6748860  31.9798760   9.7760770  46.0272680  31.3826890   9.1162140
  44.7911190  31.6542990   9.9469020  41.7612140  32.7396450   7.1831180
  42.4483270  33.2865660   7.5638770  40.9744560  33.2837180   7.2180790
  33.9004540  28.3569270   2.6748260  34.7699390  28.6394070   2.9584180
  33.4094860  29.1705140   2.5597070  41.0639350  29.7442480   6.7956540
  41.5202130  30.5547730   7.0216730  40.7127560  29.4265620   7.6275030
  43.3671960  35.2548820  14.0248840  44.0114180  35.4608200  14.7022260
  43.7301400  34.4937220  13.5719690  36.9651130  20.0880130   7.2679060
  36.8365760  20.0798030   8.2163980  36.1413150  20.4263220   6.9170070
  44.6404040  33.2581170  12.7426290  45.2826270  32.5574330  12.8558460
  45.1653390  34.0379610  12.5623180  48.4859760  33.5429790   2.4665430
  48.2597340  32.8260230   3.0590070  48.0955960  33.2942230   1.6287180
  46.4141660  34.0576070  15.9462350  46.7497900  34.6442760  16.6240270
  45.4942000  33.9268780  16.1760140  34.2675790  37.5696650   3.2409890
  34.6273430  38.1685990   2.5867160  34.1268130  38.1156540   4.0144920
  33.9645060  21.8471250  16.7285760  33.2503580  22.0468170  17.3338370
  34.3840100  21.0710820  17.1000560  48.0676010  31.4601730   4.1279590
  47.7797710  31.9214420   4.9157470  48.8628180  30.9999500   4.3963810
  34.2517650  35.8351510  17.7152290  34.3608770  34.8946250  17.5747680
  33.5998210  36.1006260  17.0666020  42.2430240  34.1067400  19.1150410
  41.9227110  33.3876640  19.6596100  41.5688600  34.7822470  19.1886470
  40.2844410  34.9527850   4.0583560  40.2754510  35.6857540   3.4428070
  39.3642770  34.7059430   4.1510520  35.8851050  30.1742740   4.8030320
  35.2779000  30.9141640   4.8125620  36.3600400  30.2642100   3.9768520
  45.4583840  24.3393560  14.4787210  45.8264660  23.5188770  14.8066780
  44.5982040  24.3995450  14.8942860  48.8245870  23.2950500   5.2874770
  48.1959030  23.3996170   4.5733000  48.3297790  23.5147280   6.0768650
  43.2704010  35.0156090   2.7208750  43.3715990  34.8120080   1.7910730
  42.3705750  34.7614370   2.9256530  40.7929900  25.5736450   6.7032650
  40.0846050  26.0422790   7.1446260  41.0774380  24.9158460   7.3377840
  42.4185830  26.9933150  14.7025180  42.9171080  27.4678970  15.3677030
  42.5608780  26.0696670  14.9095210  44.8245330  22.2987110   8.1428440
  44.7013110  22.3173240   7.1937950  45.7729890  22.3466050   8.2626840
  41.9122120  37.5342410   7.4156420  42.1663620  37.4963800   6.4935790
  40.9634600  37.4075740   7.4084670  38.9964920  23.8821530   4.0783360
  39.8455450  24.3191680   4.0123550  38.6296190  24.1941790   4.9055420
  49.6252690  23.2101110  15.5453570  49.1226290  23.9506510  15.8847380
  50.4409350  23.5985110  15.2290360  47.9174700  28.4534290   8.9914930
  46.9764840  28.4684520   9.1662620  48.2318770  27.6670250   9.4375230
  37.8956340  30.1353890   2.5518890  38.6619610  30.0235250   3.1144320
  37.9731030  29.4391860   1.8995660  36.5903100  27.5678960   3.2351780
  36.6706690  26.6206470   3.3469180  37.4822850  27.8985840   3.3412440
  49.9200280  35.6243140  10.6669190  50.0447700  36.4474310  11.1393000
  50.7865840  35.4133870  10.3193340  37.3917810  37.7174350  10.3386320
  38.1280290  37.1689810  10.6094890  37.7758730  38.5830360  10.1992310
  34.2763290  33.7847920   6.2127830  33.3503070  34.0269060   6.2033240
  34.7419720  34.6122180   6.0912580  36.3976090  36.9020420  19.5271900
  37.1988820  37.2232470  19.9407300  35.8827910  36.5416000  20.2491810
  45.2340720  33.0100290  19.4747310  44.6278880  33.0331890  18.7343060
  44.9294830  32.2783330  20.0114560  46.6641090  36.7380580  18.0856720
  47.6162840  36.6538600  18.0356960  46.5169310  37.4022290  18.7590510
  49.5550290  36.1174790   3.5848630  49.2691800  35.7039930   2.7702810
  49.3569840  37.0462500   3.4649150  34.1173900  29.3893880  18.4707950
  34.6212920  28.8101160  19.0424180  33.3781320  29.6734110  19.0084320
  41.1711840  30.7964870  18.0043470  40.4057510  31.3649870  17.9198140
  41.3527800  30.5041080  17.1111700  44.2600250  31.1728100   2.6296230
  43.7110350  31.6197400   3.2738970  44.8819510  30.6677350   3.1533900
  48.3135190  32.5270200  18.5618490  49.0544660  32.8645960  18.0585950
  47.5507870  32.6962260  18.0088260  36.1496980  27.5323470  19.3658020
  36.1902320  27.2337340  20.2743250  37.0042480  27.9331080  19.2065540
  39.9275370  30.1319020   4.5261530  40.3491790  29.9658890   5.3692920
  40.0526210  29.3219250   4.0316670  38.0902790  26.1115570  17.3332510
  37.5599250  25.6206520  16.7055850  38.7590860  26.5399770  16.7990440
  46.9880850  30.5785030  17.0973700  47.4021870  30.7330110  17.9464120
  46.0531850  30.7040250  17.2599480  47.4603020  27.9181190  19.1012850
  48.0423790  27.1633510  19.0133330  47.6364790  28.4488630  18.3244330
  38.5775090  23.0777940  17.4129800  38.4831960  22.4598690  16.6880670
  37.9972480  23.8044230  17.1859710  41.3436530  21.6351180  14.4457190
  40.8953830  21.6575440  13.6002740  40.7101730  21.2370200  15.0427490
  41.7496080  30.5305510  15.0669630  42.1684190  31.3738240  14.8945870
  40.8304710  30.6677550  14.8376410  44.0859980  28.2621690  16.4507470
  44.2056190  27.6662830  17.1902310  44.9453980  28.2991380  16.0308770
  46.4247880  28.8158880  15.0269980  45.8983100  29.3401500  14.4235120
  46.7679220  29.4486270  15.6579710  39.6003500  36.8358520  16.1827360
  39.0624590  37.5604580  15.8636060  39.8537460  36.3588860  15.3924700
  40.8528750  24.8043040  17.7083290  41.4428440  24.4958890  18.3961110
  40.0348990  24.3322790  17.8643190  45.6722180  24.4208850  17.9416310
  44.9837700  23.7590390  17.8766300  46.3928200  23.9747120  18.3864770
  46.3022580  21.0160480   4.0006570  46.5824870  20.1728380   4.3565990
  45.5288310  21.2483590   4.5145320  42.4565710  38.0709730  16.4414010
  42.3824410  38.9744870  16.7486380  41.5544550  37.7521630  16.4136080
  40.8402000  22.2487490   2.4453770  40.4924000  21.5711480   1.8656220
  41.0414770  21.7877000   3.2597160  43.0051040  37.2368240   4.0640370
  43.9001830  37.5753210   4.0859130  43.0368670  36.5147650   3.4364650
  36.6447200  32.6095290   2.2927370  37.0822070  33.1524960   2.9484950
  37.1294930  31.7842240   2.3023710  33.8593000  35.3984320   9.7447630
  34.1896010  34.5305380   9.5126270  34.2884000  35.6042840  10.5752590
  38.4554920  33.7293330   7.4049600  38.1550460  33.6058300   8.3053510
  38.3492410  32.8701920   6.9965330  34.3483210  36.2654910  12.4829260
  33.9114200  36.4455710  13.3153410  34.9160890  37.0229530  12.3410980
  49.9845390  35.7671910  16.7706570  49.3847380  35.8264470  16.0270490
  50.1139290  34.8276890  16.9003420  51.2246840  33.5089730   2.1076280
  50.3939800  33.5766380   2.5783510  51.4018670  34.3993850   1.8043140
  50.6803300  30.2537210   4.6110480  51.4422210  30.8233860   4.7170170
  50.6957670  29.6864410   5.3818790  34.1807640  28.7775140   8.8418140
  33.5256480  28.5086780   8.1977840  35.0185590  28.6679620   8.3920120
  51.6863270  31.1087310   9.4552410  52.0572100  30.3254630   9.0488380
  52.3265200  31.7976410   9.2769710  48.6697030  32.4923890  14.8682730
  47.8556870  32.9221050  15.1308520  49.0771230  33.1042300  14.2551780
  50.7322470  30.5471580   1.7683000  51.0071310  31.4550460   1.6402220
  50.5433210  30.4834110   2.7044990  47.1298080  23.5716430   3.0636630
  47.5482960  23.3847410   2.2233290  46.8234140  22.7195480   3.3739560
  50.6287810  28.4840570   6.7612430  50.2531410  27.7168500   6.3293720
  49.8990930  28.8663270   7.2487360  35.2183570  29.1627710  13.3821480
  35.5856610  29.0755110  14.2617500  34.6494390  28.3994260  13.2828340
  50.0187430  27.6312090  16.3951950  49.7873520  27.4024840  15.4949900
  50.2791980  28.5511640  16.3496840  34.7699570  26.0736800  17.2879900
  33.8755620  26.0403560  17.6273610  35.3097120  26.2723590  18.0531150
  48.4575500  22.8568520  19.1731650  49.3345680  22.8651920  19.5565650
  48.4696340  22.1199360  18.5624000  33.3945720  25.9874070   4.7843470
  32.4909800  26.2504270   4.6095130  33.8786340  26.2585240   4.0043430
  49.9038770  26.7098060  10.0619670  50.4276250  26.2160710   9.4309840
  50.4898190  26.8448420  10.8067240  50.0828490  26.7937930  13.5839220
  49.1331200  26.7601470  13.6984210  50.2641500  27.7038040  13.3488990
  35.9372930  25.0439610   2.6937850  36.6464630  24.6222830   2.2085130
  35.2212870  25.1114840   2.0621200  49.3938740  25.9671410   6.0012080
  49.8897860  25.7342280   6.7860960  49.1954810  25.1283250   5.5849720
  35.2739280  20.3485130  11.6363120  35.9215470  19.7982510  11.1958280
  35.6941120  20.6028280  12.4578930  50.8225900  24.6032360   8.5349760
  50.7125180  24.4488400   9.4732030  51.5833490  24.0753300   8.2925170
  49.1691620  20.5426490  14.9932760  49.8063840  21.1560630  15.3591950
  49.3166510  20.5787150  14.0481990  51.7116170  22.4340280   1.7755900
  52.6365480  22.3021460   1.5674190  51.6891960  22.5133100   2.7292350
  51.7854660  23.2050940   4.4012610  50.9906160  23.1396060   4.9305520
  51.9897940  24.1401580   4.3897960  48.7273080  37.2442490   8.3951000
  49.3232150  36.9227060   7.7185420  48.9851230  36.7714310   9.1864270
  35.0271280  20.5040800  14.3788440  34.6786100  20.9604620  15.1446620
  34.6958980  19.6097930  14.4610870  36.6335650  33.6760400  18.5441630
  36.5905280  33.3053310  19.4256090  36.7646660  34.6137970  18.6843450
  40.3341680  35.2319990  14.1451350  40.0933040  35.4994550  13.2581870
  41.2744320  35.4025720  14.2002210  42.5396100  21.6952680  17.9007860
  42.4784990  22.2874510  18.6503270  43.4796480  21.5878640  17.7558120
  45.1770660  21.3522740  17.5400150  45.7911070  21.6702030  16.8781230
  45.7220220  20.8671330  18.1596010  51.5945840  37.2514370  14.9461990
  51.1004120  37.6483240  14.2289120  50.9859130  36.6263580  15.3399270
  35.6991920  20.0317000  17.6539210  36.2474910  19.8505050  16.8905320
  35.7647230  19.2411110  18.1895520  36.4723680  36.6222650  15.6639410
  35.8784000  36.4907350  16.4029450  36.4647520  35.7860790  15.1981510
  45.9178700  19.9154880  13.8669440  45.0438540  20.2489990  13.6642370
  45.8089450  19.4428060  14.6921310  46.8250680  22.1225750  15.2511160
  46.4964040  21.3077510  14.8712890  47.7732980  22.0795560  15.1276850
  49.2785290  37.8937790  12.2248730  48.8188260  38.6453600  11.8506750
  48.6497750  37.1744260  12.1663530  36.1035910  33.9881030  14.6147450
  35.3769970  33.3686320  14.5473400  36.1645060  34.3821640  13.7445530
  39.7081010  36.2026030  11.3996860  40.2246030  35.5913390  10.8745120
  40.3578390  36.7054810  11.8907870  42.4476510  37.0934520  12.2265840
  42.7354320  36.8388820  11.3498850  42.9599730  36.5411880  12.8171410
  43.6653520  20.8324720  12.8062350  42.8825310  21.3070220  13.0859110
  43.3716450  19.9279550  12.6975530  48.2174590  21.5347820  10.8511440
  48.6582680  21.4792920  10.0033040  47.9482180  22.4505830  10.9221620
  50.0813160  21.1663060   8.8620260  50.0201560  20.2224280   8.7151280
  50.8605190  21.2743150   9.4073720  34.3865910  37.3055420   7.8244210
  34.2187950  36.6726100   8.5226100  33.5200420  37.5114820   7.4738400
  35.0093930  21.1372200   5.3276070  35.7673290  21.2501080   4.7540100
  34.5471100  21.9741400   5.2819500  41.5507740  23.2511470   8.3178380
  40.7382250  22.8768360   7.9774260  42.0549380  22.4956550   8.6199570
  46.0532720  19.9153920   9.5561450  46.6562090  20.4874130  10.0309970
  45.3125710  20.4793360   9.3335350  49.1967320  20.3175480   4.8301730
  49.3917950  21.2158930   5.0969160  48.4097190  20.0862560   5.3234680
  35.9928610  35.9988650   5.2694350  35.4676230  36.3796680   4.5656310
  35.9173190  36.6239420   5.9904060  37.3819080  21.6636250   3.8678040
  37.9111840  20.8766050   3.7385990  38.0147400  22.3427440   4.1013570
  39.5756920  21.4011390   6.9223430  38.9459660  20.6998700   7.0893560
  39.0362060  22.1615520   6.7056590  42.5148870  38.0150620  19.5934040
  43.4416180  37.7794890  19.6370000  42.4999300  38.8422620  19.1120070
  50.7493930  37.5576190   6.5908290  50.9246120  36.8713930   5.9469210
  50.0515500  38.0823240   6.1984960  39.7012480  20.6795370  19.3575920
  39.4196750  21.1828970  18.5936740  40.0832180  19.8817120  18.9918050
  38.5921580  37.9471030   4.1443600  39.3240400  37.6630310   3.5967490
  38.8515250  37.7084310   5.0342980  37.7536370  34.0635760   4.1489930
  37.1245250  34.5320860   4.6975760  37.8684200  33.2184980   4.5836120
  46.3027940  20.0948950  19.9356390  46.1893390  20.4143560  20.8307910
  47.1197680  20.4961460  19.6393670  49.0826430  37.2420480  19.4175080
  49.8751750  36.7469710  19.2101040  49.3759580  37.9210620  20.0250690
  45.2086090   9.3397930  65.3965090  45.1280140   8.4252540  65.1256800
  44.7950510   9.8365000  64.6904800  43.3404130  11.1176950  67.2774360
  42.5646230  10.6377390  67.5672930  43.9917060  10.4382600  67.1030520
  37.3569960  11.4296760  68.1550120  36.5254840  11.1745470  68.5546630
  37.9650940  11.5007530  68.8908040  47.3611560  15.5237140  66.0573490
  46.8993090  14.7524380  66.3860660  48.1737110  15.5503210  66.5625940
  37.3371220  15.4636850  68.3508140  37.6399260  14.5734590  68.1718360
  38.0814810  16.0207070  68.1230390  35.7661910   6.3898650  61.9392510
  34.8778610   6.7314620  61.8372390  36.0503100   6.1898970  61.0473340
  33.7294920   8.9904300  67.8232210  34.3011030   8.2226500  67.8235850
  33.7296460   9.2893060  66.9138820  43.5874870  17.8095150  65.6777480
  42.9686310  18.2652650  65.1071920  44.4426650  17.9646610  65.2767180
  42.7813120  13.7934140  67.2844520  42.7121400  12.8524080  67.1233650
  43.5432980  13.8835550  67.8567090  34.9719790   4.3988660  69.6101140
  34.7922630   3.5014410  69.8903900  34.5699870   4.9460530  70.2848090
  43.8118290   6.6004520  67.5113450  44.1883110   5.7276400  67.3987120
  43.7137800   6.9363220  66.6203890  37.9423300   4.9730150  62.9730890
  38.0490050   5.8733880  63.2799650  37.0315660   4.9248120  62.6825540
  47.5942410   4.0954960  64.4441790  48.4152030   3.6051530  64.4867270
  47.6276490   4.6852620  65.1973630  35.5906460   6.8949160  68.2183480
  36.2716570   7.1587530  68.8370880  35.2754510   6.0550030  68.5521490
  39.7831030   7.9416520  67.3056070  40.2909250   8.4397490  67.9461090
  40.3144270   7.1651720  67.1295430  51.8841960   6.1121710  71.0085420
  51.1794130   6.5003420  70.4900530  52.1499880   6.8072000  71.6106350
  38.0667130   2.5815080  71.5719490  38.0685570   3.0987470  70.7665390
  37.2371440   2.1045260  71.5489420  44.4538220  12.6934390  63.0709390
  43.8355490  13.1583840  62.5072110  44.9661470  13.3861870  63.4878900
  39.3169980  12.2210260  69.7492990  38.9839360  12.8479180  70.3914060
  39.4936660  12.7472140  68.9694660  47.8303890   6.0355340  67.2169330
  47.1259460   6.3240230  67.7972440  48.1916050   6.8455450  66.8568890
  37.7482460   4.2925040  69.5789940  38.0899270   5.1367090  69.2843810
  36.8098270   4.4408780  69.6955280  38.5289080  14.1891060  71.5642170
  39.1463080  14.8642140  71.2826620  37.6682200  14.5979040  71.4729670
  33.8221420  13.3790920  60.4449020  33.4449400  13.8678020  59.7133920
  34.0794490  14.0516200  61.0755550  49.4466670  15.6530470  69.4796810
  48.7630190  16.3229580  69.4713480  49.9860960  15.8511120  68.7141670
  50.8990810   5.4810130  67.6078540  49.9515720   5.5149110  67.7393970
  51.2240800   6.2949080  67.9927900  46.9825410  17.4974600  68.1941990
  46.9952570  17.0936890  67.3264250  46.4300630  18.2721890  68.0903420
  48.2770830  14.2190820  63.2832160  48.1667160  13.2765150  63.4081580
  48.2739080  14.5806460  64.1694920  46.3810850  12.4004440  69.5224600
  46.7979640  12.1864550  68.6878060  47.1050670  12.6577230  70.0933220
  43.8191110   9.8456140  62.6394650  42.8920390   9.7793520  62.8683120
  43.9715930  10.7836270  62.5249890  43.8060190   6.1173140  59.6361810
  42.8663860   6.2787100  59.7214270  44.1243450   6.8358820  59.0897800
  50.3272950  10.7991660  69.6140840  49.4991580  10.8684750  69.1390970
  50.9223430  11.3845970  69.1456670  47.8488400  11.4076440  63.1429900
  47.2300820  11.0695990  62.4956200  47.8312850  10.7636200  63.8509090
  47.2914960   7.5860980  70.5595710  46.8786140   8.4114690  70.8135700
  46.5590910   7.0006020  70.3672070  39.4247750  10.3720880  65.4214380
  39.0204750   9.6598130  64.9260280  39.5110870  10.0274120  66.3102420
  39.8929450  14.0588440  67.5853590  39.5957740  13.4533910  66.9061370
  40.8429270  14.0965750  67.4742950  38.1376370   7.1464090  69.2013420
  38.6890960   7.2559430  68.4266670  38.6519880   7.5201690  69.9168650
  47.9815060  17.6320310  71.2476690  47.5045620  18.4392500  71.0549300
  47.2976850  16.9798640  71.4002900  38.9847880  13.7970130  74.2361390
  38.0876410  14.0210100  74.4834790  39.0100750  13.9205070  73.2872790
  46.0253100  10.6463250  60.1502650  46.4646380   9.8085680  60.0040470
  46.7381520  11.2792650  60.2366790  37.8119100  10.6683450  72.8118760
  37.6726870  11.5406250  73.1806160  36.9300460  10.3256260  72.6666700
  44.1348480  15.5859320  64.1183890  44.5744390  16.3283650  63.7039280
  44.0735370  15.8285890  65.0422850  39.6099450  16.6105150  75.0203910
  39.5814880  17.0148100  74.1532340  39.4464420  15.6815510  74.8575510
  49.6070240   1.9006060  58.4643690  49.2942900   1.9932890  59.3642760
  50.3682710   2.4787090  58.4141120  36.1252380   9.2665860  62.9221030
  36.0049980   9.9927950  62.3102300  35.8153270   8.4968770  62.4448940
  33.7637750  12.4381000  68.7289670  33.8418170  12.5729770  67.7845390
  34.3779430  11.7296890  68.9217790  35.0085380  14.1381190  65.1395850
  34.6013460  14.2795780  64.2849450  35.8998390  13.8541350  64.9367060
  50.9647520  14.5845100  73.4768090  51.0910580  14.3456980  72.5585270
  51.0068900  13.7529640  73.9490170  44.8264260  18.2873100  72.0462900
  45.3408930  18.1981110  72.8485330  43.9833340  18.6332800  72.3390810
  46.8018660  18.5728440  61.4746900  46.6419800  18.2831380  62.3728730
  46.6365370  17.7968570  60.9392130  39.2807040  18.3526970  63.2518520
  39.1049520  17.4362510  63.0386320  38.4262780  18.7114260  63.4916320
  46.5044790  16.0816000  60.0344900  45.8109950  16.0793290  59.3747180
  47.2467650  15.6575320  59.6039070  46.0694720  17.7078710  64.1093390
  46.5251670  16.9268090  64.4232010  46.4087240  18.4185530  64.6534570
  50.8171530   6.6377560  74.4417830  50.2015800   7.1457230  73.9133290
  50.4967950   5.7375890  74.3843770  33.8197270  13.4795170  71.2684130
  33.9828310  13.0100530  70.4503500  34.2849720  12.9718730  71.9332970
  38.5916040   2.6100930  66.3044700  38.1484190   3.3910470  65.9729220
  39.1501030   2.9330820  67.0115640  42.8785850   5.4769450  71.9080020
  42.4165220   5.6852470  72.7199960  42.4763960   4.6628800  71.6050690
  47.8790360   6.6978400  73.0376680  47.0283950   6.3984150  73.3585750
  47.7192150   6.9420410  72.1260500  44.9740070   8.1980150  75.1375470
  45.2993480   7.3643900  74.7977700  45.7620400   8.7208670  75.2853800
  40.6291940   3.1548260  68.1634300  40.9264270   4.0611090  68.0826320
  41.1777500   2.6667040  67.5493870  38.3830260   7.7334500  64.0325950
  38.1571180   7.5171670  64.9372570  37.6022790   8.1662960  63.6871920
  45.6128020   7.7397870  62.6316600  45.0136910   8.4633670  62.4480220
  46.1607630   7.6774650  61.8493050  40.8229470   8.6320080  74.6986220
  40.7273070   7.6914810  74.5486620  41.6661450   8.8535150  74.3034290
  44.2192890   6.3761410  64.6619880  44.6122460   6.6933610  63.8488570
  44.5809740   5.4973290  64.7764400  35.9540010   5.0433750  72.8520000
  35.5603400   5.8908960  73.0592780  35.2658410   4.4060120  73.0428640
  33.2557060   2.9662210  66.8850080  32.9670110   3.5365070  67.5975060
  34.0002820   2.4866660  67.2481310  33.4427290   6.9082330  58.0952800
  33.3601960   7.8513090  58.2367790  33.0910350   6.7657240  57.2165150
  44.8048030   8.9667160  68.7570660  44.0729150   9.4753970  69.1060760
  44.4072370   8.1497140  68.4559440  41.2425420   5.6421360  67.1623150
  41.2461480   5.2011310  66.3127690  42.1376540   5.9638690  67.2694970
  37.0927800   5.5247850  66.1217360  36.7527850   6.0023080  66.8784410
  36.3305120   5.0712970  65.7618460  41.3045570   6.6433440  60.1529910
  41.4258390   6.6019920  61.1015730  40.9194080   7.5057590  59.9976640
  45.2673940   4.4200840  68.1693600  45.2846680   4.8709490  69.0135450
  45.0189520   3.5206480  68.3827040  40.3167070   8.9534580  59.5513210
  39.7483970   8.5052830  58.9249120  41.0256070   9.3127360  59.0178360
  35.3936250  12.8546600  73.4279940  35.0091040  12.2140270  74.0262900
  35.7048440  13.5582720  73.9974670  41.5433390   9.7023140  68.9088560
  41.9103520   9.2281710  69.6549900  41.3538450  10.5764710  69.2496900
  34.4073880   4.4466830  65.0382030  34.1220800   4.0822500  65.8760650
  34.3452740   3.7147290  64.4245170  39.3332760   8.7431780  71.2272770
  39.0289830   9.6223760  71.4523130  40.2879220   8.8031570  71.2630210
  37.8614550  12.9492770  61.8239620  37.0876810  12.4090390  61.6638340
  38.5909180  12.4299380  61.4857380  48.6202530  11.9458130  67.6166010
  49.3401650  12.4413420  67.2262120  48.4184350  11.2676020  66.9719880
  44.0812470   3.3396090  61.7595400  43.2677080   2.8409260  61.6840710
  43.8874420   4.1794340  61.3431750  44.0021330  12.0167190  73.5035010
  43.9358640  11.0962860  73.2492600  43.3726470  12.1142630  74.2179650
  46.7960860   7.7115740  60.0557560  47.6840480   8.0232970  59.8808900
  46.7665950   6.8387990  59.6638140  37.9051950  12.6173150  65.4618430
  38.4230620  11.8141410  65.4075320  37.4535970  12.5552290  66.3035260
  42.7921450  13.8839430  60.7345730  43.1337150  14.6281660  60.2389050
  41.9634160  14.1970550  61.0970560  35.3896490   9.5834520  72.3744130
  35.0311430  10.2488370  72.9617470  35.0951050   8.7518070  72.7456750
  38.5909610  10.0418760  75.2583680  38.2909750  10.1875940  74.3611500
  39.3620850   9.4824050  75.1657070  43.9338060  14.8387760  73.2538810
  43.9482600  13.9068720  73.0357720  43.2263160  14.9247520  73.8928580
  49.0675130   9.0227580  59.5237420  48.9838850   9.4541800  58.6733860
  49.7869320   9.4825930  59.9564240  50.1449270  11.4795100  72.6007390
  49.4197460  12.0723880  72.4036780  50.6724730  11.4718640  71.8020760
  50.0962380  15.8769840  62.2519550  49.4538540  15.2225460  62.5263270
  49.7093040  16.2824930  61.4760220  45.6748860  13.2055270  66.0991240
  46.0272680  12.6083400  65.4392610  44.7911190  12.8799500  66.2699490
  41.7612140  13.9652960  63.5061650  42.4483270  14.5122170  63.8869240
  40.9744560  14.5093690  63.5411260  33.9004540   9.5825780  58.9978730
  34.7699390   9.8650580  59.2814650  33.4094860  10.3961650  58.8827540
  41.0639350  10.9698990  63.1187010  41.5202130  11.7804240  63.3447200
  40.7127560  10.6522130  63.9505500  43.3671960  16.4805330  70.3479310
  44.0114180  16.6864710  71.0252730  43.7301400  15.7193730  69.8950160
  44.6404040  14.4837680  69.0656760  45.2826270  13.7830840  69.1788930
  45.1653390  15.2636120  68.8853650  48.4859760  14.7686300  58.7895900
  48.2597340  14.0516740  59.3820540  48.0955960  14.5198740  57.9517650
  46.4141660  15.2832580  72.2692820  46.7497900  15.8699270  72.9470740
  45.4942000  15.1525290  72.4990610  34.2675790  18.7953160  59.5640360
  34.6273430  19.3942500  58.9097630  34.1268130  19.3413050  60.3375390
  33.9645060   3.0727760  73.0516230  33.2503580   3.2724680  73.6568840
  34.3840100   2.2967330  73.4231030  48.0676010  12.6858240  60.4510060
  47.7797710  13.1470930  61.2387940  48.8628180  12.2256010  60.7194280
  34.2517650  17.0608020  74.0382760  34.3608770  16.1202760  73.8978150
  33.5998210  17.3262770  73.3896490  42.2430240  15.3323910  75.4380880
  41.9227110  14.6133150  75.9826570  41.5688600  16.0078980  75.5116940
  40.2844410  16.1784360  60.3814030  40.2754510  16.9114050  59.7658540
  39.3642770  15.9315940  60.4740990  35.8851050  11.3999250  61.1260790
  35.2779000  12.1398150  61.1356090  36.3600400  11.4898610  60.2998990
  45.4583840   5.5650070  70.8017680  45.8264660   4.7445280  71.1297250
  44.5982040   5.6251960  71.2173330  48.8245870   4.5207010  61.6105240
  48.1959030   4.6252680  60.8963470  48.3297790   4.7403790  62.3999120
  43.2704010  16.2412600  59.0439220  43.3715990  16.0376590  58.1141200
  42.3705750  15.9870880  59.2487000  40.7929900   6.7992960  63.0263120
  40.0846050   7.2679300  63.4676730  41.0774380   6.1414970  63.6608310
  42.4185830   8.2189660  71.0255650  42.9171080   8.6935480  71.6907500
  42.5608780   7.2953180  71.2325680  44.8245330   3.5243620  64.4658910
  44.7013110   3.5429750  63.5168420  45.7729890   3.5722560  64.5857310
  41.9122120  18.7598920  63.7386890  42.1663620  18.7220310  62.8166260
  40.9634600  18.6332250  63.7315140  38.9964920   5.1078040  60.4013830
  39.8455450   5.5448190  60.3354020  38.6296190   5.4198300  61.2285890
  49.6252690   4.4357620  71.8684040  49.1226290   5.1763020  72.2077850
  50.4409350   4.8241620  71.5520830  47.9174700   9.6790800  65.3145400
  46.9764840   9.6941030  65.4893090  48.2318770   8.8926760  65.7605700
  37.8956340  11.3610400  58.8749360  38.6619610  11.2491760  59.4374790
  37.9731030  10.6648370  58.2226130  36.5903100   8.7935470  59.5582250
  36.6706690   7.8462980  59.6699650  37.4822850   9.1242350  59.6642910
  49.9200280  16.8499650  66.9899660  50.0447700  17.6730820  67.4623470
  50.7865840  16.6390380  66.6423810  37.3917810  18.9430860  66.6616790
  38.1280290  18.3946320  66.9325360  37.7758730  19.8086870  66.5222780
  34.2763290  15.0104430  62.5358300  33.3503070  15.2525570  62.5263710
  34.7419720  15.8378690  62.4143050  40.5020120  18.1161170  58.4842360
  41.2948730  18.4050000  58.0324150  39.9824470  17.6853340  57.8054840
  46.6641090  17.9637090  74.4087190  47.6162840  17.8795110  74.3587430
  46.5169310  18.6278800  75.0820980  49.5550290  17.3431300  59.9079100
  49.2691800  16.9296440  59.0933280  49.3569840  18.2719010  59.7879620
  34.1173900  10.6150390  74.7938420  34.6212920  10.0357670  75.3654650
  33.3781320  10.8990620  75.3314790  41.0197520  13.3364580  58.3484710
  40.9148160  12.7216930  59.0746090  40.8521740  12.8130470  57.5647720
  41.1711840  12.0221380  74.3273940  40.4057510  12.5906380  74.2428610
  41.3527800  11.7297590  73.4342170  44.2600250  12.3984610  58.9526700
  43.7110350  12.8453910  59.5969440  44.8819510  11.8933860  59.4764370
  48.3135190  13.7526710  74.8848960  49.0544660  14.0902470  74.3816420
  47.5507870  13.9218770  74.3318730  39.9275370  11.3575530  60.8492000
  40.3491790  11.1915400  61.6923390  40.0526210  10.5475760  60.3547140
  38.0902790   7.3372080  73.6562980  37.5599250   6.8463030  73.0286320
  38.7590860   7.7656280  73.1220910  42.4403010  10.3813140  58.0969100
  42.9608670   9.6662160  57.7310250  43.0871410  11.0199010  58.3969610
  46.9880850  11.8041540  73.4204170  47.4021870  11.9586620  74.2694590
  46.0531850  11.9296760  73.5829950  47.4603020   9.1437700  75.4243320
  48.0423790   8.3890020  75.3363800  47.6364790   9.6745140  74.6474800
  38.5775090   4.3034450  73.7360270  38.4831960   3.6855200  73.0111140
  37.9972480   5.0300740  73.5090180  41.3436530   2.8607690  70.7687660
  40.8953830   2.8831950  69.9233210  40.7101730   2.4626710  71.3657960
  41.7496080  11.7562020  71.3900100  42.1684190  12.5994750  71.2176340
  40.8304710  11.8934060  71.1606880  44.0859980   9.4878200  72.7737940
  44.2056190   8.8919340  73.5132780  44.9453980   9.5247890  72.3539240
  46.4247880  10.0415390  71.3500450  45.8983100  10.5658010  70.7465590
  46.7679220  10.6742780  71.9810180  38.8234270   7.4308760  57.7950160
  38.6223330   6.5676120  58.1563500  38.6526320   7.3442120  56.8571760
  39.6003500  18.0615030  72.5057830  39.0624590  18.7861090  72.1866530
  39.8537460  17.5845370  71.7155170  40.8528750   6.0299550  74.0313760
  41.4428440   5.7215400  74.7191580  40.0348990   5.5579300  74.1873660
  45.6722180   5.6465360  74.2646780  44.9837700   4.9846900  74.1996770
  46.3928200   5.2003630  74.7095240  37.6217070   4.5309380  57.7828040
  37.9242970   4.5376810  56.8747190  38.3611660   4.1807240  58.2795700
  42.4565710  19.2966240  72.7644480  42.3824410  20.2001380  73.0716850
  41.5544550  18.9778140  72.7366550  40.8402000   3.4744000  58.7684240
  40.4924000   2.7967990  58.1886690  41.0414770   3.0133510  59.5827630
  43.0051040  18.4624750  60.3870840  43.9001830  18.8009720  60.4089600
  43.0368670  17.7404160  59.7595120  36.6447200  13.8351800  58.6157840
  37.0822070  14.3781470  59.2715420  37.1294930  13.0098750  58.6254180
  33.8593000  16.6240830  66.0678100  34.1896010  15.7561890  65.8356740
  34.2884000  16.8299350  66.8983060  38.4554920  14.9549840  63.7280070
  38.1550460  14.8314810  64.6283980  38.3492410  14.0958430  63.3195800
  34.3483210  17.4911420  68.8059730  33.9114200  17.6712220  69.6383880
  34.9160890  18.2486040  68.6641450  49.9845390  16.9928420  73.0937040
  49.3847380  17.0520980  72.3500960  50.1139290  16.0533400  73.2233890
  51.2246840  14.7346240  58.4306750  50.3939800  14.8022890  58.9013980
  51.4018670  15.6250360  58.1273610  50.6803300  11.4793720  60.9340950
  51.4422210  12.0490370  61.0400640  50.6957670  10.9120920  61.7049260
  34.1807640  10.0031650  65.1648610  33.5256480   9.7343290  64.5208310
  35.0185590   9.8936130  64.7150590  51.6863270  12.3343820  65.7782880
  52.0572100  11.5511140  65.3718850  52.3265200  13.0232920  65.6000180
  48.6697030  13.7180400  71.1913200  47.8556870  14.1477560  71.4538990
  49.0771230  14.3298810  70.5782250  50.7322470  11.7728090  58.0913470
  51.0071310  12.6806970  57.9632690  50.5433210  11.7090620  59.0275460
  47.1298080   4.7972940  59.3867100  47.5482960   4.6103920  58.5463760
  46.8234140   3.9451990  59.6970030  50.6287810   9.7097080  63.0842900
  50.2531410   8.9425010  62.6524190  49.8990930  10.0919780  63.5717830
  35.2183570  10.3884220  69.7051950  35.5856610  10.3011620  70.5847970
  34.6494390   9.6250770  69.6058810  50.0187430   8.8568600  72.7182420
  49.7873520   8.6281350  71.8180370  50.2791980   9.7768150  72.6727310
  34.7699570   7.2993310  73.6110370  33.8755620   7.2660070  73.9504080
  35.3097120   7.4980100  74.3761620  48.4575500   4.0825030  75.4962120
  49.3345680   4.0908430  75.8796120  48.4696340   3.3455870  74.8854470
  33.3945720   7.2130580  61.1073940  32.4909800   7.4760780  60.9325600
  33.8786340   7.4841750  60.3273900  49.9038770   7.9354570  66.3850140
  50.4276250   7.4417220  65.7540310  50.4898190   8.0704930  67.1297710
  50.0828490   8.0194440  69.9069690  49.1331200   7.9857980  70.0214680
  50.2641500   8.9294550  69.6719460  35.9372930   6.2696120  59.0168320
  36.6464630   5.8479340  58.5315600  35.2212870   6.3371350  58.3851670
  35.5847090   2.3235450  58.0570970  36.3075220   2.8644390  58.3752190
  35.8571610   2.0498870  57.1812510  49.3938740   7.1927920  62.3242550
  49.8897860   6.9598790  63.1091430  49.1954810   6.3539760  61.9080190
  50.8225900   5.8288870  64.8580230  50.7125180   5.6744910  65.7962500
  51.5833490   5.3009810  64.6155640  49.1691620   1.7683000  71.3163230
  49.8063840   2.3817140  71.6822420  49.3166510   1.8043660  70.3712460
  51.7116170   3.6596790  58.0986370  52.6365480   3.5277970  57.8904660
  51.6891960   3.7389610  59.0522820  51.7854660   4.4307450  60.7243080
  50.9906160   4.3652570  61.2535990  51.9897940   5.3658090  60.7128430
  48.7273080  18.4699000  64.7181470  49.3232150  18.1483570  64.0415890
  48.9851230  17.9970820  65.5094740  36.6335650  14.9016910  74.8672100
  36.5905280  14.5309820  75.7486560  36.7646660  15.8394480  75.0073920
  40.3341680  16.4576500  70.4681820  40.0933040  16.7251060  69.5812340
  41.2744320  16.6282230  70.5232680  42.5396100   2.9209190  74.2238330
  42.4784990   3.5131020  74.9733740  43.4796480   2.8135150  74.0788590
  45.1770660   2.5779250  73.8630620  45.7911070   2.8958540  73.2011700
  45.7220220   2.0927840  74.4826480  51.5945840  18.4770880  71.2692460
  51.1004120  18.8739750  70.5519590  50.9859130  17.8520090  71.6629740
  36.4723680  17.8479160  71.9869880  35.8784000  17.7163860  72.7259920
  36.4647520  17.0117300  71.5211980  46.8250680   3.3482260  71.5741630
  46.4964040   2.5334020  71.1943360  47.7732980   3.3052070  71.4507320
  49.2785290  19.1194300  68.5479200  48.8188260  19.8710110  68.1737220
  48.6497750  18.4000770  68.4894000  36.1035910  15.2137540  70.9377920
  35.3769970  14.5942830  70.8703870  36.1645060  15.6078150  70.0676000
  39.7081010  17.4282540  67.7227330  40.2246030  16.8169900  67.1975590
  40.3578390  17.9311320  68.2138340  42.4476510  18.3191030  68.5496310
  42.7354320  18.0645330  67.6729320  42.9599730  17.7668390  69.1401880
  48.2174590   2.7604330  67.1741910  48.6582680   2.7049430  66.3263510
  47.9482180   3.6762340  67.2452090  34.3865910  18.5311930  64.1474680
  34.2187950  17.8982610  64.8456570  33.5200420  18.7371330  63.7968870
  35.0093930   2.3628710  61.6506540  35.7673290   2.4757590  61.0770570
  34.5471100   3.1997910  61.6049970  41.5507740   4.4767980  64.6408850
  40.7382250   4.1024870  64.3004730  42.0549380   3.7213060  64.9430040
  35.9928610  17.2245160  61.5924820  35.4676230  17.6053190  60.8886780
  35.9173190  17.8495930  62.3134530  37.3819080   2.8892760  60.1908510
  37.9111840   2.1022560  60.0616460  38.0147400   3.5683950  60.4244040
  39.5756920   2.6267900  63.2453900  38.9459660   1.9255210  63.4124030
  39.0362060   3.3872030  63.0287060  42.5148870  19.2407130  75.9164510
  43.4416180  19.0051400  75.9600470  42.4999300  20.0679130  75.4350540
  50.7493930  18.7832700  62.9138760  50.9246120  18.0970440  62.2699680
  50.0515500  19.3079750  62.5215430  38.5921580  19.1727540  60.4674070
  39.3240400  18.8886820  59.9197960  38.8515250  18.9340820  61.3573450
  37.7536370  15.2892270  60.4720400  37.1245250  15.7577370  61.0206230
  37.8684200  14.4441490  60.9066590  45.2086090   9.3397930  46.6221600
  45.1280140   8.4252540  46.3513310  44.7950510   9.8365000  45.9161310
  43.3404130  11.1176950  48.5030870  42.5646230  10.6377390  48.7929440
  43.9917060  10.4382600  48.3287030  37.3569960  11.4296760  49.3806630
  36.5254840  11.1745470  49.7803140  37.9650940  11.5007530  50.1164550
  37.3371220  15.4636850  49.5764650  37.6399260  14.5734590  49.3974870
  38.0814810  16.0207070  49.3486900  35.7661910   6.3898650  43.1649020
  34.8778610   6.7314620  43.0628900  36.0503100   6.1898970  42.2729850
  33.7294920   8.9904300  49.0488720  34.3011030   8.2226500  49.0492360
  33.7296460   9.2893060  48.1395330  42.7813120  13.7934140  48.5101030
  42.7121400  12.8524080  48.3490160  43.5432980  13.8835550  49.0823600
  34.9719790   4.3988660  50.8357650  34.7922630   3.5014410  51.1160410
  34.5699870   4.9460530  51.5104600  43.8118290   6.6004520  48.7369960
  44.1883110   5.7276400  48.6243630  43.7137800   6.9363220  47.8460400
  37.9423300   4.9730150  44.1987400  38.0490050   5.8733880  44.5056160
  37.0315660   4.9248120  43.9082050  47.5942410   4.0954960  45.6698300
  48.4152030   3.6051530  45.7123780  47.6276490   4.6852620  46.4230140
  35.5906460   6.8949160  49.4439990  36.2716570   7.1587530  50.0627390
  35.2754510   6.0550030  49.7778000  39.7831030   7.9416520  48.5312580
  40.2909250   8.4397490  49.1717600  40.3144270   7.1651720  48.3551940
  51.8841960   6.1121710  52.2341930  51.1794130   6.5003420  51.7157040
  52.1499880   6.8072000  52.8362860  38.0667130   2.5815080  52.7976000
  38.0685570   3.0987470  51.9921900  37.2371440   2.1045260  52.7745930
  44.4538220  12.6934390  44.2965900  43.8355490  13.1583840  43.7328620
  44.9661470  13.3861870  44.7135410  39.3169980  12.2210260  50.9749500
  38.9839360  12.8479180  51.6170570  39.4936660  12.7472140  50.1951170
  47.8303890   6.0355340  48.4425840  47.1259460   6.3240230  49.0228950
  48.1916050   6.8455450  48.0825400  37.7482460   4.2925040  50.8046450
  38.0899270   5.1367090  50.5100320  36.8098270   4.4408780  50.9211790
  38.5289080  14.1891060  52.7898680  39.1463080  14.8642140  52.5083130
  37.6682200  14.5979040  52.6986180  33.8221420  13.3790920  41.6705530
  33.4449400  13.8678020  40.9390430  34.0794490  14.0516200  42.3012060
  49.4466670  15.6530470  50.7053320  48.7630190  16.3229580  50.6969990
  49.9860960  15.8511120  49.9398180  50.8990810   5.4810130  48.8335050
  49.9515720   5.5149110  48.9650480  51.2240800   6.2949080  49.2184410
  48.2770830  14.2190820  44.5088670  48.1667160  13.2765150  44.6338090
  48.2739080  14.5806460  45.3951430  46.3810850  12.4004440  50.7481110
  46.7979640  12.1864550  49.9134570  47.1050670  12.6577230  51.3189730
  43.8191110   9.8456140  43.8651160  42.8920390   9.7793520  44.0939630
  43.9715930  10.7836270  43.7506400  43.8060190   6.1173140  40.8618320
  42.8663860   6.2787100  40.9470780  44.1243450   6.8358820  40.3154310
  50.3272950  10.7991660  50.8397350  49.4991580  10.8684750  50.3647480
  50.9223430  11.3845970  50.3713180  47.8488400  11.4076440  44.3686410
  47.2300820  11.0695990  43.7212710  47.8312850  10.7636200  45.0765600
  47.2914960   7.5860980  51.7852220  46.8786140   8.4114690  52.0392210
  46.5590910   7.0006020  51.5928580  39.4247750  10.3720880  46.6470890
  39.0204750   9.6598130  46.1516790  39.5110870  10.0274120  47.5358930
  39.8929450  14.0588440  48.8110100  39.5957740  13.4533910  48.1317880
  40.8429270  14.0965750  48.6999460  38.1376370   7.1464090  50.4269930
  38.6890960   7.2559430  49.6523180  38.6519880   7.5201690  51.1425160
  47.9815060  17.6320310  52.4733200  47.5045620  18.4392500  52.2805810
  47.2976850  16.9798640  52.6259410  38.9847880  13.7970130  55.4617900
  38.0876410  14.0210100  55.7091300  39.0100750  13.9205070  54.5129300
  46.0253100  10.6463250  41.3759160  46.4646380   9.8085680  41.2296980
  46.7381520  11.2792650  41.4623300  37.8119100  10.6683450  54.0375270
  37.6726870  11.5406250  54.4062670  36.9300460  10.3256260  53.8923210
  44.1348480  15.5859320  45.3440400  44.5744390  16.3283650  44.9295790
  44.0735370  15.8285890  46.2679360  39.6099450  16.6105150  56.2460420
  39.5814880  17.0148100  55.3788850  39.4464420  15.6815510  56.0832020
  49.6070240   1.9006060  39.6900200  49.2942900   1.9932890  40.5899270
  50.3682710   2.4787090  39.6397630  36.1252380   9.2665860  44.1477540
  36.0049980   9.9927950  43.5358810  35.8153270   8.4968770  43.6705450
  51.5614270  17.3932250  57.5424590  52.0373990  17.8715140  58.2213670
  52.1821430  17.3249740  56.8170090  33.7637750  12.4381000  49.9546180
  33.8418170  12.5729770  49.0101900  34.3779430  11.7296890  50.1474300
  35.0085380  14.1381190  46.3652360  34.6013460  14.2795780  45.5105960
  35.8998390  13.8541350  46.1623570  50.9647520  14.5845100  54.7024600
  51.0910580  14.3456980  53.7841780  51.0068900  13.7529640  55.1746680
  44.8264260  18.2873100  53.2719410  45.3408930  18.1981110  54.0741840
  43.9833340  18.6332800  53.5647320  39.2807040  18.3526970  44.4775030
  39.1049520  17.4362510  44.2642830  38.4262780  18.7114260  44.7172830
  46.5044790  16.0816000  41.2601410  45.8109950  16.0793290  40.6003690
  47.2467650  15.6575320  40.8295580  50.8171530   6.6377560  55.6674340
  50.2015800   7.1457230  55.1389800  50.4967950   5.7375890  55.6100280
  33.8197270  13.4795170  52.4940640  33.9828310  13.0100530  51.6760010
  34.2849720  12.9718730  53.1589480  38.5916040   2.6100930  47.5301210
  38.1484190   3.3910470  47.1985730  39.1501030   2.9330820  48.2372150
  42.8785850   5.4769450  53.1336530  42.4165220   5.6852470  53.9456470
  42.4763960   4.6628800  52.8307200  47.8790360   6.6978400  54.2633190
  47.0283950   6.3984150  54.5842260  47.7192150   6.9420410  53.3517010
  44.9740070   8.1980150  56.3631980  45.2993480   7.3643900  56.0234210
  45.7620400   8.7208670  56.5110310  40.6291940   3.1548260  49.3890810
  40.9264270   4.0611090  49.3082830  41.1777500   2.6667040  48.7750380
  38.3830260   7.7334500  45.2582460  38.1571180   7.5171670  46.1629080
  37.6022790   8.1662960  44.9128430  45.6128020   7.7397870  43.8573110
  45.0136910   8.4633670  43.6736730  46.1607630   7.6774650  43.0749560
  40.8229470   8.6320080  55.9242730  40.7273070   7.6914810  55.7743130
  41.6661450   8.8535150  55.5290800  44.2192890   6.3761410  45.8876390
  44.6122460   6.6933610  45.0745080  44.5809740   5.4973290  46.0020910
  35.9540010   5.0433750  54.0776510  35.5603400   5.8908960  54.2849290
  35.2658410   4.4060120  54.2685150  42.5285060   5.1268720  57.1473250
  41.8383380   4.9340920  57.7819340  43.2717360   5.4103360  57.6797550
  33.2557060   2.9662210  48.1106590  32.9670110   3.5365070  48.8231570
  34.0002820   2.4866660  48.4737820  33.4427290   6.9082330  39.3209310
  33.3601960   7.8513090  39.4624300  33.0910350   6.7657240  38.4421660
  44.8048030   8.9667160  49.9827170  44.0729150   9.4753970  50.3317270
  44.4072370   8.1497140  49.6815950  41.2425420   5.6421360  48.3879660
  41.2461480   5.2011310  47.5384200  42.1376540   5.9638690  48.4951480
  37.0927800   5.5247850  47.3473870  36.7527850   6.0023080  48.1040920
  36.3305120   5.0712970  46.9874970  41.3045570   6.6433440  41.3786420
  41.4258390   6.6019920  42.3272240  40.9194080   7.5057590  41.2233150
  45.2673940   4.4200840  49.3950110  45.2846680   4.8709490  50.2391960
  45.0189520   3.5206480  49.6083550  40.3167070   8.9534580  40.7769720
  39.7483970   8.5052830  40.1505630  41.0256070   9.3127360  40.2434870
  35.3936250  12.8546600  54.6536450  35.0091040  12.2140270  55.2519410
  35.7048440  13.5582720  55.2231180  41.5433390   9.7023140  50.1345070
  41.9103520   9.2281710  50.8806410  41.3538450  10.5764710  50.4753410
  34.4073880   4.4466830  46.2638540  34.1220800   4.0822500  47.1017160
  34.3452740   3.7147290  45.6501680  39.3332760   8.7431780  52.4529280
  39.0289830   9.6223760  52.6779640  40.2879220   8.8031570  52.4886720
  37.8614550  12.9492770  43.0496130  37.0876810  12.4090390  42.8894850
  38.5909180  12.4299380  42.7113890  48.6202530  11.9458130  48.8422520
  49.3401650  12.4413420  48.4518630  48.4184350  11.2676020  48.1976390
  44.0812470   3.3396090  42.9851910  43.2677080   2.8409260  42.9097220
  43.8874420   4.1794340  42.5688260  44.0021330  12.0167190  54.7291520
  43.9358640  11.0962860  54.4749110  43.3726470  12.1142630  55.4436160
  46.7960860   7.7115740  41.2814070  47.6840480   8.0232970  41.1065410
  46.7665950   6.8387990  40.8894650  37.9051950  12.6173150  46.6874940
  38.4230620  11.8141410  46.6331830  37.4535970  12.5552290  47.5291770
  42.7921450  13.8839430  41.9602240  43.1337150  14.6281660  41.4645560
  41.9634160  14.1970550  42.3227070  35.3896490   9.5834520  53.6000640
  35.0311430  10.2488370  54.1873980  35.0951050   8.7518070  53.9713260
  38.5909610  10.0418760  56.4840190  38.2909750  10.1875940  55.5868010
  39.3620850   9.4824050  56.3913580  43.9338060  14.8387760  54.4795320
  43.9482600  13.9068720  54.2614230  43.2263160  14.9247520  55.1185090
  49.0675130   9.0227580  40.7493930  48.9838850   9.4541800  39.8990370
  49.7869320   9.4825930  41.1820750  50.1449270  11.4795100  53.8263900
  49.4197460  12.0723880  53.6293290  50.6724730  11.4718640  53.0277270
  50.0962380  15.8769840  43.4776060  49.4538540  15.2225460  43.7519780
  49.7093040  16.2824930  42.7016730  45.6748860  13.2055270  47.3247750
  46.0272680  12.6083400  46.6649120  44.7911190  12.8799500  47.4956000
  41.7612140  13.9652960  44.7318160  42.4483270  14.5122170  45.1125750
  40.9744560  14.5093690  44.7667770  33.9004540   9.5825780  40.2235240
  34.7699390   9.8650580  40.5071160  33.4094860  10.3961650  40.1084050
  41.0639350  10.9698990  44.3443520  41.5202130  11.7804240  44.5703710
  40.7127560  10.6522130  45.1762010  43.3671960  16.4805330  51.5735820
  44.0114180  16.6864710  52.2509240  43.7301400  15.7193730  51.1206670
  44.6404040  14.4837680  50.2913270  45.2826270  13.7830840  50.4045440
  45.1653390  15.2636120  50.1110160  48.4859760  14.7686300  40.0152410
  48.2597340  14.0516740  40.6077050  48.0955960  14.5198740  39.1774160
  46.4141660  15.2832580  53.4949330  46.7497900  15.8699270  54.1727250
  45.4942000  15.1525290  53.7247120  34.2675790  18.7953160  40.7896870
  34.6273430  19.3942500  40.1354140  34.1268130  19.3413050  41.5631900
  33.9645060   3.0727760  54.2772740  33.2503580   3.2724680  54.8825350
  34.3840100   2.2967330  54.6487540  48.0676010  12.6858240  41.6766570
  47.7797710  13.1470930  42.4644450  48.8628180  12.2256010  41.9450790
  34.2517650  17.0608020  55.2639270  34.3608770  16.1202760  55.1234660
  33.5998210  17.3262770  54.6153000  42.2430240  15.3323910  56.6637390
  41.9227110  14.6133150  57.2083080  41.5688600  16.0078980  56.7373450
  40.2844410  16.1784360  41.6070540  40.2754510  16.9114050  40.9915050
  39.3642770  15.9315940  41.6997500  35.8851050  11.3999250  42.3517300
  35.2779000  12.1398150  42.3612600  36.3600400  11.4898610  41.5255500
  45.4583840   5.5650070  52.0274190  45.8264660   4.7445280  52.3553760
  44.5982040   5.6251960  52.4429840  48.8245870   4.5207010  42.8361750
  48.1959030   4.6252680  42.1219980  48.3297790   4.7403790  43.6255630
  43.2704010  16.2412600  40.2695730  43.3715990  16.0376590  39.3397710
  42.3705750  15.9870880  40.4743510  40.7929900   6.7992960  44.2519630
  40.0846050   7.2679300  44.6933240  41.0774380   6.1414970  44.8864820
  42.4185830   8.2189660  52.2512160  42.9171080   8.6935480  52.9164010
  42.5608780   7.2953180  52.4582190  44.8245330   3.5243620  45.6915420
  44.7013110   3.5429750  44.7424930  45.7729890   3.5722560  45.8113820
  41.9122120  18.7598920  44.9643400  42.1663620  18.7220310  44.0422770
  40.9634600  18.6332250  44.9571650  38.9964920   5.1078040  41.6270340
  39.8455450   5.5448190  41.5610530  38.6296190   5.4198300  42.4542400
  49.6252690   4.4357620  53.0940550  49.1226290   5.1763020  53.4334360
  50.4409350   4.8241620  52.7777340  47.9174700   9.6790800  46.5401910
  46.9764840   9.6941030  46.7149600  48.2318770   8.8926760  46.9862210
  37.8956340  11.3610400  40.1005870  38.6619610  11.2491760  40.6631300
  37.9731030  10.6648370  39.4482640  36.5903100   8.7935470  40.7838760
  36.6706690   7.8462980  40.8956160  37.4822850   9.1242350  40.8899420
  49.9200280  16.8499650  48.2156170  50.0447700  17.6730820  48.6879980
  50.7865840  16.6390380  47.8680320  37.3917810  18.9430860  47.8873300
  38.1280290  18.3946320  48.1581870  37.7758730  19.8086870  47.7479290
  34.2763290  15.0104430  43.7614810  33.3503070  15.2525570  43.7520220
  34.7419720  15.8378690  43.6399560  36.3976090  18.1276930  57.0758880
  37.1988820  18.4488980  57.4894280  35.8827910  17.7672510  57.7978790
  40.5020120  18.1161170  39.7098870  41.2948730  18.4050000  39.2580660
  39.9824470  17.6853340  39.0311350  45.2340720  14.2356800  57.0234290
  44.6278880  14.2588400  56.2830040  44.9294830  13.5039840  57.5601540
  46.6641090  17.9637090  55.6343700  47.6162840  17.8795110  55.5843940
  46.5169310  18.6278800  56.3077490  34.1173900  10.6150390  56.0194930
  34.6212920  10.0357670  56.5911160  33.3781320  10.8990620  56.5571300
  41.0197520  13.3364580  39.5741220  40.9148160  12.7216930  40.3002600
  40.8521740  12.8130470  38.7904230  41.1711840  12.0221380  55.5530450
  40.4057510  12.5906380  55.4685120  41.3527800  11.7297590  54.6598680
  44.2600250  12.3984610  40.1783210  43.7110350  12.8453910  40.8225950
  44.8819510  11.8933860  40.7020880  48.3135190  13.7526710  56.1105470
  49.0544660  14.0902470  55.6072930  47.5507870  13.9218770  55.5575240
  36.1496980   8.7579980  56.9145000  36.1902320   8.4593850  57.8230230
  37.0042480   9.1587590  56.7552520  39.9275370  11.3575530  42.0748510
  40.3491790  11.1915400  42.9179900  40.0526210  10.5475760  41.5803650
  38.0902790   7.3372080  54.8819490  37.5599250   6.8463030  54.2542830
  38.7590860   7.7656280  54.3477420  42.4403010  10.3813140  39.3225610
  42.9608670   9.6662160  38.9566760  43.0871410  11.0199010  39.6226120
  46.9880850  11.8041540  54.6460680  47.4021870  11.9586620  55.4951100
  46.0531850  11.9296760  54.8086460  47.4603020   9.1437700  56.6499830
  48.0423790   8.3890020  56.5620310  47.6364790   9.6745140  55.8731310
  38.5775090   4.3034450  54.9616780  38.4831960   3.6855200  54.2367650
  37.9972480   5.0300740  54.7346690  41.3436530   2.8607690  51.9944170
  40.8953830   2.8831950  51.1489720  40.7101730   2.4626710  52.5914470
  41.7496080  11.7562020  52.6156610  42.1684190  12.5994750  52.4432850
  40.8304710  11.8934060  52.3863390  44.0859980   9.4878200  53.9994450
  44.2056190   8.8919340  54.7389290  44.9453980   9.5247890  53.5795750
  46.4247880  10.0415390  52.5756960  45.8983100  10.5658010  51.9722100
  46.7679220  10.6742780  53.2066690  38.8234270   7.4308760  39.0206670
  38.6223330   6.5676120  39.3820010  38.6526320   7.3442120  38.0828270
  39.6003500  18.0615030  53.7314340  39.0624590  18.7861090  53.4123040
  39.8537460  17.5845370  52.9411680  40.8528750   6.0299550  55.2570270
  41.4428440   5.7215400  55.9448090  40.0348990   5.5579300  55.4130170
  45.6722180   5.6465360  55.4903290  44.9837700   4.9846900  55.4253280
  46.3928200   5.2003630  55.9351750  37.6217070   4.5309380  39.0084550
  37.9242970   4.5376810  38.1003700  38.3611660   4.1807240  39.5052210
  42.4565710  19.2966240  53.9900990  42.3824410  20.2001380  54.2973360
  41.5544550  18.9778140  53.9623060  40.8402000   3.4744000  39.9940750
  40.4924000   2.7967990  39.4143200  41.0414770   3.0133510  40.8084140
  43.0051040  18.4624750  41.6127350  43.9001830  18.8009720  41.6346110
  43.0368670  17.7404160  40.9851630  36.6447200  13.8351800  39.8414350
  37.0822070  14.3781470  40.4971930  37.1294930  13.0098750  39.8510690
  33.8593000  16.6240830  47.2934610  34.1896010  15.7561890  47.0613250
  34.2884000  16.8299350  48.1239570  38.4554920  14.9549840  44.9536580
  38.1550460  14.8314810  45.8540490  38.3492410  14.0958430  44.5452310
  34.3483210  17.4911420  50.0316240  33.9114200  17.6712220  50.8640390
  34.9160890  18.2486040  49.8897960  49.9845390  16.9928420  54.3193550
  49.3847380  17.0520980  53.5757470  50.1139290  16.0533400  54.4490400
  51.2246840  14.7346240  39.6563260  50.3939800  14.8022890  40.1270490
  51.4018670  15.6250360  39.3530120  50.6803300  11.4793720  42.1597460
  51.4422210  12.0490370  42.2657150  50.6957670  10.9120920  42.9305770
  34.1807640  10.0031650  46.3905120  33.5256480   9.7343290  45.7464820
  35.0185590   9.8936130  45.9407100  51.6863270  12.3343820  47.0039390
  52.0572100  11.5511140  46.5975360  52.3265200  13.0232920  46.8256690
  48.6697030  13.7180400  52.4169710  47.8556870  14.1477560  52.6795500
  49.0771230  14.3298810  51.8038760  50.7322470  11.7728090  39.3169980
  51.0071310  12.6806970  39.1889200  50.5433210  11.7090620  40.2531970
  47.1298080   4.7972940  40.6123610  47.5482960   4.6103920  39.7720270
  46.8234140   3.9451990  40.9226540  50.6287810   9.7097080  44.3099410
  50.2531410   8.9425010  43.8780700  49.8990930  10.0919780  44.7974340
  35.2183570  10.3884220  50.9308460  35.5856610  10.3011620  51.8104480
  34.6494390   9.6250770  50.8315320  50.0187430   8.8568600  53.9438930
  49.7873520   8.6281350  53.0436880  50.2791980   9.7768150  53.8983820
  34.7699570   7.2993310  54.8366880  33.8755620   7.2660070  55.1760590
  35.3097120   7.4980100  55.6018130  48.4575500   4.0825030  56.7218630
  49.3345680   4.0908430  57.1052630  48.4696340   3.3455870  56.1110980
  33.3945720   7.2130580  42.3330450  32.4909800   7.4760780  42.1582110
  33.8786340   7.4841750  41.5530410  49.9038770   7.9354570  47.6106650
  50.4276250   7.4417220  46.9796820  50.4898190   8.0704930  48.3554220
  50.0828490   8.0194440  51.1326200  49.1331200   7.9857980  51.2471190
  50.2641500   8.9294550  50.8975970  35.9372930   6.2696120  40.2424830
  36.6464630   5.8479340  39.7572110  35.2212870   6.3371350  39.6108180
  35.5847090   2.3235450  39.2827480  36.3075220   2.8644390  39.6008700
  35.8571610   2.0498870  38.4069020  49.3938740   7.1927920  43.5499060
  49.8897860   6.9598790  44.3347940  49.1954810   6.3539760  43.1336700
  50.8225900   5.8288870  46.0836740  50.7125180   5.6744910  47.0219010
  51.5833490   5.3009810  45.8412150  49.1691620   1.7683000  52.5419740
  49.8063840   2.3817140  52.9078930  49.3166510   1.8043660  51.5968970
  51.7116170   3.6596790  39.3242880  52.6365480   3.5277970  39.1161170
  51.6891960   3.7389610  40.2779330  51.7854660   4.4307450  41.9499590
  50.9906160   4.3652570  42.4792500  51.9897940   5.3658090  41.9384940
  36.6335650  14.9016910  56.0928610  36.5905280  14.5309820  56.9743070
  36.7646660  15.8394480  56.2330430  40.3341680  16.4576500  51.6938330
  40.0933040  16.7251060  50.8068850  41.2744320  16.6282230  51.7489190
  42.5396100   2.9209190  55.4494840  42.4784990   3.5131020  56.1990250
  43.4796480   2.8135150  55.3045100  45.1770660   2.5779250  55.0887130
  45.7911070   2.8958540  54.4268210  45.7220220   2.0927840  55.7082990
  51.5945840  18.4770880  52.4948970  51.1004120  18.8739750  51.7776100
  50.9859130  17.8520090  52.8886250  36.4723680  17.8479160  53.2126390
  35.8784000  17.7163860  53.9516430  36.4647520  17.0117300  52.7468490
  46.8250680   3.3482260  52.7998140  46.4964040   2.5334020  52.4199870
  47.7732980   3.3052070  52.6763830  49.2785290  19.1194300  49.7735710
  48.8188260  19.8710110  49.3993730  48.6497750  18.4000770  49.7150510
  36.1035910  15.2137540  52.1634430  35.3769970  14.5942830  52.0960380
  36.1645060  15.6078150  51.2932510  39.7081010  17.4282540  48.9483840
  40.2246030  16.8169900  48.4232100  40.3578390  17.9311320  49.4394850
  42.4476510  18.3191030  49.7752820  42.7354320  18.0645330  48.8985830
  42.9599730  17.7668390  50.3658390  48.2174590   2.7604330  48.3998420
  48.6582680   2.7049430  47.5520020  47.9482180   3.6762340  48.4708600
  34.3865910  18.5311930  45.3731190  34.2187950  17.8982610  46.0713080
  33.5200420  18.7371330  45.0225380  35.0093930   2.3628710  42.8763050
  35.7673290   2.4757590  42.3027080  34.5471100   3.1997910  42.8306480
  41.5507740   4.4767980  45.8665360  40.7382250   4.1024870  45.5261240
  42.0549380   3.7213060  46.1686550  35.9928610  17.2245160  42.8181330
  35.4676230  17.6053190  42.1143290  35.9173190  17.8495930  43.5391040
  37.3819080   2.8892760  41.4165020  37.9111840   2.1022560  41.2872970
  38.0147400   3.5683950  41.6500550  39.5756920   2.6267900  44.4710410
  38.9459660   1.9255210  44.6380540  39.0362060   3.3872030  44.2543570
  42.5148870  19.2407130  57.1421020  43.4416180  19.0051400  57.1856980
  42.4999300  20.0679130  56.6607050  38.5921580  19.1727540  41.6930580
  39.3240400  18.8886820  41.1454470  38.8515250  18.9340820  42.5829960
  37.7536370  15.2892270  41.6976910  37.1245250  15.7577370  42.2462740
  37.8684200  14.4441490  42.1323100  49.0826430  18.4676990  56.9662060
  49.8751750  17.9726220  56.7588020  49.3759580  19.1467130  57.5737670
  45.2086090   9.3397930  27.8478110  45.1280140   8.4252540  27.5769820
  44.7950510   9.8365000  27.1417820  43.3404130  11.1176950  29.7287380
  42.5646230  10.6377390  30.0185950  43.9917060  10.4382600  29.5543540
  37.3569960  11.4296760  30.6063140  36.5254840  11.1745470  31.0059650
  37.9650940  11.5007530  31.3421060  47.3611560  15.5237140  28.5086510
  46.8993090  14.7524380  28.8373680  48.1737110  15.5503210  29.0138960
  37.3371220  15.4636850  30.8021160  37.6399260  14.5734590  30.6231380
  38.0814810  16.0207070  30.5743410  35.7661910   6.3898650  24.3905530
  34.8778610   6.7314620  24.2885410  36.0503100   6.1898970  23.4986360
  33.7294920   8.9904300  30.2745230  34.3011030   8.2226500  30.2748870
  33.7296460   9.2893060  29.3651840  43.5874870  17.8095150  28.1290500
  42.9686310  18.2652650  27.5584940  44.4426650  17.9646610  27.7280200
  42.7813120  13.7934140  29.7357540  42.7121400  12.8524080  29.5746670
  43.5432980  13.8835550  30.3080110  34.9719790   4.3988660  32.0614160
  34.7922630   3.5014410  32.3416920  34.5699870   4.9460530  32.7361110
  43.8118290   6.6004520  29.9626470  44.1883110   5.7276400  29.8500140
  43.7137800   6.9363220  29.0716910  37.9423300   4.9730150  25.4243910
  38.0490050   5.8733880  25.7312670  37.0315660   4.9248120  25.1338560
  47.5942410   4.0954960  26.8954810  48.4152030   3.6051530  26.9380290
  47.6276490   4.6852620  27.6486650  35.5906460   6.8949160  30.6696500
  36.2716570   7.1587530  31.2883900  35.2754510   6.0550030  31.0034510
  39.7831030   7.9416520  29.7569090  40.2909250   8.4397490  30.3974110
  40.3144270   7.1651720  29.5808450  51.8841960   6.1121710  33.4598440
  51.1794130   6.5003420  32.9413550  52.1499880   6.8072000  34.0619370
  38.0667130   2.5815080  34.0232510  38.0685570   3.0987470  33.2178410
  37.2371440   2.1045260  34.0002440  44.4538220  12.6934390  25.5222410
  43.8355490  13.1583840  24.9585130  44.9661470  13.3861870  25.9391920
  39.3169980  12.2210260  32.2006010  38.9839360  12.8479180  32.8427080
  39.4936660  12.7472140  31.4207680  47.8303890   6.0355340  29.6682350
  47.1259460   6.3240230  30.2485460  48.1916050   6.8455450  29.3081910
  37.7482460   4.2925040  32.0302960  38.0899270   5.1367090  31.7356830
  36.8098270   4.4408780  32.1468300  38.5289080  14.1891060  34.0155190
  39.1463080  14.8642140  33.7339640  37.6682200  14.5979040  33.9242690
  33.8221420  13.3790920  22.8962040  33.4449400  13.8678020  22.1646940
  34.0794490  14.0516200  23.5268570  49.4466670  15.6530470  31.9309830
  48.7630190  16.3229580  31.9226500  49.9860960  15.8511120  31.1654690
  50.8990810   5.4810130  30.0591560  49.9515720   5.5149110  30.1906990
  51.2240800   6.2949080  30.4440920  46.9825410  17.4974600  30.6455010
  46.9952570  17.0936890  29.7777270  46.4300630  18.2721890  30.5416440
  48.2770830  14.2190820  25.7345180  48.1667160  13.2765150  25.8594600
  48.2739080  14.5806460  26.6207940  46.3810850  12.4004440  31.9737620
  46.7979640  12.1864550  31.1391080  47.1050670  12.6577230  32.5446240
  43.8191110   9.8456140  25.0907670  42.8920390   9.7793520  25.3196140
  43.9715930  10.7836270  24.9762910  43.8060190   6.1173140  22.0874830
  42.8663860   6.2787100  22.1727290  44.1243450   6.8358820  21.5410820
  50.3272950  10.7991660  32.0653860  49.4991580  10.8684750  31.5903990
  50.9223430  11.3845970  31.5969690  47.8488400  11.4076440  25.5942920
  47.2300820  11.0695990  24.9469220  47.8312850  10.7636200  26.3022110
  47.2914960   7.5860980  33.0108730  46.8786140   8.4114690  33.2648720
  46.5590910   7.0006020  32.8185090  39.4247750  10.3720880  27.8727400
  39.0204750   9.6598130  27.3773300  39.5110870  10.0274120  28.7615440
  39.8929450  14.0588440  30.0366610  39.5957740  13.4533910  29.3574390
  40.8429270  14.0965750  29.9255970  38.1376370   7.1464090  31.6526440
  38.6890960   7.2559430  30.8779690  38.6519880   7.5201690  32.3681670
  47.9815060  17.6320310  33.6989710  47.5045620  18.4392500  33.5062320
  47.2976850  16.9798640  33.8515920  38.9847880  13.7970130  36.6874410
  38.0876410  14.0210100  36.9347810  39.0100750  13.9205070  35.7385810
  46.0253100  10.6463250  22.6015670  46.4646380   9.8085680  22.4553490
  46.7381520  11.2792650  22.6879810  37.8119100  10.6683450  35.2631780
  37.6726870  11.5406250  35.6319180  36.9300460  10.3256260  35.1179720
  44.1348480  15.5859320  26.5696910  44.5744390  16.3283650  26.1552300
  44.0735370  15.8285890  27.4935870  39.6099450  16.6105150  37.4716930
  39.5814880  17.0148100  36.6045360  39.4464420  15.6815510  37.3088530
  49.6070240   1.9006060  20.9156710  49.2942900   1.9932890  21.8155780
  50.3682710   2.4787090  20.8654140  36.1252380   9.2665860  25.3734050
  36.0049980   9.9927950  24.7615320  35.8153270   8.4968770  24.8961960
  51.5614270  17.3932250  38.7681100  52.0373990  17.8715140  39.4470180
  52.1821430  17.3249740  38.0426600  33.7637750  12.4381000  31.1802690
  33.8418170  12.5729770  30.2358410  34.3779430  11.7296890  31.3730810
  35.0085380  14.1381190  27.5908870  34.6013460  14.2795780  26.7362470
  35.8998390  13.8541350  27.3880080  50.9647520  14.5845100  35.9281110
  51.0910580  14.3456980  35.0098290  51.0068900  13.7529640  36.4003190
  44.8264260  18.2873100  34.4975920  45.3408930  18.1981110  35.2998350
  43.9833340  18.6332800  34.7903830  46.8018660  18.5728440  23.9259920
  46.6419800  18.2831380  24.8241750  46.6365370  17.7968570  23.3905150
  39.2807040  18.3526970  25.7031540  39.1049520  17.4362510  25.4899340
  38.4262780  18.7114260  25.9429340  46.5044790  16.0816000  22.4857920
  45.8109950  16.0793290  21.8260200  47.2467650  15.6575320  22.0552090
  46.0694720  17.7078710  26.5606410  46.5251670  16.9268090  26.8745030
  46.4087240  18.4185530  27.1047590  50.8171530   6.6377560  36.8930850
  50.2015800   7.1457230  36.3646310  50.4967950   5.7375890  36.8356790
  33.8197270  13.4795170  33.7197150  33.9828310  13.0100530  32.9016520
  34.2849720  12.9718730  34.3845990  38.5916040   2.6100930  28.7557720
  38.1484190   3.3910470  28.4242240  39.1501030   2.9330820  29.4628660
  42.8785850   5.4769450  34.3593040  42.4165220   5.6852470  35.1712980
  42.4763960   4.6628800  34.0563710  47.8790360   6.6978400  35.4889700
  47.0283950   6.3984150  35.8098770  47.7192150   6.9420410  34.5773520
  44.9740070   8.1980150  37.5888490  45.2993480   7.3643900  37.2490720
  45.7620400   8.7208670  37.7366820  40.6291940   3.1548260  30.6147320
  40.9264270   4.0611090  30.5339340  41.1777500   2.6667040  30.0006890
  38.3830260   7.7334500  26.4838970  38.1571180   7.5171670  27.3885590
  37.6022790   8.1662960  26.1384940  45.6128020   7.7397870  25.0829620
  45.0136910   8.4633670  24.8993240  46.1607630   7.6774650  24.3006070
  40.8229470   8.6320080  37.1499240  40.7273070   7.6914810  36.9999640
  41.6661450   8.8535150  36.7547310  44.2192890   6.3761410  27.1132900
  44.6122460   6.6933610  26.3001590  44.5809740   5.4973290  27.2277420
  35.9540010   5.0433750  35.3033020  35.5603400   5.8908960  35.5105800
  35.2658410   4.4060120  35.4941660  42.5285060   5.1268720  38.3729760
  41.8383380   4.9340920  39.0075850  43.2717360   5.4103360  38.9054060
  33.2557060   2.9662210  29.3363100  32.9670110   3.5365070  30.0488080
  34.0002820   2.4866660  29.6994330  33.4427290   6.9082330  20.5465820
  33.3601960   7.8513090  20.6880810  33.0910350   6.7657240  19.6678170
  44.8048030   8.9667160  31.2083680  44.0729150   9.4753970  31.5573780
  44.4072370   8.1497140  30.9072460  41.2425420   5.6421360  29.6136170
  41.2461480   5.2011310  28.7640710  42.1376540   5.9638690  29.7207990
  37.0927800   5.5247850  28.5730380  36.7527850   6.0023080  29.3297430
  36.3305120   5.0712970  28.2131480  41.3045570   6.6433440  22.6042930
  41.4258390   6.6019920  23.5528750  40.9194080   7.5057590  22.4489660
  45.2673940   4.4200840  30.6206620  45.2846680   4.8709490  31.4648470
  45.0189520   3.5206480  30.8340060  40.3167070   8.9534580  22.0026230
  39.7483970   8.5052830  21.3762140  41.0256070   9.3127360  21.4691380
  35.3936250  12.8546600  35.8792960  35.0091040  12.2140270  36.4775920
  35.7048440  13.5582720  36.4487690  41.5433390   9.7023140  31.3601580
  41.9103520   9.2281710  32.1062920  41.3538450  10.5764710  31.7009920
  34.4073880   4.4466830  27.4895050  34.1220800   4.0822500  28.3273670
  34.3452740   3.7147290  26.8758190  39.3332760   8.7431780  33.6785790
  39.0289830   9.6223760  33.9036150  40.2879220   8.8031570  33.7143230
  37.8614550  12.9492770  24.2752640  37.0876810  12.4090390  24.1151360
  38.5909180  12.4299380  23.9370400  48.6202530  11.9458130  30.0679030
  49.3401650  12.4413420  29.6775140  48.4184350  11.2676020  29.4232900
  44.0812470   3.3396090  24.2108420  43.2677080   2.8409260  24.1353730
  43.8874420   4.1794340  23.7944770  44.0021330  12.0167190  35.9548030
  43.9358640  11.0962860  35.7005620  43.3726470  12.1142630  36.6692670
  46.7960860   7.7115740  22.5070580  47.6840480   8.0232970  22.3321920
  46.7665950   6.8387990  22.1151160  37.9051950  12.6173150  27.9131450
  38.4230620  11.8141410  27.8588340  37.4535970  12.5552290  28.7548280
  42.7921450  13.8839430  23.1858750  43.1337150  14.6281660  22.6902070
  41.9634160  14.1970550  23.5483580  35.3896490   9.5834520  34.8257150
  35.0311430  10.2488370  35.4130490  35.0951050   8.7518070  35.1969770
  38.5909610  10.0418760  37.7096700  38.2909750  10.1875940  36.8124520
  39.3620850   9.4824050  37.6170090  43.9338060  14.8387760  35.7051830
  43.9482600  13.9068720  35.4870740  43.2263160  14.9247520  36.3441600
  49.0675130   9.0227580  21.9750440  48.9838850   9.4541800  21.1246880
  49.7869320   9.4825930  22.4077260  50.1449270  11.4795100  35.0520410
  49.4197460  12.0723880  34.8549800  50.6724730  11.4718640  34.2533780
  50.0962380  15.8769840  24.7032570  49.4538540  15.2225460  24.9776290
  49.7093040  16.2824930  23.9273240  45.6748860  13.2055270  28.5504260
  46.0272680  12.6083400  27.8905630  44.7911190  12.8799500  28.7212510
  41.7612140  13.9652960  25.9574670  42.4483270  14.5122170  26.3382260
  40.9744560  14.5093690  25.9924280  33.9004540   9.5825780  21.4491750
  34.7699390   9.8650580  21.7327670  33.4094860  10.3961650  21.3340560
  41.0639350  10.9698990  25.5700030  41.5202130  11.7804240  25.7960220
  40.7127560  10.6522130  26.4018520  43.3671960  16.4805330  32.7992330
  44.0114180  16.6864710  33.4765750  43.7301400  15.7193730  32.3463180
  44.6404040  14.4837680  31.5169780  45.2826270  13.7830840  31.6301950
  45.1653390  15.2636120  31.3366670  48.4859760  14.7686300  21.2408920
  48.2597340  14.0516740  21.8333560  48.0955960  14.5198740  20.4030670
  46.4141660  15.2832580  34.7205840  46.7497900  15.8699270  35.3983760
  45.4942000  15.1525290  34.9503630  34.2675790  18.7953160  22.0153380
  34.6273430  19.3942500  21.3610650  34.1268130  19.3413050  22.7888410
  33.9645060   3.0727760  35.5029250  33.2503580   3.2724680  36.1081860
  34.3840100   2.2967330  35.8744050  48.0676010  12.6858240  22.9023080
  47.7797710  13.1470930  23.6900960  48.8628180  12.2256010  23.1707300
  34.2517650  17.0608020  36.4895780  34.3608770  16.1202760  36.3491170
  33.5998210  17.3262770  35.8409510  42.2430240  15.3323910  37.8893900
  41.9227110  14.6133150  38.4339590  41.5688600  16.0078980  37.9629960
  40.2844410  16.1784360  22.8327050  40.2754510  16.9114050  22.2171560
  39.3642770  15.9315940  22.9254010  35.8851050  11.3999250  23.5773810
  35.2779000  12.1398150  23.5869110  36.3600400  11.4898610  22.7512010
  45.4583840   5.5650070  33.2530700  45.8264660   4.7445280  33.5810270
  44.5982040   5.6251960  33.6686350  48.8245870   4.5207010  24.0618260
  48.1959030   4.6252680  23.3476490  48.3297790   4.7403790  24.8512140
  43.2704010  16.2412600  21.4952240  43.3715990  16.0376590  20.5654220
  42.3705750  15.9870880  21.7000020  40.7929900   6.7992960  25.4776140
  40.0846050   7.2679300  25.9189750  41.0774380   6.1414970  26.1121330
  42.4185830   8.2189660  33.4768670  42.9171080   8.6935480  34.1420520
  42.5608780   7.2953180  33.6838700  44.8245330   3.5243620  26.9171930
  44.7013110   3.5429750  25.9681440  45.7729890   3.5722560  27.0370330
  41.9122120  18.7598920  26.1899910  42.1663620  18.7220310  25.2679280
  40.9634600  18.6332250  26.1828160  38.9964920   5.1078040  22.8526850
  39.8455450   5.5448190  22.7867040  38.6296190   5.4198300  23.6798910
  49.6252690   4.4357620  34.3197060  49.1226290   5.1763020  34.6590870
  50.4409350   4.8241620  34.0033850  47.9174700   9.6790800  27.7658420
  46.9764840   9.6941030  27.9406110  48.2318770   8.8926760  28.2118720
  37.8956340  11.3610400  21.3262380  38.6619610  11.2491760  21.8887810
  37.9731030  10.6648370  20.6739150  36.5903100   8.7935470  22.0095270
  36.6706690   7.8462980  22.1212670  37.4822850   9.1242350  22.1155930
  49.9200280  16.8499650  29.4412680  50.0447700  17.6730820  29.9136490
  50.7865840  16.6390380  29.0936830  37.3917810  18.9430860  29.1129810
  38.1280290  18.3946320  29.3838380  37.7758730  19.8086870  28.9735800
  34.2763290  15.0104430  24.9871320  33.3503070  15.2525570  24.9776730
  34.7419720  15.8378690  24.8656070  36.3976090  18.1276930  38.3015390
  37.1988820  18.4488980  38.7150790  35.8827910  17.7672510  39.0235300
  40.5020120  18.1161170  20.9355380  41.2948730  18.4050000  20.4837170
  39.9824470  17.6853340  20.2567860  45.2340720  14.2356800  38.2490800
  44.6278880  14.2588400  37.5086550  44.9294830  13.5039840  38.7858050
  46.6641090  17.9637090  36.8600210  47.6162840  17.8795110  36.8100450
  46.5169310  18.6278800  37.5334000  49.5550290  17.3431300  22.3592120
  49.2691800  16.9296440  21.5446300  49.3569840  18.2719010  22.2392640
  34.1173900  10.6150390  37.2451440  34.6212920  10.0357670  37.8167670
  33.3781320  10.8990620  37.7827810  41.0197520  13.3364580  20.7997730
  40.9148160  12.7216930  21.5259110  40.8521740  12.8130470  20.0160740
  41.1711840  12.0221380  36.7786960  40.4057510  12.5906380  36.6941630
  41.3527800  11.7297590  35.8855190  44.2600250  12.3984610  21.4039720
  43.7110350  12.8453910  22.0482460  44.8819510  11.8933860  21.9277390
  48.3135190  13.7526710  37.3361980  49.0544660  14.0902470  36.8329440
  47.5507870  13.9218770  36.7831750  36.1496980   8.7579980  38.1401510
  36.1902320   8.4593850  39.0486740  37.0042480   9.1587590  37.9809030
  39.9275370  11.3575530  23.3005020  40.3491790  11.1915400  24.1436410
  40.0526210  10.5475760  22.8060160  38.0902790   7.3372080  36.1076000
  37.5599250   6.8463030  35.4799340  38.7590860   7.7656280  35.5733930
  42.4403010  10.3813140  20.5482120  42.9608670   9.6662160  20.1823270
  43.0871410  11.0199010  20.8482630  46.9880850  11.8041540  35.8717190
  47.4021870  11.9586620  36.7207610  46.0531850  11.9296760  36.0342970
  47.4603020   9.1437700  37.8756340  48.0423790   8.3890020  37.7876820
  47.6364790   9.6745140  37.0987820  38.5775090   4.3034450  36.1873290
  38.4831960   3.6855200  35.4624160  37.9972480   5.0300740  35.9603200
  41.3436530   2.8607690  33.2200680  40.8953830   2.8831950  32.3746230
  40.7101730   2.4626710  33.8170980  41.7496080  11.7562020  33.8413120
  42.1684190  12.5994750  33.6689360  40.8304710  11.8934060  33.6119900
  44.0859980   9.4878200  35.2250960  44.2056190   8.8919340  35.9645800
  44.9453980   9.5247890  34.8052260  46.4247880  10.0415390  33.8013470
  45.8983100  10.5658010  33.1978610  46.7679220  10.6742780  34.4323200
  38.8234270   7.4308760  20.2463180  38.6223330   6.5676120  20.6076520
  38.6526320   7.3442120  19.3084780  39.6003500  18.0615030  34.9570850
  39.0624590  18.7861090  34.6379550  39.8537460  17.5845370  34.1668190
  40.8528750   6.0299550  36.4826780  41.4428440   5.7215400  37.1704600
  40.0348990   5.5579300  36.6386680  45.6722180   5.6465360  36.7159800
  44.9837700   4.9846900  36.6509790  46.3928200   5.2003630  37.1608260
  37.6217070   4.5309380  20.2341060  37.9242970   4.5376810  19.3260210
  38.3611660   4.1807240  20.7308720  40.8402000   3.4744000  21.2197260
  40.4924000   2.7967990  20.6399710  41.0414770   3.0133510  22.0340650
  43.0051040  18.4624750  22.8383860  43.9001830  18.8009720  22.8602620
  43.0368670  17.7404160  22.2108140  36.6447200  13.8351800  21.0670860
  37.0822070  14.3781470  21.7228440  37.1294930  13.0098750  21.0767200
  33.8593000  16.6240830  28.5191120  34.1896010  15.7561890  28.2869760
  34.2884000  16.8299350  29.3496080  38.4554920  14.9549840  26.1793090
  38.1550460  14.8314810  27.0797000  38.3492410  14.0958430  25.7708820
  34.3483210  17.4911420  31.2572750  33.9114200  17.6712220  32.0896900
  34.9160890  18.2486040  31.1154470  49.9845390  16.9928420  35.5450060
  49.3847380  17.0520980  34.8013980  50.1139290  16.0533400  35.6746910
  51.2246840  14.7346240  20.8819770  50.3939800  14.8022890  21.3527000
  51.4018670  15.6250360  20.5786630  50.6803300  11.4793720  23.3853970
  51.4422210  12.0490370  23.4913660  50.6957670  10.9120920  24.1562280
  34.1807640  10.0031650  27.6161630  33.5256480   9.7343290  26.9721330
  35.0185590   9.8936130  27.1663610  51.6863270  12.3343820  28.2295900
  52.0572100  11.5511140  27.8231870  52.3265200  13.0232920  28.0513200
  48.6697030  13.7180400  33.6426220  47.8556870  14.1477560  33.9052010
  49.0771230  14.3298810  33.0295270  50.7322470  11.7728090  20.5426490
  51.0071310  12.6806970  20.4145710  50.5433210  11.7090620  21.4788480
  47.1298080   4.7972940  21.8380120  47.5482960   4.6103920  20.9976780
  46.8234140   3.9451990  22.1483050  50.6287810   9.7097080  25.5355920
  50.2531410   8.9425010  25.1037210  49.8990930  10.0919780  26.0230850
  35.2183570  10.3884220  32.1564970  35.5856610  10.3011620  33.0360990
  34.6494390   9.6250770  32.0571830  50.0187430   8.8568600  35.1695440
  49.7873520   8.6281350  34.2693390  50.2791980   9.7768150  35.1240330
  34.7699570   7.2993310  36.0623390  33.8755620   7.2660070  36.4017100
  35.3097120   7.4980100  36.8274640  48.4575500   4.0825030  37.9475140
  49.3345680   4.0908430  38.3309140  48.4696340   3.3455870  37.3367490
  33.3945720   7.2130580  23.5586960  32.4909800   7.4760780  23.3838620
  33.8786340   7.4841750  22.7786920  49.9038770   7.9354570  28.8363160
  50.4276250   7.4417220  28.2053330  50.4898190   8.0704930  29.5810730
  50.0828490   8.0194440  32.3582710  49.1331200   7.9857980  32.4727700
  50.2641500   8.9294550  32.1232480  35.9372930   6.2696120  21.4681340
  36.6464630   5.8479340  20.9828620  35.2212870   6.3371350  20.8364690
  35.5847090   2.3235450  20.5083990  36.3075220   2.8644390  20.8265210
  35.8571610   2.0498870  19.6325530  49.3938740   7.1927920  24.7755570
  49.8897860   6.9598790  25.5604450  49.1954810   6.3539760  24.3593210
  50.8225900   5.8288870  27.3093250  50.7125180   5.6744910  28.2475520
  51.5833490   5.3009810  27.0668660  49.1691620   1.7683000  33.7676250
  49.8063840   2.3817140  34.1335440  49.3166510   1.8043660  32.8225480
  51.7116170   3.6596790  20.5499390  52.6365480   3.5277970  20.3417680
  51.6891960   3.7389610  21.5035840  51.7854660   4.4307450  23.1756100
  50.9906160   4.3652570  23.7049010  51.9897940   5.3658090  23.1641450
  48.7273080  18.4699000  27.1694490  49.3232150  18.1483570  26.4928910
  48.9851230  17.9970820  27.9607760  36.6335650  14.9016910  37.3185120
  36.5905280  14.5309820  38.1999580  36.7646660  15.8394480  37.4586940
  40.3341680  16.4576500  32.9194840  40.0933040  16.7251060  32.0325360
  41.2744320  16.6282230  32.9745700  42.5396100   2.9209190  36.6751350
  42.4784990   3.5131020  37.4246760  43.4796480   2.8135150  36.5301610
  45.1770660   2.5779250  36.3143640  45.7911070   2.8958540  35.6524720
  45.7220220   2.0927840  36.9339500  51.5945840  18.4770880  33.7205480
  51.1004120  18.8739750  33.0032610  50.9859130  17.8520090  34.1142760
  36.4723680  17.8479160  34.4382900  35.8784000  17.7163860  35.1772940
  36.4647520  17.0117300  33.9725000  46.8250680   3.3482260  34.0254650
  46.4964040   2.5334020  33.6456380  47.7732980   3.3052070  33.9020340
  49.2785290  19.1194300  30.9992220  48.8188260  19.8710110  30.6250240
  48.6497750  18.4000770  30.9407020  36.1035910  15.2137540  33.3890940
  35.3769970  14.5942830  33.3216890  36.1645060  15.6078150  32.5189020
  39.7081010  17.4282540  30.1740350  40.2246030  16.8169900  29.6488610
  40.3578390  17.9311320  30.6651360  42.4476510  18.3191030  31.0009330
  42.7354320  18.0645330  30.1242340  42.9599730  17.7668390  31.5914900
  48.2174590   2.7604330  29.6254930  48.6582680   2.7049430  28.7776530
  47.9482180   3.6762340  29.6965110  34.3865910  18.5311930  26.5987700
  34.2187950  17.8982610  27.2969590  33.5200420  18.7371330  26.2481890
  35.0093930   2.3628710  24.1019560  35.7673290   2.4757590  23.5283590
  34.5471100   3.1997910  24.0562990  41.5507740   4.4767980  27.0921870
  40.7382250   4.1024870  26.7517750  42.0549380   3.7213060  27.3943060
  35.9928610  17.2245160  24.0437840  35.4676230  17.6053190  23.3399800
  35.9173190  17.8495930  24.7647550  37.3819080   2.8892760  22.6421530
  37.9111840   2.1022560  22.5129480  38.0147400   3.5683950  22.8757060
  39.5756920   2.6267900  25.6966920  38.9459660   1.9255210  25.8637050
  39.0362060   3.3872030  25.4800080  50.7493930  18.7832700  25.3651780
  50.9246120  18.0970440  24.7212700  50.0515500  19.3079750  24.9728450
  38.5921580  19.1727540  22.9187090  39.3240400  18.8886820  22.3710980
  38.8515250  18.9340820  23.8086470  37.7536370  15.2892270  22.9233420
  37.1245250  15.7577370  23.4719250  37.8684200  14.4441490  23.3579610
  49.0826430  18.4676990  38.1918570  49.8751750  17.9726220  37.9844530
  49.3759580  19.1467130  38.7994180  45.2086090   9.3397930   9.0734620
  45.1280140   8.4252540   8.8026330  44.7950510   9.8365000   8.3674330
  43.3404130  11.1176950  10.9543890  42.5646230  10.6377390  11.2442460
  43.9917060  10.4382600  10.7800050  37.3569960  11.4296760  11.8319650
  36.5254840  11.1745470  12.2316160  37.9650940  11.5007530  12.5677570
  47.3611560  15.5237140   9.7343020  46.8993090  14.7524380  10.0630190
  48.1737110  15.5503210  10.2395470  37.3371220  15.4636850  12.0277670
  37.6399260  14.5734590  11.8487890  38.0814810  16.0207070  11.7999920
  35.7661910   6.3898650   5.6162040  34.8778610   6.7314620   5.5141920
  36.0503100   6.1898970   4.7242870  33.7294920   8.9904300  11.5001740
  34.3011030   8.2226500  11.5005380  33.7296460   9.2893060  10.5908350
  43.5874870  17.8095150   9.3547010  42.9686310  18.2652650   8.7841450
  44.4426650  17.9646610   8.9536710  42.7813120  13.7934140  10.9614050
  42.7121400  12.8524080  10.8003180  43.5432980  13.8835550  11.5336620
  34.9719790   4.3988660  13.2870670  34.7922630   3.5014410  13.5673430
  34.5699870   4.9460530  13.9617620  43.8118290   6.6004520  11.1882980
  44.1883110   5.7276400  11.0756650  43.7137800   6.9363220  10.2973420
  37.9423300   4.9730150   6.6500420  38.0490050   5.8733880   6.9569180
  37.0315660   4.9248120   6.3595070  47.5942410   4.0954960   8.1211320
  48.4152030   3.6051530   8.1636800  47.6276490   4.6852620   8.8743160
  35.5906460   6.8949160  11.8953010  36.2716570   7.1587530  12.5140410
  35.2754510   6.0550030  12.2291020  39.7831030   7.9416520  10.9825600
  40.2909250   8.4397490  11.6230620  40.3144270   7.1651720  10.8064960
  51.8841960   6.1121710  14.6854950  51.1794130   6.5003420  14.1670060
  52.1499880   6.8072000  15.2875880  38.0667130   2.5815080  15.2489020
  38.0685570   3.0987470  14.4434920  37.2371440   2.1045260  15.2258950
  44.4538220  12.6934390   6.7478920  43.8355490  13.1583840   6.1841640
  44.9661470  13.3861870   7.1648430  39.3169980  12.2210260  13.4262520
  38.9839360  12.8479180  14.0683590  39.4936660  12.7472140  12.6464190
  47.8303890   6.0355340  10.8938860  47.1259460   6.3240230  11.4741970
  48.1916050   6.8455450  10.5338420  37.7482460   4.2925040  13.2559470
  38.0899270   5.1367090  12.9613340  36.8098270   4.4408780  13.3724810
  38.5289080  14.1891060  15.2411700  39.1463080  14.8642140  14.9596150
  37.6682200  14.5979040  15.1499200  33.8221420  13.3790920   4.1218550
  33.4449400  13.8678020   3.3903450  34.0794490  14.0516200   4.7525080
  49.4466670  15.6530470  13.1566340  48.7630190  16.3229580  13.1483010
  49.9860960  15.8511120  12.3911200  50.8990810   5.4810130  11.2848070
  49.9515720   5.5149110  11.4163500  51.2240800   6.2949080  11.6697430
  46.9825410  17.4974600  11.8711520  46.9952570  17.0936890  11.0033780
  46.4300630  18.2721890  11.7672950  48.2770830  14.2190820   6.9601690
  48.1667160  13.2765150   7.0851110  48.2739080  14.5806460   7.8464450
  46.3810850  12.4004440  13.1994130  46.7979640  12.1864550  12.3647590
  47.1050670  12.6577230  13.7702750  43.8191110   9.8456140   6.3164180
  42.8920390   9.7793520   6.5452650  43.9715930  10.7836270   6.2019420
  43.8060190   6.1173140   3.3131340  42.8663860   6.2787100   3.3983800
  44.1243450   6.8358820   2.7667330  50.3272950  10.7991660  13.2910370
  49.4991580  10.8684750  12.8160500  50.9223430  11.3845970  12.8226200
  47.8488400  11.4076440   6.8199430  47.2300820  11.0695990   6.1725730
  47.8312850  10.7636200   7.5278620  47.2914960   7.5860980  14.2365240
  46.8786140   8.4114690  14.4905230  46.5590910   7.0006020  14.0441600
  39.4247750  10.3720880   9.0983910  39.0204750   9.6598130   8.6029810
  39.5110870  10.0274120   9.9871950  39.8929450  14.0588440  11.2623120
  39.5957740  13.4533910  10.5830900  40.8429270  14.0965750  11.1512480
  38.1376370   7.1464090  12.8782950  38.6890960   7.2559430  12.1036200
  38.6519880   7.5201690  13.5938180  47.9815060  17.6320310  14.9246220
  47.5045620  18.4392500  14.7318830  47.2976850  16.9798640  15.0772430
  38.9847880  13.7970130  17.9130920  38.0876410  14.0210100  18.1604320
  39.0100750  13.9205070  16.9642320  46.0253100  10.6463250   3.8272180
  46.4646380   9.8085680   3.6810000  46.7381520  11.2792650   3.9136320
  37.8119100  10.6683450  16.4888290  37.6726870  11.5406250  16.8575690
  36.9300460  10.3256260  16.3436230  44.1348480  15.5859320   7.7953420
  44.5744390  16.3283650   7.3808810  44.0735370  15.8285890   8.7192380
  39.6099450  16.6105150  18.6973440  39.5814880  17.0148100  17.8301870
  39.4464420  15.6815510  18.5345040  49.6070240   1.9006060   2.1413220
  49.2942900   1.9932890   3.0412290  50.3682710   2.4787090   2.0910650
  36.1252380   9.2665860   6.5990560  36.0049980   9.9927950   5.9871830
  35.8153270   8.4968770   6.1218470  51.5614270  17.3932250  19.9937610
  52.0373990  17.8715140  20.6726690  52.1821430  17.3249740  19.2683110
  33.7637750  12.4381000  12.4059200  33.8418170  12.5729770  11.4614920
  34.3779430  11.7296890  12.5987320  35.0085380  14.1381190   8.8165380
  34.6013460  14.2795780   7.9618980  35.8998390  13.8541350   8.6136590
  50.9647520  14.5845100  17.1537620  51.0910580  14.3456980  16.2354800
  51.0068900  13.7529640  17.6259700  44.8264260  18.2873100  15.7232430
  45.3408930  18.1981110  16.5254860  43.9833340  18.6332800  16.0160340
  46.8018660  18.5728440   5.1516430  46.6419800  18.2831380   6.0498260
  46.6365370  17.7968570   4.6161660  39.2807040  18.3526970   6.9288050
  39.1049520  17.4362510   6.7155850  38.4262780  18.7114260   7.1685850
  46.5044790  16.0816000   3.7114430  45.8109950  16.0793290   3.0516710
  47.2467650  15.6575320   3.2808600  46.0694720  17.7078710   7.7862920
  46.5251670  16.9268090   8.1001540  46.4087240  18.4185530   8.3304100
  50.8171530   6.6377560  18.1187360  50.2015800   7.1457230  17.5902820
  50.4967950   5.7375890  18.0613300  33.8197270  13.4795170  14.9453660
  33.9828310  13.0100530  14.1273030  34.2849720  12.9718730  15.6102500
  38.5916040   2.6100930   9.9814230  38.1484190   3.3910470   9.6498750
  39.1501030   2.9330820  10.6885170  42.8785850   5.4769450  15.5849550
  42.4165220   5.6852470  16.3969490  42.4763960   4.6628800  15.2820220
  47.8790360   6.6978400  16.7146210  47.0283950   6.3984150  17.0355280
  47.7192150   6.9420410  15.8030030  44.9740070   8.1980150  18.8145000
  45.2993480   7.3643900  18.4747230  45.7620400   8.7208670  18.9623330
  40.6291940   3.1548260  11.8403830  40.9264270   4.0611090  11.7595850
  41.1777500   2.6667040  11.2263400  38.3830260   7.7334500   7.7095480
  38.1571180   7.5171670   8.6142100  37.6022790   8.1662960   7.3641450
  45.6128020   7.7397870   6.3086130  45.0136910   8.4633670   6.1249750
  46.1607630   7.6774650   5.5262580  40.8229470   8.6320080  18.3755750
  40.7273070   7.6914810  18.2256150  41.6661450   8.8535150  17.9803820
  44.2192890   6.3761410   8.3389410  44.6122460   6.6933610   7.5258100
  44.5809740   5.4973290   8.4533930  35.9540010   5.0433750  16.5289530
  35.5603400   5.8908960  16.7362310  35.2658410   4.4060120  16.7198170
  42.5285060   5.1268720  19.5986270  41.8383380   4.9340920  20.2332360
  43.2717360   5.4103360  20.1310570  33.2557060   2.9662210  10.5619610
  32.9670110   3.5365070  11.2744590  34.0002820   2.4866660  10.9250840
  44.8048030   8.9667160  12.4340190  44.0729150   9.4753970  12.7830290
  44.4072370   8.1497140  12.1328970  41.2425420   5.6421360  10.8392680
  41.2461480   5.2011310   9.9897220  42.1376540   5.9638690  10.9464500
  37.0927800   5.5247850   9.7986890  36.7527850   6.0023080  10.5553940
  36.3305120   5.0712970   9.4387990  41.3045570   6.6433440   3.8299440
  41.4258390   6.6019920   4.7785260  40.9194080   7.5057590   3.6746170
  45.2673940   4.4200840  11.8463130  45.2846680   4.8709490  12.6904980
  45.0189520   3.5206480  12.0596570  40.3167070   8.9534580   3.2282740
  39.7483970   8.5052830   2.6018650  41.0256070   9.3127360   2.6947890
  35.3936250  12.8546600  17.1049470  35.0091040  12.2140270  17.7032430
  35.7048440  13.5582720  17.6744200  41.5433390   9.7023140  12.5858090
  41.9103520   9.2281710  13.3319430  41.3538450  10.5764710  12.9266430
  34.4073880   4.4466830   8.7151560  34.1220800   4.0822500   9.5530180
  34.3452740   3.7147290   8.1014700  39.3332760   8.7431780  14.9042300
  39.0289830   9.6223760  15.1292660  40.2879220   8.8031570  14.9399740
  37.8614550  12.9492770   5.5009150  37.0876810  12.4090390   5.3407870
  38.5909180  12.4299380   5.1626910  48.6202530  11.9458130  11.2935540
  49.3401650  12.4413420  10.9031650  48.4184350  11.2676020  10.6489410
  44.0812470   3.3396090   5.4364930  43.2677080   2.8409260   5.3610240
  43.8874420   4.1794340   5.0201280  44.0021330  12.0167190  17.1804540
  43.9358640  11.0962860  16.9262130  43.3726470  12.1142630  17.8949180
  46.7960860   7.7115740   3.7327090  47.6840480   8.0232970   3.5578430
  46.7665950   6.8387990   3.3407670  37.9051950  12.6173150   9.1387960
  38.4230620  11.8141410   9.0844850  37.4535970  12.5552290   9.9804790
  42.7921450  13.8839430   4.4115260  43.1337150  14.6281660   3.9158580
  41.9634160  14.1970550   4.7740090  35.3896490   9.5834520  16.0513660
  35.0311430  10.2488370  16.6387000  35.0951050   8.7518070  16.4226280
  38.5909610  10.0418760  18.9353210  38.2909750  10.1875940  18.0381030
  39.3620850   9.4824050  18.8426600  43.9338060  14.8387760  16.9308340
  43.9482600  13.9068720  16.7127250  43.2263160  14.9247520  17.5698110
  49.0675130   9.0227580   3.2006950  48.9838850   9.4541800   2.3503390
  49.7869320   9.4825930   3.6333770  50.1449270  11.4795100  16.2776920
  49.4197460  12.0723880  16.0806310  50.6724730  11.4718640  15.4790290
  50.0962380  15.8769840   5.9289080  49.4538540  15.2225460   6.2032800
  49.7093040  16.2824930   5.1529750  45.6748860  13.2055270   9.7760770
  46.0272680  12.6083400   9.1162140  44.7911190  12.8799500   9.9469020
  41.7612140  13.9652960   7.1831180  42.4483270  14.5122170   7.5638770
  40.9744560  14.5093690   7.2180790  33.9004540   9.5825780   2.6748260
  34.7699390   9.8650580   2.9584180  33.4094860  10.3961650   2.5597070
  41.0639350  10.9698990   6.7956540  41.5202130  11.7804240   7.0216730
  40.7127560  10.6522130   7.6275030  43.3671960  16.4805330  14.0248840
  44.0114180  16.6864710  14.7022260  43.7301400  15.7193730  13.5719690
  44.6404040  14.4837680  12.7426290  45.2826270  13.7830840  12.8558460
  45.1653390  15.2636120  12.5623180  48.4859760  14.7686300   2.4665430
  48.2597340  14.0516740   3.0590070  48.0955960  14.5198740   1.6287180
  46.4141660  15.2832580  15.9462350  46.7497900  15.8699270  16.6240270
  45.4942000  15.1525290  16.1760140  34.2675790  18.7953160   3.2409890
  34.6273430  19.3942500   2.5867160  34.1268130  19.3413050   4.0144920
  33.9645060   3.0727760  16.7285760  33.2503580   3.2724680  17.3338370
  34.3840100   2.2967330  17.1000560  48.0676010  12.6858240   4.1279590
  47.7797710  13.1470930   4.9157470  48.8628180  12.2256010   4.3963810
  34.2517650  17.0608020  17.7152290  34.3608770  16.1202760  17.5747680
  33.5998210  17.3262770  17.0666020  42.2430240  15.3323910  19.1150410
  41.9227110  14.6133150  19.6596100  41.5688600  16.0078980  19.1886470
  40.2844410  16.1784360   4.0583560  40.2754510  16.9114050   3.4428070
  39.3642770  15.9315940   4.1510520  35.8851050  11.3999250   4.8030320
  35.2779000  12.1398150   4.8125620  36.3600400  11.4898610   3.9768520
  45.4583840   5.5650070  14.4787210  45.8264660   4.7445280  14.8066780
  44.5982040   5.6251960  14.8942860  48.8245870   4.5207010   5.2874770
  48.1959030   4.6252680   4.5733000  48.3297790   4.7403790   6.0768650
  43.2704010  16.2412600   2.7208750  43.3715990  16.0376590   1.7910730
  42.3705750  15.9870880   2.9256530  40.7929900   6.7992960   6.7032650
  40.0846050   7.2679300   7.1446260  41.0774380   6.1414970   7.3377840
  42.4185830   8.2189660  14.7025180  42.9171080   8.6935480  15.3677030
  42.5608780   7.2953180  14.9095210  44.8245330   3.5243620   8.1428440
  44.7013110   3.5429750   7.1937950  45.7729890   3.5722560   8.2626840
  41.9122120  18.7598920   7.4156420  42.1663620  18.7220310   6.4935790
  40.9634600  18.6332250   7.4084670  38.9964920   5.1078040   4.0783360
  39.8455450   5.5448190   4.0123550  38.6296190   5.4198300   4.9055420
  49.6252690   4.4357620  15.5453570  49.1226290   5.1763020  15.8847380
  50.4409350   4.8241620  15.2290360  47.9174700   9.6790800   8.9914930
  46.9764840   9.6941030   9.1662620  48.2318770   8.8926760   9.4375230
  37.8956340  11.3610400   2.5518890  38.6619610  11.2491760   3.1144320
  37.9731030  10.6648370   1.8995660  36.5903100   8.7935470   3.2351780
  36.6706690   7.8462980   3.3469180  37.4822850   9.1242350   3.3412440
  49.9200280  16.8499650  10.6669190  50.0447700  17.6730820  11.1393000
  50.7865840  16.6390380  10.3193340  37.3917810  18.9430860  10.3386320
  38.1280290  18.3946320  10.6094890  37.7758730  19.8086870  10.1992310
  34.2763290  15.0104430   6.2127830  33.3503070  15.2525570   6.2033240
  34.7419720  15.8378690   6.0912580  36.3976090  18.1276930  19.5271900
  37.1988820  18.4488980  19.9407300  35.8827910  17.7672510  20.2491810
  45.2340720  14.2356800  19.4747310  44.6278880  14.2588400  18.7343060
  44.9294830  13.5039840  20.0114560  46.6641090  17.9637090  18.0856720
  47.6162840  17.8795110  18.0356960  46.5169310  18.6278800  18.7590510
  49.5550290  17.3431300   3.5848630  49.2691800  16.9296440   2.7702810
  49.3569840  18.2719010   3.4649150  34.1173900  10.6150390  18.4707950
  34.6212920  10.0357670  19.0424180  33.3781320  10.8990620  19.0084320
  41.1711840  12.0221380  18.0043470  40.4057510  12.5906380  17.9198140
  41.3527800  11.7297590  17.1111700  44.2600250  12.3984610   2.6296230
  43.7110350  12.8453910   3.2738970  44.8819510  11.8933860   3.1533900
  48.3135190  13.7526710  18.5618490  49.0544660  14.0902470  18.0585950
  47.5507870  13.9218770  18.0088260  36.1496980   8.7579980  19.3658020
  36.1902320   8.4593850  20.2743250  37.0042480   9.1587590  19.2065540
  39.9275370  11.3575530   4.5261530  40.3491790  11.1915400   5.3692920
  40.0526210  10.5475760   4.0316670  38.0902790   7.3372080  17.3332510
  37.5599250   6.8463030  16.7055850  38.7590860   7.7656280  16.7990440
  46.9880850  11.8041540  17.0973700  47.4021870  11.9586620  17.9464120
  46.0531850  11.9296760  17.2599480  47.4603020   9.1437700  19.1012850
  48.0423790   8.3890020  19.0133330  47.6364790   9.6745140  18.3244330
  38.5775090   4.3034450  17.4129800  38.4831960   3.6855200  16.6880670
  37.9972480   5.0300740  17.1859710  41.3436530   2.8607690  14.4457190
  40.8953830   2.8831950  13.6002740  40.7101730   2.4626710  15.0427490
  41.7496080  11.7562020  15.0669630  42.1684190  12.5994750  14.8945870
  40.8304710  11.8934060  14.8376410  44.0859980   9.4878200  16.4507470
  44.2056190   8.8919340  17.1902310  44.9453980   9.5247890  16.0308770
  46.4247880  10.0415390  15.0269980  45.8983100  10.5658010  14.4235120
  46.7679220  10.6742780  15.6579710  39.6003500  18.0615030  16.1827360
  39.0624590  18.7861090  15.8636060  39.8537460  17.5845370  15.3924700
  40.8528750   6.0299550  17.7083290  41.4428440   5.7215400  18.3961110
  40.0348990   5.5579300  17.8643190  45.6722180   5.6465360  17.9416310
  44.9837700   4.9846900  17.8766300  46.3928200   5.2003630  18.3864770
  42.4565710  19.2966240  16.4414010  42.3824410  20.2001380  16.7486380
  41.5544550  18.9778140  16.4136080  40.8402000   3.4744000   2.4453770
  40.4924000   2.7967990   1.8656220  41.0414770   3.0133510   3.2597160
  43.0051040  18.4624750   4.0640370  43.9001830  18.8009720   4.0859130
  43.0368670  17.7404160   3.4364650  36.6447200  13.8351800   2.2927370
  37.0822070  14.3781470   2.9484950  37.1294930  13.0098750   2.3023710
  33.8593000  16.6240830   9.7447630  34.1896010  15.7561890   9.5126270
  34.2884000  16.8299350  10.5752590  38.4554920  14.9549840   7.4049600
  38.1550460  14.8314810   8.3053510  38.3492410  14.0958430   6.9965330
  34.3483210  17.4911420  12.4829260  33.9114200  17.6712220  13.3153410
  34.9160890  18.2486040  12.3410980  49.9845390  16.9928420  16.7706570
  49.3847380  17.0520980  16.0270490  50.1139290  16.0533400  16.9003420
  51.2246840  14.7346240   2.1076280  50.3939800  14.8022890   2.5783510
  51.4018670  15.6250360   1.8043140  50.6803300  11.4793720   4.6110480
  51.4422210  12.0490370   4.7170170  50.6957670  10.9120920   5.3818790
  34.1807640  10.0031650   8.8418140  33.5256480   9.7343290   8.1977840
  35.0185590   9.8936130   8.3920120  51.6863270  12.3343820   9.4552410
  52.0572100  11.5511140   9.0488380  52.3265200  13.0232920   9.2769710
  48.6697030  13.7180400  14.8682730  47.8556870  14.1477560  15.1308520
  49.0771230  14.3298810  14.2551780  50.7322470  11.7728090   1.7683000
  51.0071310  12.6806970   1.6402220  50.5433210  11.7090620   2.7044990
  47.1298080   4.7972940   3.0636630  47.5482960   4.6103920   2.2233290
  46.8234140   3.9451990   3.3739560  50.6287810   9.7097080   6.7612430
  50.2531410   8.9425010   6.3293720  49.8990930  10.0919780   7.2487360
  35.2183570  10.3884220  13.3821480  35.5856610  10.3011620  14.2617500
  34.6494390   9.6250770  13.2828340  50.0187430   8.8568600  16.3951950
  49.7873520   8.6281350  15.4949900  50.2791980   9.7768150  16.3496840
  34.7699570   7.2993310  17.2879900  33.8755620   7.2660070  17.6273610
  35.3097120   7.4980100  18.0531150  48.4575500   4.0825030  19.1731650
  49.3345680   4.0908430  19.5565650  48.4696340   3.3455870  18.5624000
  33.3945720   7.2130580   4.7843470  32.4909800   7.4760780   4.6095130
  33.8786340   7.4841750   4.0043430  49.9038770   7.9354570  10.0619670
  50.4276250   7.4417220   9.4309840  50.4898190   8.0704930  10.8067240
  50.0828490   8.0194440  13.5839220  49.1331200   7.9857980  13.6984210
  50.2641500   8.9294550  13.3488990  35.9372930   6.2696120   2.6937850
  36.6464630   5.8479340   2.2085130  35.2212870   6.3371350   2.0621200
  49.3938740   7.1927920   6.0012080  49.8897860   6.9598790   6.7860960
  49.1954810   6.3539760   5.5849720  50.8225900   5.8288870   8.5349760
  50.7125180   5.6744910   9.4732030  51.5833490   5.3009810   8.2925170
  49.1691620   1.7683000  14.9932760  49.8063840   2.3817140  15.3591950
  49.3166510   1.8043660  14.0481990  51.7116170   3.6596790   1.7755900
  52.6365480   3.5277970   1.5674190  51.6891960   3.7389610   2.7292350
  51.7854660   4.4307450   4.4012610  50.9906160   4.3652570   4.9305520
  51.9897940   5.3658090   4.3897960  48.7273080  18.4699000   8.3951000
  49.3232150  18.1483570   7.7185420  48.9851230  17.9970820   9.1864270
  36.6335650  14.9016910  18.5441630  36.5905280  14.5309820  19.4256090
  36.7646660  15.8394480  18.6843450  40.3341680  16.4576500  14.1451350
  40.0933040  16.7251060  13.2581870  41.2744320  16.6282230  14.2002210
  42.5396100   2.9209190  17.9007860  42.4784990   3.5131020  18.6503270
  43.4796480   2.8135150  17.7558120  45.1770660   2.5779250  17.5400150
  45.7911070   2.8958540  16.8781230  45.7220220   2.0927840  18.1596010
  51.5945840  18.4770880  14.9461990  51.1004120  18.8739750  14.2289120
  50.9859130  17.8520090  15.3399270  36.4723680  17.8479160  15.6639410
  35.8784000  17.7163860  16.4029450  36.4647520  17.0117300  15.1981510
  46.8250680   3.3482260  15.2511160  46.4964040   2.5334020  14.8712890
  47.7732980   3.3052070  15.1276850  49.2785290  19.1194300  12.2248730
  48.8188260  19.8710110  11.8506750  48.6497750  18.4000770  12.1663530
  36.1035910  15.2137540  14.6147450  35.3769970  14.5942830  14.5473400
  36.1645060  15.6078150  13.7445530  39.7081010  17.4282540  11.3996860
  40.2246030  16.8169900  10.8745120  40.3578390  17.9311320  11.8907870
  42.4476510  18.3191030  12.2265840  42.7354320  18.0645330  11.3498850
  42.9599730  17.7668390  12.8171410  48.2174590   2.7604330  10.8511440
  48.6582680   2.7049430  10.0033040  47.9482180   3.6762340  10.9221620
  34.3865910  18.5311930   7.8244210  34.2187950  17.8982610   8.5226100
  33.5200420  18.7371330   7.4738400  35.0093930   2.3628710   5.3276070
  35.7673290   2.4757590   4.7540100  34.5471100   3.1997910   5.2819500
  41.5507740   4.4767980   8.3178380  40.7382250   4.1024870   7.9774260
  42.0549380   3.7213060   8.6199570  35.9928610  17.2245160   5.2694350
  35.4676230  17.6053190   4.5656310  35.9173190  17.8495930   5.9904060
  37.3819080   2.8892760   3.8678040  37.9111840   2.1022560   3.7385990
  38.0147400   3.5683950   4.1013570  39.5756920   2.6267900   6.9223430
  38.9459660   1.9255210   7.0893560  39.0362060   3.3872030   6.7056590
  42.5148870  19.2407130  19.5934040  43.4416180  19.0051400  19.6370000
  42.4999300  20.0679130  19.1120070  50.7493930  18.7832700   6.5908290
  50.9246120  18.0970440   5.9469210  50.0515500  19.3079750   6.1984960
  38.5921580  19.1727540   4.1443600  39.3240400  18.8886820   3.5967490
  38.8515250  18.9340820   5.0342980  37.7536370  15.2892270   4.1489930
  37.1245250  15.7577370   4.6975760  37.8684200  14.4441490   4.5836120
  49.0826430  18.4676990  19.4175080  49.8751750  17.9726220  19.2101040
  49.3759580  19.1467130  20.0250690  26.4342600  84.4371890  65.3965090
  26.3536650  83.5226500  65.1256800  26.0207020  84.9338960  64.6904800
  24.5660640  86.2150910  67.2774360  23.7902740  85.7351350  67.5672930
  25.2173570  85.5356560  67.1030520  18.5826470  86.5270720  68.1550120
  17.7511350  86.2719430  68.5546630  19.1907450  86.5981490  68.8908040
  28.5868070  90.6211100  66.0573490  28.1249600  89.8498340  66.3860660
  29.3993620  90.6477170  66.5625940  18.5627730  90.5610810  68.3508140
  18.8655770  89.6708550  68.1718360  19.3071320  91.1181030  68.1230390
  16.9918420  81.4872610  61.9392510  16.1035120  81.8288580  61.8372390
  17.2759610  81.2872930  61.0473340  14.9551430  84.0878260  67.8232210
  15.5267540  83.3200460  67.8235850  14.9552970  84.3867020  66.9138820
  24.8131380  92.9069110  65.6777480  24.1942820  93.3626610  65.1071920
  25.6683160  93.0620570  65.2767180  24.0069630  88.8908100  67.2844520
  23.9377910  87.9498040  67.1233650  24.7689490  88.9809510  67.8567090
  16.1976300  79.4962620  69.6101140  16.0179140  78.5988370  69.8903900
  15.7956380  80.0434490  70.2848090  25.0374800  81.6978480  67.5113450
  25.4139620  80.8250360  67.3987120  24.9394310  82.0337180  66.6203890
  19.1679810  80.0704110  62.9730890  19.2746560  80.9707840  63.2799650
  18.2572170  80.0222080  62.6825540  28.8198920  79.1928920  64.4441790
  29.6408540  78.7025490  64.4867270  28.8533000  79.7826580  65.1973630
  16.8162970  81.9923120  68.2183480  17.4973080  82.2561490  68.8370880
  16.5011020  81.1523990  68.5521490  21.0087540  83.0390480  67.3056070
  21.5165760  83.5371450  67.9461090  21.5400780  82.2625680  67.1295430
  33.1098470  81.2095670  71.0085420  32.4050640  81.5977380  70.4900530
  33.3756390  81.9045960  71.6106350  19.2923640  77.6789040  71.5719490
  19.2942080  78.1961430  70.7665390  18.4627950  77.2019220  71.5489420
  25.6794730  87.7908350  63.0709390  25.0612000  88.2557800  62.5072110
  26.1917980  88.4835830  63.4878900  20.5426490  87.3184220  69.7492990
  20.2095870  87.9453140  70.3914060  20.7193170  87.8446100  68.9694660
  29.0560400  81.1329300  67.2169330  28.3515970  81.4214190  67.7972440
  29.4172560  81.9429410  66.8568890  18.9738970  79.3899000  69.5789940
  19.3155780  80.2341050  69.2843810  18.0354780  79.5382740  69.6955280
  19.7545590  89.2865020  71.5642170  20.3719590  89.9616100  71.2826620
  18.8938710  89.6953000  71.4729670  15.0477930  88.4764880  60.4449020
  14.6705910  88.9651980  59.7133920  15.3051000  89.1490160  61.0755550
  30.6723180  90.7504430  69.4796810  29.9886700  91.4203540  69.4713480
  31.2117470  90.9485080  68.7141670  32.1247320  80.5784090  67.6078540
  31.1772230  80.6123070  67.7393970  32.4497310  81.3923040  67.9927900
  22.6566860  76.8781270  65.9034530  22.9641840  76.3228160  65.1870030
  21.7267560  77.0125730  65.7207520  28.2081920  92.5948560  68.1941990
  28.2209080  92.1910850  67.3264250  27.6557140  93.3695850  68.0903420
  29.5027340  89.3164780  63.2832160  29.3923670  88.3739110  63.4081580
  29.4995590  89.6780420  64.1694920  27.6067360  87.4978400  69.5224600
  28.0236150  87.2838510  68.6878060  28.3307180  87.7551190  70.0933220
  25.0447620  84.9430100  62.6394650  24.1176900  84.8767480  62.8683120
  25.1972440  85.8810230  62.5249890  25.0316700  81.2147100  59.6361810
  24.0920370  81.3761060  59.7214270  25.3499960  81.9332780  59.0897800
  31.5529460  85.8965620  69.6140840  30.7248090  85.9658710  69.1390970
  32.1479940  86.4819930  69.1456670  29.0744910  86.5050400  63.1429900
  28.4557330  86.1669950  62.4956200  29.0569360  85.8610160  63.8509090
  28.5171470  82.6834940  70.5595710  28.1042650  83.5088650  70.8135700
  27.7847420  82.0979980  70.3672070  20.6504260  85.4694840  65.4214380
  20.2461260  84.7572090  64.9260280  20.7367380  85.1248080  66.3102420
  21.1185960  89.1562400  67.5853590  20.8214250  88.5507870  66.9061370
  22.0685780  89.1939710  67.4742950  19.3632880  82.2438050  69.2013420
  19.9147470  82.3533390  68.4266670  19.8776390  82.6175650  69.9168650
  29.2071570  92.7294270  71.2476690  28.7302130  93.5366460  71.0549300
  28.5233360  92.0772600  71.4002900  20.2104390  88.8944090  74.2361390
  19.3132920  89.1184060  74.4834790  20.2357260  89.0179030  73.2872790
  27.2509610  85.7437210  60.1502650  27.6902890  84.9059640  60.0040470
  27.9638030  86.3766610  60.2366790  19.0375610  85.7657410  72.8118760
  18.8983380  86.6380210  73.1806160  18.1556970  85.4230220  72.6666700
  25.3604990  90.6833280  64.1183890  25.8000900  91.4257610  63.7039280
  25.2991880  90.9259850  65.0422850  20.8355960  91.7079110  75.0203910
  20.8071390  92.1122060  74.1532340  20.6720930  90.7789470  74.8575510
  30.8326750  76.9980020  58.4643690  30.5199410  77.0906850  59.3642760
  31.5939220  77.5761050  58.4141120  17.3508890  84.3639820  62.9221030
  17.2306490  85.0901910  62.3102300  17.0409780  83.5942730  62.4448940
  14.9894260  87.5354960  68.7289670  15.0674680  87.6703730  67.7845390
  15.6035940  86.8270850  68.9217790  16.2341890  89.2355150  65.1395850
  15.8269970  89.3769740  64.2849450  17.1254900  88.9515310  64.9367060
  32.1904030  89.6819060  73.4768090  32.3167090  89.4430940  72.5585270
  32.2325410  88.8503600  73.9490170  26.0520770  93.3847060  72.0462900
  26.5665440  93.2955070  72.8485330  25.2089850  93.7306760  72.3390810
  28.0275170  93.6702400  61.4746900  27.8676310  93.3805340  62.3728730
  27.8621880  92.8942530  60.9392130  27.7301300  91.1789960  60.0344900
  27.0366460  91.1767250  59.3747180  28.4724160  90.7549280  59.6039070
  27.2951230  92.8052670  64.1093390  27.7508180  92.0242050  64.4232010
  27.6343750  93.5159490  64.6534570  32.0428040  81.7351520  74.4417830
  31.4272310  82.2431190  73.9133290  31.7224460  80.8349850  74.3843770
  15.0453780  88.5769130  71.2684130  15.2084820  88.1074490  70.4503500
  15.5106230  88.0692690  71.9332970  19.8172550  77.7074890  66.3044700
  19.3740700  78.4884430  65.9729220  20.3757540  78.0304780  67.0115640
  24.1042360  80.5743410  71.9080020  23.6421730  80.7826430  72.7199960
  23.7020470  79.7602760  71.6050690  29.1046870  81.7952360  73.0376680
  28.2540460  81.4958110  73.3585750  28.9448660  82.0394370  72.1260500
  26.1996580  83.2954110  75.1375470  26.5249990  82.4617860  74.7977700
  26.9876910  83.8182630  75.2853800  22.9331370  77.3285590  61.1850530
  22.3085550  77.3245460  61.9103840  22.8461490  76.4616550  60.7886500
  21.8548450  78.2522220  68.1634300  22.1520780  79.1585050  68.0826320
  22.4034010  77.7641000  67.5493870  19.6086770  82.8308460  64.0325950
  19.3827690  82.6145630  64.9372570  18.8279300  83.2636920  63.6871920
  26.8384530  82.8371830  62.6316600  26.2393420  83.5607630  62.4480220
  27.3864140  82.7748610  61.8493050  22.0485980  83.7294040  74.6986220
  21.9529580  82.7888770  74.5486620  22.8917960  83.9509110  74.3034290
  25.4449400  81.4735370  64.6619880  25.8378970  81.7907570  63.8488570
  25.8066250  80.5947250  64.7764400  17.1796520  80.1407710  72.8520000
  16.7859910  80.9882920  73.0592780  16.4914920  79.5034080  73.0428640
  14.4813570  78.0636170  66.8850080  14.1926620  78.6339030  67.5975060
  15.2259330  77.5840620  67.2481310  14.6683800  82.0056290  58.0952800
  14.5858470  82.9487050  58.2367790  14.3166860  81.8631200  57.2165150
  26.0304540  84.0641120  68.7570660  25.2985660  84.5727930  69.1060760
  25.6328880  83.2471100  68.4559440  22.4681930  80.7395320  67.1623150
  22.4717990  80.2985270  66.3127690  23.3633050  81.0612650  67.2694970
  18.3184310  80.6221810  66.1217360  17.9784360  81.0997040  66.8784410
  17.5561630  80.1686930  65.7618460  22.5302080  81.7407400  60.1529910
  22.6514900  81.6993880  61.1015730  22.1450590  82.6031550  59.9976640
  26.4930450  79.5174800  68.1693600  26.5103190  79.9683450  69.0135450
  26.2446030  78.6180440  68.3827040  21.5423580  84.0508540  59.5513210
  20.9740480  83.6026790  58.9249120  22.2512580  84.4101320  59.0178360
  29.9201200  76.9306980  74.0079980  30.2446970  76.1996640  74.5337960
  29.9557710  76.6120620  73.1060970  16.6192760  87.9520560  73.4279940
  16.2347550  87.3114230  74.0262900  16.9304950  88.6556680  73.9974670
  22.7689900  84.7997100  68.9088560  23.1360030  84.3255670  69.6549900
  22.5794960  85.6738670  69.2496900  15.6330390  79.5440790  65.0382030
  15.3477310  79.1796460  65.8760650  15.5709250  78.8121250  64.4245170
  20.5589270  83.8405740  71.2272770  20.2546340  84.7197720  71.4523130
  21.5135730  83.9005530  71.2630210  19.0871060  88.0466730  61.8239620
  18.3133320  87.5064350  61.6638340  19.8165690  87.5273340  61.4857380
  29.8459040  87.0432090  67.6166010  30.5658160  87.5387380  67.2262120
  29.6440860  86.3649980  66.9719880  25.3068980  78.4370050  61.7595400
  24.4933590  77.9383220  61.6840710  25.1130930  79.2768300  61.3431750
  25.2277840  87.1141150  73.5035010  25.1615150  86.1936820  73.2492600
  24.5982980  87.2116590  74.2179650  28.0217370  82.8089700  60.0557560
  28.9096990  83.1206930  59.8808900  27.9922460  81.9361950  59.6638140
  19.1308460  87.7147110  65.4618430  19.6487130  86.9115370  65.4075320
  18.6792480  87.6526250  66.3035260  24.0177960  88.9813390  60.7345730
  24.3593660  89.7255620  60.2389050  23.1890670  89.2944510  61.0970560
  16.6153000  84.6808480  72.3744130  16.2567940  85.3462330  72.9617470
  16.3207560  83.8492030  72.7456750  19.8166120  85.1392720  75.2583680
  19.5166260  85.2849900  74.3611500  20.5877360  84.5798010  75.1657070
  25.1594570  89.9361720  73.2538810  25.1739110  89.0042680  73.0357720
  24.4519670  90.0221480  73.8928580  30.2931640  84.1201540  59.5237420
  30.2095360  84.5515760  58.6733860  31.0125830  84.5799890  59.9564240
  31.3705780  86.5769060  72.6007390  30.6453970  87.1697840  72.4036780
  31.8981240  86.5692600  71.8020760  31.3218890  90.9743800  62.2519550
  30.6795050  90.3199420  62.5263270  30.9349550  91.3798890  61.4760220
  26.9005370  88.3029230  66.0991240  27.2529190  87.7057360  65.4392610
  26.0167700  87.9773460  66.2699490  22.9868650  89.0626920  63.5061650
  23.6739780  89.6096130  63.8869240  22.2001070  89.6067650  63.5411260
  15.1261050  84.6799740  58.9978730  15.9955900  84.9624540  59.2814650
  14.6351370  85.4935610  58.8827540  22.2895860  86.0672950  63.1187010
  22.7458640  86.8778200  63.3447200  21.9384070  85.7496090  63.9505500
  24.5928470  91.5779290  70.3479310  25.2370690  91.7838670  71.0252730
  24.9557910  90.8167690  69.8950160  18.1907640  76.4110600  63.5909530
  18.0622270  76.4028500  64.5394450  17.3669660  76.7493690  63.2400540
  25.8660550  89.5811640  69.0656760  26.5082780  88.8804800  69.1788930
  26.3909900  90.3610080  68.8853650  29.7116270  89.8660260  58.7895900
  29.4853850  89.1490700  59.3820540  29.3212470  89.6172700  57.9517650
  27.6398170  90.3806540  72.2692820  27.9754410  90.9673230  72.9470740
  26.7198510  90.2499250  72.4990610  15.1901570  78.1701720  73.0516230
  14.4760090  78.3698640  73.6568840  15.6096610  77.3941290  73.4231030
  29.2932520  87.7832200  60.4510060  29.0054220  88.2444890  61.2387940
  30.0884690  87.3229970  60.7194280  15.4774160  92.1581980  74.0382760
  15.5865280  91.2176720  73.8978150  14.8254720  92.4236730  73.3896490
  23.4686750  90.4297870  75.4380880  23.1483620  89.7107110  75.9826570
  22.7945110  91.1052940  75.5116940  21.5100920  91.2758320  60.3814030
  21.5011020  92.0088010  59.7658540  20.5899280  91.0289900  60.4740990
  17.1107560  86.4973210  61.1260790  16.5035510  87.2372110  61.1356090
  17.5856910  86.5872570  60.2998990  26.6840350  80.6624030  70.8017680
  27.0521170  79.8419240  71.1297250  25.8238550  80.7225920  71.2173330
  30.0502380  79.6180970  61.6105240  29.4215540  79.7226640  60.8963470
  29.5554300  79.8377750  62.3999120  24.4960520  91.3386560  59.0439220
  24.5972500  91.1350550  58.1141200  23.5962260  91.0844840  59.2487000
  22.0186410  81.8966920  63.0263120  21.3102560  82.3653260  63.4676730
  22.3030890  81.2388930  63.6608310  23.6442340  83.3163620  71.0255650
  24.1427590  83.7909440  71.6907500  23.7865290  82.3927140  71.2325680
  26.0501840  78.6217580  64.4658910  25.9269620  78.6403710  63.5168420
  26.9986400  78.6696520  64.5857310  20.2221430  80.2052000  60.4013830
  21.0711960  80.6422150  60.3354020  19.8552700  80.5172260  61.2285890
  30.8509200  79.5331580  71.8684040  30.3482800  80.2736980  72.2077850
  31.6665860  79.9215580  71.5520830  29.1431210  84.7764760  65.3145400
  28.2021350  84.7914990  65.4893090  29.4575280  83.9900720  65.7605700
  19.1212850  86.4584360  58.8749360  19.8876120  86.3465720  59.4374790
  19.1987540  85.7622330  58.2226130  17.8159610  83.8909430  59.5582250
  17.8963200  82.9436940  59.6699650  18.7079360  84.2216310  59.6642910
  31.1456790  91.9473610  66.9899660  31.2704210  92.7704780  67.4623470
  32.0122350  91.7364340  66.6423810  15.5019800  90.1078390  62.5358300
  14.5759580  90.3499530  62.5263710  15.9676230  90.9352650  62.4143050
  21.7276630  93.2135130  58.4842360  22.5205240  93.5023960  58.0324150
  21.2080980  92.7827300  57.8054840  27.8897600  93.0611050  74.4087190
  28.8419350  92.9769070  74.3587430  27.7425820  93.7252760  75.0820980
  30.7806800  92.4405260  59.9079100  30.4948310  92.0270400  59.0933280
  30.5826350  93.3692970  59.7879620  15.3430410  85.7124350  74.7938420
  15.8469430  85.1331630  75.3654650  14.6037830  85.9964580  75.3314790
  22.2454030  88.4338540  58.3484710  22.1404670  87.8190890  59.0746090
  22.0778250  87.9104430  57.5647720  22.3968350  87.1195340  74.3273940
  21.6314020  87.6880340  74.2428610  22.5784310  86.8271550  73.4342170
  25.4856760  87.4958570  58.9526700  24.9366860  87.9427870  59.5969440
  26.1076020  86.9907820  59.4764370  29.5391700  88.8500670  74.8848960
  30.2801170  89.1876430  74.3816420  28.7764380  89.0192730  74.3318730
  21.1531880  86.4549490  60.8492000  21.5748300  86.2889360  61.6923390
  21.2782720  85.6449720  60.3547140  19.3159300  82.4346040  73.6562980
  18.7855760  81.9436990  73.0286320  19.9847370  82.8630240  73.1220910
  23.6659520  85.4787100  58.0969100  24.1865180  84.7636120  57.7310250
  24.3127920  86.1172970  58.3969610  28.2137360  86.9015500  73.4204170
  28.6278380  87.0560580  74.2694590  27.2788360  87.0270720  73.5829950
  28.6859530  84.2411660  75.4243320  29.2680300  83.4863980  75.3363800
  28.8621300  84.7719100  74.6474800  19.8031600  79.4008410  73.7360270
  19.7088470  78.7829160  73.0111140  19.2228990  80.1274700  73.5090180
  22.5693040  77.9581650  70.7687660  22.1210340  77.9805910  69.9233210
  21.9358240  77.5600670  71.3657960  22.9752590  86.8535980  71.3900100
  23.3940700  87.6968710  71.2176340  22.0561220  86.9908020  71.1606880
  25.3116490  84.5852160  72.7737940  25.4312700  83.9893300  73.5132780
  26.1710490  84.6221850  72.3539240  27.6504390  85.1389350  71.3500450
  27.1239610  85.6631970  70.7465590  27.9935730  85.7716740  71.9810180
  20.0490780  82.5282720  57.7950160  19.8479840  81.6650080  58.1563500
  19.8782830  82.4416080  56.8571760  22.0785260  81.1273510  74.0313760
  22.6684950  80.8189360  74.7191580  21.2605500  80.6553260  74.1873660
  26.8978690  80.7439320  74.2646780  26.2094210  80.0820860  74.1996770
  27.6184710  80.2977590  74.7095240  27.5279090  77.3390950  60.3237040
  27.8081380  76.4958850  60.6796460  26.7544820  77.5714060  60.8375790
  18.8473580  79.6283340  57.7828040  19.1499480  79.6350770  56.8747190
  19.5868170  79.2781200  58.2795700  22.0658510  78.5717960  58.7684240
  21.7180510  77.8941950  58.1886690  22.2671280  78.1107470  59.5827630
  17.8703710  88.9325760  58.6157840  18.3078580  89.4755430  59.2715420
  18.3551440  88.1072710  58.6254180  15.0849510  91.7214790  66.0678100
  15.4152520  90.8535850  65.8356740  15.5140510  91.9273310  66.8983060
  19.6811430  90.0523800  63.7280070  19.3806970  89.9288770  64.6283980
  19.5748920  89.1932390  63.3195800  15.5739720  92.5885380  68.8059730
  15.1370710  92.7686180  69.6383880  16.1417400  93.3460000  68.6641450
  31.2101900  92.0902380  73.0937040  30.6103890  92.1494940  72.3500960
  31.3395800  91.1507360  73.2233890  32.4503350  89.8320200  58.4306750
  31.6196310  89.8996850  58.9013980  32.6275180  90.7224320  58.1273610
  31.9059810  86.5767680  60.9340950  32.6678720  87.1464330  61.0400640
  31.9214180  86.0094880  61.7049260  15.4064150  85.1005610  65.1648610
  14.7512990  84.8317250  64.5208310  16.2442100  84.9910090  64.7150590
  32.9119780  87.4317780  65.7782880  33.2828610  86.6485100  65.3718850
  33.5521710  88.1206880  65.6000180  29.8953540  88.8154360  71.1913200
  29.0813380  89.2451520  71.4538990  30.3027740  89.4272770  70.5782250
  31.9578980  86.8702050  58.0913470  32.2327820  87.7780930  57.9632690
  31.7689720  86.8064580  59.0275460  28.3554590  79.8946900  59.3867100
  28.7739470  79.7077880  58.5463760  28.0490650  79.0425950  59.6970030
  31.8544320  84.8071040  63.0842900  31.4787920  84.0398970  62.6524190
  31.1247440  85.1893740  63.5717830  16.4440080  85.4858180  69.7051950
  16.8113120  85.3985580  70.5847970  15.8750900  84.7224730  69.6058810
  31.2443940  83.9542560  72.7182420  31.0130030  83.7255310  71.8180370
  31.5048490  84.8742110  72.6727310  15.9956080  82.3967270  73.6110370
  15.1012130  82.3634030  73.9504080  16.5353630  82.5954060  74.3761620
  29.6832010  79.1798990  75.4962120  30.5602190  79.1882390  75.8796120
  29.6952850  78.4429830  74.8854470  14.6202230  82.3104540  61.1073940
  13.7166310  82.5734740  60.9325600  15.1042850  82.5815710  60.3273900
  31.1295280  83.0328530  66.3850140  31.6532760  82.5391180  65.7540310
  31.7154700  83.1678890  67.1297710  31.3085000  83.1168400  69.9069690
  30.3587710  83.0831940  70.0214680  31.4898010  84.0268510  69.6719460
  17.1629440  81.3670080  59.0168320  17.8721140  80.9453300  58.5315600
  16.4469380  81.4345310  58.3851670  16.8103600  77.4209410  58.0570970
  17.5331730  77.9618350  58.3752190  17.0828120  77.1472830  57.1812510
  30.6195250  82.2901880  62.3242550  31.1154370  82.0572750  63.1091430
  30.4211320  81.4513720  61.9080190  16.4995790  76.6715600  67.9593590
  17.1471980  76.1212980  67.5188750  16.9197630  76.9258750  68.7809400
  32.0482410  80.9262830  64.8580230  31.9381690  80.7718870  65.7962500
  32.8090000  80.3983770  64.6155640  30.3948130  76.8656960  71.3163230
  31.0320350  77.4791100  71.6822420  30.5423020  76.9017620  70.3712460
  32.9372680  78.7570750  58.0986370  33.8621990  78.6251930  57.8904660
  32.9148470  78.8363570  59.0522820  33.0111170  79.5281410  60.7243080
  32.2162670  79.4626530  61.2535990  33.2154450  80.4632050  60.7128430
  29.9529590  93.5672960  64.7181470  30.5488660  93.2457530  64.0415890
  30.2107740  93.0944780  65.5094740  16.2527790  76.8271270  70.7018910
  15.9042610  77.2835090  71.4677090  15.9215490  75.9328400  70.7841340
  17.8592160  89.9990870  74.8672100  17.8161790  89.6283780  75.7486560
  17.9903170  90.9368440  75.0073920  21.5598190  91.5550460  70.4681820
  21.3189550  91.8225020  69.5812340  22.5000830  91.7256190  70.5232680
  23.7652610  78.0183150  74.2238330  23.7041500  78.6104980  74.9733740
  24.7052990  77.9109110  74.0788590  26.4027170  77.6753210  73.8630620
  27.0167580  77.9932500  73.2011700  26.9476730  77.1901800  74.4826480
  16.9248430  76.3547470  73.9769680  17.4731420  76.1735520  73.2135790
  16.9903740  75.5641580  74.5125990  17.6980190  92.9453120  71.9869880
  17.1040510  92.8137820  72.7259920  17.6904030  92.1091260  71.5211980
  27.1435210  76.2385350  70.1899910  26.2695050  76.5720460  69.9872840
  27.0345960  75.7658530  71.0151780  28.0507190  78.4456220  71.5741630
  27.7220550  77.6307980  71.1943360  28.9989490  78.4026030  71.4507320
  17.3292420  90.3111500  70.9377920  16.6026480  89.6916790  70.8703870
  17.3901570  90.7052110  70.0676000  20.9337520  92.5256500  67.7227330
  21.4502540  91.9143860  67.1975590  21.5834900  93.0285280  68.2138340
  23.6733020  93.4164990  68.5496310  23.9610830  93.1619290  67.6729320
  24.1856240  92.8642350  69.1401880  24.8910030  77.1555190  69.1292820
  24.1081820  77.6300690  69.4089580  24.5972960  76.2510020  69.0206000
  29.4431100  77.8578290  67.1741910  29.8839190  77.8023390  66.3263510
  29.1738690  78.7736300  67.2452090  31.3069670  77.4893530  65.1850730
  31.2458070  76.5454750  65.0381750  32.0861700  77.5973620  65.7304190
  16.2350440  77.4602670  61.6506540  16.9929800  77.5731550  61.0770570
  15.7727610  78.2971870  61.6049970  22.7764250  79.5741940  64.6408850
  21.9638760  79.1998830  64.3004730  23.2805890  78.8187020  64.9430040
  27.2789230  76.2384390  65.8791920  27.8818600  76.8104600  66.3540440
  26.5382220  76.8023830  65.6565820  30.4223830  76.6405950  61.1532200
  30.6174460  77.5389400  61.4199630  29.6353700  76.4093030  61.6465150
  17.2185120  92.3219120  61.5924820  16.6932740  92.7027150  60.8886780
  17.1429700  92.9469890  62.3134530  18.6075590  77.9866720  60.1908510
  19.1368350  77.1996520  60.0616460  19.2403910  78.6657910  60.4244040
  20.8013430  77.7241860  63.2453900  20.1716170  77.0229170  63.4124030
  20.2618570  78.4845990  63.0287060  20.9268990  77.0025840  75.6806390
  20.6453260  77.5059440  74.9167210  21.3088690  76.2047590  75.3148520
  18.9792880  90.3866230  60.4720400  18.3501760  90.8551330  61.0206230
  19.0940710  89.5415450  60.9066590  26.4342600  84.4371890  46.6221600
  26.3536650  83.5226500  46.3513310  26.0207020  84.9338960  45.9161310
  24.5660640  86.2150910  48.5030870  23.7902740  85.7351350  48.7929440
  25.2173570  85.5356560  48.3287030  18.5826470  86.5270720  49.3806630
  17.7511350  86.2719430  49.7803140  19.1907450  86.5981490  50.1164550
  28.5868070  90.6211100  47.2830000  28.1249600  89.8498340  47.6117170
  29.3993620  90.6477170  47.7882450  18.5627730  90.5610810  49.5764650
  18.8655770  89.6708550  49.3974870  19.3071320  91.1181030  49.3486900
  16.9918420  81.4872610  43.1649020  16.1035120  81.8288580  43.0628900
  17.2759610  81.2872930  42.2729850  14.9551430  84.0878260  49.0488720
  15.5267540  83.3200460  49.0492360  14.9552970  84.3867020  48.1395330
  24.8131380  92.9069110  46.9033990  24.1942820  93.3626610  46.3328430
  25.6683160  93.0620570  46.5023690  24.0069630  88.8908100  48.5101030
  23.9377910  87.9498040  48.3490160  24.7689490  88.9809510  49.0823600
  16.1976300  79.4962620  50.8357650  16.0179140  78.5988370  51.1160410
  15.7956380  80.0434490  51.5104600  25.0374800  81.6978480  48.7369960
  25.4139620  80.8250360  48.6243630  24.9394310  82.0337180  47.8460400
  19.1679810  80.0704110  44.1987400  19.2746560  80.9707840  44.5056160
  18.2572170  80.0222080  43.9082050  28.8198920  79.1928920  45.6698300
  29.6408540  78.7025490  45.7123780  28.8533000  79.7826580  46.4230140
  16.8162970  81.9923120  49.4439990  17.4973080  82.2561490  50.0627390
  16.5011020  81.1523990  49.7778000  21.0087540  83.0390480  48.5312580
  21.5165760  83.5371450  49.1717600  21.5400780  82.2625680  48.3551940
  33.1098470  81.2095670  52.2341930  32.4050640  81.5977380  51.7157040
  33.3756390  81.9045960  52.8362860  19.2923640  77.6789040  52.7976000
  19.2942080  78.1961430  51.9921900  18.4627950  77.2019220  52.7745930
  25.6794730  87.7908350  44.2965900  25.0612000  88.2557800  43.7328620
  26.1917980  88.4835830  44.7135410  20.5426490  87.3184220  50.9749500
  20.2095870  87.9453140  51.6170570  20.7193170  87.8446100  50.1951170
  29.0560400  81.1329300  48.4425840  28.3515970  81.4214190  49.0228950
  29.4172560  81.9429410  48.0825400  18.9738970  79.3899000  50.8046450
  19.3155780  80.2341050  50.5100320  18.0354780  79.5382740  50.9211790
  19.7545590  89.2865020  52.7898680  20.3719590  89.9616100  52.5083130
  18.8938710  89.6953000  52.6986180  15.0477930  88.4764880  41.6705530
  14.6705910  88.9651980  40.9390430  15.3051000  89.1490160  42.3012060
  30.6723180  90.7504430  50.7053320  29.9886700  91.4203540  50.6969990
  31.2117470  90.9485080  49.9398180  32.1247320  80.5784090  48.8335050
  31.1772230  80.6123070  48.9650480  32.4497310  81.3923040  49.2184410
  22.6566860  76.8781270  47.1291040  22.9641840  76.3228160  46.4126540
  21.7267560  77.0125730  46.9464030  28.2081920  92.5948560  49.4198500
  28.2209080  92.1910850  48.5520760  27.6557140  93.3695850  49.3159930
  29.5027340  89.3164780  44.5088670  29.3923670  88.3739110  44.6338090
  29.4995590  89.6780420  45.3951430  27.6067360  87.4978400  50.7481110
  28.0236150  87.2838510  49.9134570  28.3307180  87.7551190  51.3189730
  25.0447620  84.9430100  43.8651160  24.1176900  84.8767480  44.0939630
  25.1972440  85.8810230  43.7506400  25.0316700  81.2147100  40.8618320
  24.0920370  81.3761060  40.9470780  25.3499960  81.9332780  40.3154310
  31.5529460  85.8965620  50.8397350  30.7248090  85.9658710  50.3647480
  32.1479940  86.4819930  50.3713180  29.0744910  86.5050400  44.3686410
  28.4557330  86.1669950  43.7212710  29.0569360  85.8610160  45.0765600
  28.5171470  82.6834940  51.7852220  28.1042650  83.5088650  52.0392210
  27.7847420  82.0979980  51.5928580  20.6504260  85.4694840  46.6470890
  20.2461260  84.7572090  46.1516790  20.7367380  85.1248080  47.5358930
  21.1185960  89.1562400  48.8110100  20.8214250  88.5507870  48.1317880
  22.0685780  89.1939710  48.6999460  19.3632880  82.2438050  50.4269930
  19.9147470  82.3533390  49.6523180  19.8776390  82.6175650  51.1425160
  29.2071570  92.7294270  52.4733200  28.7302130  93.5366460  52.2805810
  28.5233360  92.0772600  52.6259410  20.2104390  88.8944090  55.4617900
  19.3132920  89.1184060  55.7091300  20.2357260  89.0179030  54.5129300
  27.2509610  85.7437210  41.3759160  27.6902890  84.9059640  41.2296980
  27.9638030  86.3766610  41.4623300  19.0375610  85.7657410  54.0375270
  18.8983380  86.6380210  54.4062670  18.1556970  85.4230220  53.8923210
  25.3604990  90.6833280  45.3440400  25.8000900  91.4257610  44.9295790
  25.2991880  90.9259850  46.2679360  20.8355960  91.7079110  56.2460420
  20.8071390  92.1122060  55.3788850  20.6720930  90.7789470  56.0832020
  30.8326750  76.9980020  39.6900200  30.5199410  77.0906850  40.5899270
  31.5939220  77.5761050  39.6397630  17.3508890  84.3639820  44.1477540
  17.2306490  85.0901910  43.5358810  17.0409780  83.5942730  43.6705450
  32.7870780  92.4906210  57.5424590  33.2630500  92.9689100  58.2213670
  33.4077940  92.4223700  56.8170090  14.9894260  87.5354960  49.9546180
  15.0674680  87.6703730  49.0101900  15.6035940  86.8270850  50.1474300
  16.2341890  89.2355150  46.3652360  15.8269970  89.3769740  45.5105960
  17.1254900  88.9515310  46.1623570  32.1904030  89.6819060  54.7024600
  32.3167090  89.4430940  53.7841780  32.2325410  88.8503600  55.1746680
  26.0520770  93.3847060  53.2719410  26.5665440  93.2955070  54.0741840
  25.2089850  93.7306760  53.5647320  28.0275170  93.6702400  42.7003410
  27.8676310  93.3805340  43.5985240  27.8621880  92.8942530  42.1648640
  27.7301300  91.1789960  41.2601410  27.0366460  91.1767250  40.6003690
  28.4724160  90.7549280  40.8295580  27.2951230  92.8052670  45.3349900
  27.7508180  92.0242050  45.6488520  27.6343750  93.5159490  45.8791080
  32.0428040  81.7351520  55.6674340  31.4272310  82.2431190  55.1389800
  31.7224460  80.8349850  55.6100280  15.0453780  88.5769130  52.4940640
  15.2084820  88.1074490  51.6760010  15.5106230  88.0692690  53.1589480
  19.8172550  77.7074890  47.5301210  19.3740700  78.4884430  47.1985730
  20.3757540  78.0304780  48.2372150  24.1042360  80.5743410  53.1336530
  23.6421730  80.7826430  53.9456470  23.7020470  79.7602760  52.8307200
  29.1046870  81.7952360  54.2633190  28.2540460  81.4958110  54.5842260
  28.9448660  82.0394370  53.3517010  26.1996580  83.2954110  56.3631980
  26.5249990  82.4617860  56.0234210  26.9876910  83.8182630  56.5110310
  22.9331370  77.3285590  42.4107040  22.3085550  77.3245460  43.1360350
  22.8461490  76.4616550  42.0143010  21.8548450  78.2522220  49.3890810
  22.1520780  79.1585050  49.3082830  22.4034010  77.7641000  48.7750380
  19.6086770  82.8308460  45.2582460  19.3827690  82.6145630  46.1629080
  18.8279300  83.2636920  44.9128430  26.8384530  82.8371830  43.8573110
  26.2393420  83.5607630  43.6736730  27.3864140  82.7748610  43.0749560
  22.0485980  83.7294040  55.9242730  21.9529580  82.7888770  55.7743130
  22.8917960  83.9509110  55.5290800  25.4449400  81.4735370  45.8876390
  25.8378970  81.7907570  45.0745080  25.8066250  80.5947250  46.0020910
  17.1796520  80.1407710  54.0776510  16.7859910  80.9882920  54.2849290
  16.4914920  79.5034080  54.2685150  23.7541570  80.2242680  57.1473250
  23.0639890  80.0314880  57.7819340  24.4973870  80.5077320  57.6797550
  14.4813570  78.0636170  48.1106590  14.1926620  78.6339030  48.8231570
  15.2259330  77.5840620  48.4737820  14.6683800  82.0056290  39.3209310
  14.5858470  82.9487050  39.4624300  14.3166860  81.8631200  38.4421660
  26.0304540  84.0641120  49.9827170  25.2985660  84.5727930  50.3317270
  25.6328880  83.2471100  49.6815950  22.4681930  80.7395320  48.3879660
  22.4717990  80.2985270  47.5384200  23.3633050  81.0612650  48.4951480
  18.3184310  80.6221810  47.3473870  17.9784360  81.0997040  48.1040920
  17.5561630  80.1686930  46.9874970  22.5302080  81.7407400  41.3786420
  22.6514900  81.6993880  42.3272240  22.1450590  82.6031550  41.2233150
  26.4930450  79.5174800  49.3950110  26.5103190  79.9683450  50.2391960
  26.2446030  78.6180440  49.6083550  21.5423580  84.0508540  40.7769720
  20.9740480  83.6026790  40.1505630  22.2512580  84.4101320  40.2434870
  29.9201200  76.9306980  55.2336490  30.2446970  76.1996640  55.7594470
  29.9557710  76.6120620  54.3317480  16.6192760  87.9520560  54.6536450
  16.2347550  87.3114230  55.2519410  16.9304950  88.6556680  55.2231180
  22.7689900  84.7997100  50.1345070  23.1360030  84.3255670  50.8806410
  22.5794960  85.6738670  50.4753410  15.6330390  79.5440790  46.2638540
  15.3477310  79.1796460  47.1017160  15.5709250  78.8121250  45.6501680
  20.5589270  83.8405740  52.4529280  20.2546340  84.7197720  52.6779640
  21.5135730  83.9005530  52.4886720  19.0871060  88.0466730  43.0496130
  18.3133320  87.5064350  42.8894850  19.8165690  87.5273340  42.7113890
  29.8459040  87.0432090  48.8422520  30.5658160  87.5387380  48.4518630
  29.6440860  86.3649980  48.1976390  25.3068980  78.4370050  42.9851910
  24.4933590  77.9383220  42.9097220  25.1130930  79.2768300  42.5688260
  25.2277840  87.1141150  54.7291520  25.1615150  86.1936820  54.4749110
  24.5982980  87.2116590  55.4436160  28.0217370  82.8089700  41.2814070
  28.9096990  83.1206930  41.1065410  27.9922460  81.9361950  40.8894650
  19.1308460  87.7147110  46.6874940  19.6487130  86.9115370  46.6331830
  18.6792480  87.6526250  47.5291770  24.0177960  88.9813390  41.9602240
  24.3593660  89.7255620  41.4645560  23.1890670  89.2944510  42.3227070
  16.6153000  84.6808480  53.6000640  16.2567940  85.3462330  54.1873980
  16.3207560  83.8492030  53.9713260  19.8166120  85.1392720  56.4840190
  19.5166260  85.2849900  55.5868010  20.5877360  84.5798010  56.3913580
  25.1594570  89.9361720  54.4795320  25.1739110  89.0042680  54.2614230
  24.4519670  90.0221480  55.1185090  30.2931640  84.1201540  40.7493930
  30.2095360  84.5515760  39.8990370  31.0125830  84.5799890  41.1820750
  31.3705780  86.5769060  53.8263900  30.6453970  87.1697840  53.6293290
  31.8981240  86.5692600  53.0277270  31.3218890  90.9743800  43.4776060
  30.6795050  90.3199420  43.7519780  30.9349550  91.3798890  42.7016730
  26.9005370  88.3029230  47.3247750  27.2529190  87.7057360  46.6649120
  26.0167700  87.9773460  47.4956000  22.9868650  89.0626920  44.7318160
  23.6739780  89.6096130  45.1125750  22.2001070  89.6067650  44.7667770
  15.1261050  84.6799740  40.2235240  15.9955900  84.9624540  40.5071160
  14.6351370  85.4935610  40.1084050  22.2895860  86.0672950  44.3443520
  22.7458640  86.8778200  44.5703710  21.9384070  85.7496090  45.1762010
  24.5928470  91.5779290  51.5735820  25.2370690  91.7838670  52.2509240
  24.9557910  90.8167690  51.1206670  18.1907640  76.4110600  44.8166040
  18.0622270  76.4028500  45.7650960  17.3669660  76.7493690  44.4657050
  25.8660550  89.5811640  50.2913270  26.5082780  88.8804800  50.4045440
  26.3909900  90.3610080  50.1110160  29.7116270  89.8660260  40.0152410
  29.4853850  89.1490700  40.6077050  29.3212470  89.6172700  39.1774160
  27.6398170  90.3806540  53.4949330  27.9754410  90.9673230  54.1727250
  26.7198510  90.2499250  53.7247120  15.1901570  78.1701720  54.2772740
  14.4760090  78.3698640  54.8825350  15.6096610  77.3941290  54.6487540
  29.2932520  87.7832200  41.6766570  29.0054220  88.2444890  42.4644450
  30.0884690  87.3229970  41.9450790  15.4774160  92.1581980  55.2639270
  15.5865280  91.2176720  55.1234660  14.8254720  92.4236730  54.6153000
  23.4686750  90.4297870  56.6637390  23.1483620  89.7107110  57.2083080
  22.7945110  91.1052940  56.7373450  21.5100920  91.2758320  41.6070540
  21.5011020  92.0088010  40.9915050  20.5899280  91.0289900  41.6997500
  17.1107560  86.4973210  42.3517300  16.5035510  87.2372110  42.3612600
  17.5856910  86.5872570  41.5255500  26.6840350  80.6624030  52.0274190
  27.0521170  79.8419240  52.3553760  25.8238550  80.7225920  52.4429840
  30.0502380  79.6180970  42.8361750  29.4215540  79.7226640  42.1219980
  29.5554300  79.8377750  43.6255630  24.4960520  91.3386560  40.2695730
  24.5972500  91.1350550  39.3397710  23.5962260  91.0844840  40.4743510
  22.0186410  81.8966920  44.2519630  21.3102560  82.3653260  44.6933240
  22.3030890  81.2388930  44.8864820  23.6442340  83.3163620  52.2512160
  24.1427590  83.7909440  52.9164010  23.7865290  82.3927140  52.4582190
  26.0501840  78.6217580  45.6915420  25.9269620  78.6403710  44.7424930
  26.9986400  78.6696520  45.8113820  20.2221430  80.2052000  41.6270340
  21.0711960  80.6422150  41.5610530  19.8552700  80.5172260  42.4542400
  30.8509200  79.5331580  53.0940550  30.3482800  80.2736980  53.4334360
  31.6665860  79.9215580  52.7777340  29.1431210  84.7764760  46.5401910
  28.2021350  84.7914990  46.7149600  29.4575280  83.9900720  46.9862210
  19.1212850  86.4584360  40.1005870  19.8876120  86.3465720  40.6631300
  19.1987540  85.7622330  39.4482640  17.8159610  83.8909430  40.7838760
  17.8963200  82.9436940  40.8956160  18.7079360  84.2216310  40.8899420
  31.1456790  91.9473610  48.2156170  31.2704210  92.7704780  48.6879980
  32.0122350  91.7364340  47.8680320  15.5019800  90.1078390  43.7614810
  14.5759580  90.3499530  43.7520220  15.9676230  90.9352650  43.6399560
  17.6232600  93.2250890  57.0758880  18.4245330  93.5462940  57.4894280
  17.1084420  92.8646470  57.7978790  21.7276630  93.2135130  39.7098870
  22.5205240  93.5023960  39.2580660  21.2080980  92.7827300  39.0311350
  26.4597230  89.3330760  57.0234290  25.8535390  89.3562360  56.2830040
  26.1551340  88.6013800  57.5601540  27.8897600  93.0611050  55.6343700
  28.8419350  92.9769070  55.5843940  27.7425820  93.7252760  56.3077490
  30.7806800  92.4405260  41.1335610  30.4948310  92.0270400  40.3189790
  30.5826350  93.3692970  41.0136130  15.3430410  85.7124350  56.0194930
  15.8469430  85.1331630  56.5911160  14.6037830  85.9964580  56.5571300
  22.2454030  88.4338540  39.5741220  22.1404670  87.8190890  40.3002600
  22.0778250  87.9104430  38.7904230  22.3968350  87.1195340  55.5530450
  21.6314020  87.6880340  55.4685120  22.5784310  86.8271550  54.6598680
  25.4856760  87.4958570  40.1783210  24.9366860  87.9427870  40.8225950
  26.1076020  86.9907820  40.7020880  29.5391700  88.8500670  56.1105470
  30.2801170  89.1876430  55.6072930  28.7764380  89.0192730  55.5575240
  17.3753490  83.8553940  56.9145000  17.4158830  83.5567810  57.8230230
  18.2298990  84.2561550  56.7552520  21.1531880  86.4549490  42.0748510
  21.5748300  86.2889360  42.9179900  21.2782720  85.6449720  41.5803650
  19.3159300  82.4346040  54.8819490  18.7855760  81.9436990  54.2542830
  19.9847370  82.8630240  54.3477420  23.6659520  85.4787100  39.3225610
  24.1865180  84.7636120  38.9566760  24.3127920  86.1172970  39.6226120
  28.2137360  86.9015500  54.6460680  28.6278380  87.0560580  55.4951100
  27.2788360  87.0270720  54.8086460  28.6859530  84.2411660  56.6499830
  29.2680300  83.4863980  56.5620310  28.8621300  84.7719100  55.8731310
  19.8031600  79.4008410  54.9616780  19.7088470  78.7829160  54.2367650
  19.2228990  80.1274700  54.7346690  22.5693040  77.9581650  51.9944170
  22.1210340  77.9805910  51.1489720  21.9358240  77.5600670  52.5914470
  22.9752590  86.8535980  52.6156610  23.3940700  87.6968710  52.4432850
  22.0561220  86.9908020  52.3863390  25.3116490  84.5852160  53.9994450
  25.4312700  83.9893300  54.7389290  26.1710490  84.6221850  53.5795750
  27.6504390  85.1389350  52.5756960  27.1239610  85.6631970  51.9722100
  27.9935730  85.7716740  53.2066690  20.0490780  82.5282720  39.0206670
  19.8479840  81.6650080  39.3820010  19.8782830  82.4416080  38.0828270
  22.0785260  81.1273510  55.2570270  22.6684950  80.8189360  55.9448090
  21.2605500  80.6553260  55.4130170  26.8978690  80.7439320  55.4903290
  26.2094210  80.0820860  55.4253280  27.6184710  80.2977590  55.9351750
  27.5279090  77.3390950  41.5493550  27.8081380  76.4958850  41.9052970
  26.7544820  77.5714060  42.0632300  18.8473580  79.6283340  39.0084550
  19.1499480  79.6350770  38.1003700  19.5868170  79.2781200  39.5052210
  22.0658510  78.5717960  39.9940750  21.7180510  77.8941950  39.4143200
  22.2671280  78.1107470  40.8084140  17.8703710  88.9325760  39.8414350
  18.3078580  89.4755430  40.4971930  18.3551440  88.1072710  39.8510690
  15.0849510  91.7214790  47.2934610  15.4152520  90.8535850  47.0613250
  15.5140510  91.9273310  48.1239570  19.6811430  90.0523800  44.9536580
  19.3806970  89.9288770  45.8540490  19.5748920  89.1932390  44.5452310
  15.5739720  92.5885380  50.0316240  15.1370710  92.7686180  50.8640390
  16.1417400  93.3460000  49.8897960  31.2101900  92.0902380  54.3193550
  30.6103890  92.1494940  53.5757470  31.3395800  91.1507360  54.4490400
  32.4503350  89.8320200  39.6563260  31.6196310  89.8996850  40.1270490
  32.6275180  90.7224320  39.3530120  31.9059810  86.5767680  42.1597460
  32.6678720  87.1464330  42.2657150  31.9214180  86.0094880  42.9305770
  15.4064150  85.1005610  46.3905120  14.7512990  84.8317250  45.7464820
  16.2442100  84.9910090  45.9407100  32.9119780  87.4317780  47.0039390
  33.2828610  86.6485100  46.5975360  33.5521710  88.1206880  46.8256690
  29.8953540  88.8154360  52.4169710  29.0813380  89.2451520  52.6795500
  30.3027740  89.4272770  51.8038760  31.9578980  86.8702050  39.3169980
  32.2327820  87.7780930  39.1889200  31.7689720  86.8064580  40.2531970
  28.3554590  79.8946900  40.6123610  28.7739470  79.7077880  39.7720270
  28.0490650  79.0425950  40.9226540  31.8544320  84.8071040  44.3099410
  31.4787920  84.0398970  43.8780700  31.1247440  85.1893740  44.7974340
  16.4440080  85.4858180  50.9308460  16.8113120  85.3985580  51.8104480
  15.8750900  84.7224730  50.8315320  31.2443940  83.9542560  53.9438930
  31.0130030  83.7255310  53.0436880  31.5048490  84.8742110  53.8983820
  15.9956080  82.3967270  54.8366880  15.1012130  82.3634030  55.1760590
  16.5353630  82.5954060  55.6018130  29.6832010  79.1798990  56.7218630
  30.5602190  79.1882390  57.1052630  29.6952850  78.4429830  56.1110980
  14.6202230  82.3104540  42.3330450  13.7166310  82.5734740  42.1582110
  15.1042850  82.5815710  41.5530410  31.1295280  83.0328530  47.6106650
  31.6532760  82.5391180  46.9796820  31.7154700  83.1678890  48.3554220
  31.3085000  83.1168400  51.1326200  30.3587710  83.0831940  51.2471190
  31.4898010  84.0268510  50.8975970  17.1629440  81.3670080  40.2424830
  17.8721140  80.9453300  39.7572110  16.4469380  81.4345310  39.6108180
  16.8103600  77.4209410  39.2827480  17.5331730  77.9618350  39.6008700
  17.0828120  77.1472830  38.4069020  30.6195250  82.2901880  43.5499060
  31.1154370  82.0572750  44.3347940  30.4211320  81.4513720  43.1336700
  16.4995790  76.6715600  49.1850100  17.1471980  76.1212980  48.7445260
  16.9197630  76.9258750  50.0065910  32.0482410  80.9262830  46.0836740
  31.9381690  80.7718870  47.0219010  32.8090000  80.3983770  45.8412150
  30.3948130  76.8656960  52.5419740  31.0320350  77.4791100  52.9078930
  30.5423020  76.9017620  51.5968970  32.9372680  78.7570750  39.3242880
  33.8621990  78.6251930  39.1161170  32.9148470  78.8363570  40.2779330
  33.0111170  79.5281410  41.9499590  32.2162670  79.4626530  42.4792500
  33.2154450  80.4632050  41.9384940  29.9529590  93.5672960  45.9437980
  30.5488660  93.2457530  45.2672400  30.2107740  93.0944780  46.7351250
  16.2527790  76.8271270  51.9275420  15.9042610  77.2835090  52.6933600
  15.9215490  75.9328400  52.0097850  17.8592160  89.9990870  56.0928610
  17.8161790  89.6283780  56.9743070  17.9903170  90.9368440  56.2330430
  21.5598190  91.5550460  51.6938330  21.3189550  91.8225020  50.8068850
  22.5000830  91.7256190  51.7489190  23.7652610  78.0183150  55.4494840
  23.7041500  78.6104980  56.1990250  24.7052990  77.9109110  55.3045100
  26.4027170  77.6753210  55.0887130  27.0167580  77.9932500  54.4268210
  26.9476730  77.1901800  55.7082990  16.9248430  76.3547470  55.2026190
  17.4731420  76.1735520  54.4392300  16.9903740  75.5641580  55.7382500
  17.6980190  92.9453120  53.2126390  17.1040510  92.8137820  53.9516430
  17.6904030  92.1091260  52.7468490  27.1435210  76.2385350  51.4156420
  26.2695050  76.5720460  51.2129350  27.0345960  75.7658530  52.2408290
  28.0507190  78.4456220  52.7998140  27.7220550  77.6307980  52.4199870
  28.9989490  78.4026030  52.6763830  17.3292420  90.3111500  52.1634430
  16.6026480  89.6916790  52.0960380  17.3901570  90.7052110  51.2932510
  20.9337520  92.5256500  48.9483840  21.4502540  91.9143860  48.4232100
  21.5834900  93.0285280  49.4394850  23.6733020  93.4164990  49.7752820
  23.9610830  93.1619290  48.8985830  24.1856240  92.8642350  50.3658390
  24.8910030  77.1555190  50.3549330  24.1081820  77.6300690  50.6346090
  24.5972960  76.2510020  50.2462510  29.4431100  77.8578290  48.3998420
  29.8839190  77.8023390  47.5520020  29.1738690  78.7736300  48.4708600
  31.3069670  77.4893530  46.4107240  31.2458070  76.5454750  46.2638260
  32.0861700  77.5973620  46.9560700  16.2350440  77.4602670  42.8763050
  16.9929800  77.5731550  42.3027080  15.7727610  78.2971870  42.8306480
  22.7764250  79.5741940  45.8665360  21.9638760  79.1998830  45.5261240
  23.2805890  78.8187020  46.1686550  27.2789230  76.2384390  47.1048430
  27.8818600  76.8104600  47.5796950  26.5382220  76.8023830  46.8822330
  30.4223830  76.6405950  42.3788710  30.6174460  77.5389400  42.6456140
  29.6353700  76.4093030  42.8721660  17.2185120  92.3219120  42.8181330
  16.6932740  92.7027150  42.1143290  17.1429700  92.9469890  43.5391040
  18.6075590  77.9866720  41.4165020  19.1368350  77.1996520  41.2872970
  19.2403910  78.6657910  41.6500550  20.8013430  77.7241860  44.4710410
  20.1716170  77.0229170  44.6380540  20.2618570  78.4845990  44.2543570
  20.9268990  77.0025840  56.9062900  20.6453260  77.5059440  56.1423720
  21.3088690  76.2047590  56.5405030  18.9792880  90.3866230  41.6976910
  18.3501760  90.8551330  42.2462740  19.0940710  89.5415450  42.1323100
  27.5284450  76.4179420  57.4843370  27.4149900  76.7374030  58.3794890
  28.3454190  76.8191930  57.1880650  26.4342600  84.4371890  27.8478110
  26.3536650  83.5226500  27.5769820  26.0207020  84.9338960  27.1417820
  24.5660640  86.2150910  29.7287380  23.7902740  85.7351350  30.0185950
  25.2173570  85.5356560  29.5543540  18.5826470  86.5270720  30.6063140
  17.7511350  86.2719430  31.0059650  19.1907450  86.5981490  31.3421060
  28.5868070  90.6211100  28.5086510  28.1249600  89.8498340  28.8373680
  29.3993620  90.6477170  29.0138960  18.5627730  90.5610810  30.8021160
  18.8655770  89.6708550  30.6231380  19.3071320  91.1181030  30.5743410
  16.9918420  81.4872610  24.3905530  16.1035120  81.8288580  24.2885410
  17.2759610  81.2872930  23.4986360  14.9551430  84.0878260  30.2745230
  15.5267540  83.3200460  30.2748870  14.9552970  84.3867020  29.3651840
  24.8131380  92.9069110  28.1290500  24.1942820  93.3626610  27.5584940
  25.6683160  93.0620570  27.7280200  24.0069630  88.8908100  29.7357540
  23.9377910  87.9498040  29.5746670  24.7689490  88.9809510  30.3080110
  16.1976300  79.4962620  32.0614160  16.0179140  78.5988370  32.3416920
  15.7956380  80.0434490  32.7361110  25.0374800  81.6978480  29.9626470
  25.4139620  80.8250360  29.8500140  24.9394310  82.0337180  29.0716910
  19.1679810  80.0704110  25.4243910  19.2746560  80.9707840  25.7312670
  18.2572170  80.0222080  25.1338560  28.8198920  79.1928920  26.8954810
  29.6408540  78.7025490  26.9380290  28.8533000  79.7826580  27.6486650
  16.8162970  81.9923120  30.6696500  17.4973080  82.2561490  31.2883900
  16.5011020  81.1523990  31.0034510  21.0087540  83.0390480  29.7569090
  21.5165760  83.5371450  30.3974110  21.5400780  82.2625680  29.5808450
  33.1098470  81.2095670  33.4598440  32.4050640  81.5977380  32.9413550
  33.3756390  81.9045960  34.0619370  19.2923640  77.6789040  34.0232510
  19.2942080  78.1961430  33.2178410  18.4627950  77.2019220  34.0002440
  25.6794730  87.7908350  25.5222410  25.0612000  88.2557800  24.9585130
  26.1917980  88.4835830  25.9391920  20.5426490  87.3184220  32.2006010
  20.2095870  87.9453140  32.8427080  20.7193170  87.8446100  31.4207680
  29.0560400  81.1329300  29.6682350  28.3515970  81.4214190  30.2485460
  29.4172560  81.9429410  29.3081910  18.9738970  79.3899000  32.0302960
  19.3155780  80.2341050  31.7356830  18.0354780  79.5382740  32.1468300
  19.7545590  89.2865020  34.0155190  20.3719590  89.9616100  33.7339640
  18.8938710  89.6953000  33.9242690  15.0477930  88.4764880  22.8962040
  14.6705910  88.9651980  22.1646940  15.3051000  89.1490160  23.5268570
  30.6723180  90.7504430  31.9309830  29.9886700  91.4203540  31.9226500
  31.2117470  90.9485080  31.1654690  32.1247320  80.5784090  30.0591560
  31.1772230  80.6123070  30.1906990  32.4497310  81.3923040  30.4440920
  22.6566860  76.8781270  28.3547550  22.9641840  76.3228160  27.6383050
  21.7267560  77.0125730  28.1720540  28.2081920  92.5948560  30.6455010
  28.2209080  92.1910850  29.7777270  27.6557140  93.3695850  30.5416440
  29.5027340  89.3164780  25.7345180  29.3923670  88.3739110  25.8594600
  29.4995590  89.6780420  26.6207940  27.6067360  87.4978400  31.9737620
  28.0236150  87.2838510  31.1391080  28.3307180  87.7551190  32.5446240
  25.0447620  84.9430100  25.0907670  24.1176900  84.8767480  25.3196140
  25.1972440  85.8810230  24.9762910  25.0316700  81.2147100  22.0874830
  24.0920370  81.3761060  22.1727290  25.3499960  81.9332780  21.5410820
  31.5529460  85.8965620  32.0653860  30.7248090  85.9658710  31.5903990
  32.1479940  86.4819930  31.5969690  29.0744910  86.5050400  25.5942920
  28.4557330  86.1669950  24.9469220  29.0569360  85.8610160  26.3022110
  28.5171470  82.6834940  33.0108730  28.1042650  83.5088650  33.2648720
  27.7847420  82.0979980  32.8185090  20.6504260  85.4694840  27.8727400
  20.2461260  84.7572090  27.3773300  20.7367380  85.1248080  28.7615440
  21.1185960  89.1562400  30.0366610  20.8214250  88.5507870  29.3574390
  22.0685780  89.1939710  29.9255970  19.3632880  82.2438050  31.6526440
  19.9147470  82.3533390  30.8779690  19.8776390  82.6175650  32.3681670
  29.2071570  92.7294270  33.6989710  28.7302130  93.5366460  33.5062320
  28.5233360  92.0772600  33.8515920  20.2104390  88.8944090  36.6874410
  19.3132920  89.1184060  36.9347810  20.2357260  89.0179030  35.7385810
  27.2509610  85.7437210  22.6015670  27.6902890  84.9059640  22.4553490
  27.9638030  86.3766610  22.6879810  19.0375610  85.7657410  35.2631780
  18.8983380  86.6380210  35.6319180  18.1556970  85.4230220  35.1179720
  25.3604990  90.6833280  26.5696910  25.8000900  91.4257610  26.1552300
  25.2991880  90.9259850  27.4935870  20.8355960  91.7079110  37.4716930
  20.8071390  92.1122060  36.6045360  20.6720930  90.7789470  37.3088530
  30.8326750  76.9980020  20.9156710  30.5199410  77.0906850  21.8155780
  31.5939220  77.5761050  20.8654140  17.3508890  84.3639820  25.3734050
  17.2306490  85.0901910  24.7615320  17.0409780  83.5942730  24.8961960
  32.7870780  92.4906210  38.7681100  33.2630500  92.9689100  39.4470180
  33.4077940  92.4223700  38.0426600  14.9894260  87.5354960  31.1802690
  15.0674680  87.6703730  30.2358410  15.6035940  86.8270850  31.3730810
  16.2341890  89.2355150  27.5908870  15.8269970  89.3769740  26.7362470
  17.1254900  88.9515310  27.3880080  32.1904030  89.6819060  35.9281110
  32.3167090  89.4430940  35.0098290  32.2325410  88.8503600  36.4003190
  26.0520770  93.3847060  34.4975920  26.5665440  93.2955070  35.2998350
  25.2089850  93.7306760  34.7903830  28.0275170  93.6702400  23.9259920
  27.8676310  93.3805340  24.8241750  27.8621880  92.8942530  23.3905150
  27.7301300  91.1789960  22.4857920  27.0366460  91.1767250  21.8260200
  28.4724160  90.7549280  22.0552090  27.2951230  92.8052670  26.5606410
  27.7508180  92.0242050  26.8745030  27.6343750  93.5159490  27.1047590
  32.0428040  81.7351520  36.8930850  31.4272310  82.2431190  36.3646310
  31.7224460  80.8349850  36.8356790  15.0453780  88.5769130  33.7197150
  15.2084820  88.1074490  32.9016520  15.5106230  88.0692690  34.3845990
  19.8172550  77.7074890  28.7557720  19.3740700  78.4884430  28.4242240
  20.3757540  78.0304780  29.4628660  24.1042360  80.5743410  34.3593040
  23.6421730  80.7826430  35.1712980  23.7020470  79.7602760  34.0563710
  29.1046870  81.7952360  35.4889700  28.2540460  81.4958110  35.8098770
  28.9448660  82.0394370  34.5773520  26.1996580  83.2954110  37.5888490
  26.5249990  82.4617860  37.2490720  26.9876910  83.8182630  37.7366820
  22.9331370  77.3285590  23.6363550  22.3085550  77.3245460  24.3616860
  22.8461490  76.4616550  23.2399520  21.8548450  78.2522220  30.6147320
  22.1520780  79.1585050  30.5339340  22.4034010  77.7641000  30.0006890
  19.6086770  82.8308460  26.4838970  19.3827690  82.6145630  27.3885590
  18.8279300  83.2636920  26.1384940  26.8384530  82.8371830  25.0829620
  26.2393420  83.5607630  24.8993240  27.3864140  82.7748610  24.3006070
  22.0485980  83.7294040  37.1499240  21.9529580  82.7888770  36.9999640
  22.8917960  83.9509110  36.7547310  25.4449400  81.4735370  27.1132900
  25.8378970  81.7907570  26.3001590  25.8066250  80.5947250  27.2277420
  17.1796520  80.1407710  35.3033020  16.7859910  80.9882920  35.5105800
  16.4914920  79.5034080  35.4941660  23.7541570  80.2242680  38.3729760
  23.0639890  80.0314880  39.0075850  24.4973870  80.5077320  38.9054060
  14.4813570  78.0636170  29.3363100  14.1926620  78.6339030  30.0488080
  15.2259330  77.5840620  29.6994330  14.6683800  82.0056290  20.5465820
  14.5858470  82.9487050  20.6880810  14.3166860  81.8631200  19.6678170
  26.0304540  84.0641120  31.2083680  25.2985660  84.5727930  31.5573780
  25.6328880  83.2471100  30.9072460  22.4681930  80.7395320  29.6136170
  22.4717990  80.2985270  28.7640710  23.3633050  81.0612650  29.7207990
  18.3184310  80.6221810  28.5730380  17.9784360  81.0997040  29.3297430
  17.5561630  80.1686930  28.2131480  22.5302080  81.7407400  22.6042930
  22.6514900  81.6993880  23.5528750  22.1450590  82.6031550  22.4489660
  26.4930450  79.5174800  30.6206620  26.5103190  79.9683450  31.4648470
  26.2446030  78.6180440  30.8340060  21.5423580  84.0508540  22.0026230
  20.9740480  83.6026790  21.3762140  22.2512580  84.4101320  21.4691380
  29.9201200  76.9306980  36.4593000  30.2446970  76.1996640  36.9850980
  29.9557710  76.6120620  35.5573990  16.6192760  87.9520560  35.8792960
  16.2347550  87.3114230  36.4775920  16.9304950  88.6556680  36.4487690
  22.7689900  84.7997100  31.3601580  23.1360030  84.3255670  32.1062920
  22.5794960  85.6738670  31.7009920  15.6330390  79.5440790  27.4895050
  15.3477310  79.1796460  28.3273670  15.5709250  78.8121250  26.8758190
  20.5589270  83.8405740  33.6785790  20.2546340  84.7197720  33.9036150
  21.5135730  83.9005530  33.7143230  19.0871060  88.0466730  24.2752640
  18.3133320  87.5064350  24.1151360  19.8165690  87.5273340  23.9370400
  29.8459040  87.0432090  30.0679030  30.5658160  87.5387380  29.6775140
  29.6440860  86.3649980  29.4232900  25.3068980  78.4370050  24.2108420
  24.4933590  77.9383220  24.1353730  25.1130930  79.2768300  23.7944770
  25.2277840  87.1141150  35.9548030  25.1615150  86.1936820  35.7005620
  24.5982980  87.2116590  36.6692670  28.0217370  82.8089700  22.5070580
  28.9096990  83.1206930  22.3321920  27.9922460  81.9361950  22.1151160
  19.1308460  87.7147110  27.9131450  19.6487130  86.9115370  27.8588340
  18.6792480  87.6526250  28.7548280  24.0177960  88.9813390  23.1858750
  24.3593660  89.7255620  22.6902070  23.1890670  89.2944510  23.5483580
  16.6153000  84.6808480  34.8257150  16.2567940  85.3462330  35.4130490
  16.3207560  83.8492030  35.1969770  19.8166120  85.1392720  37.7096700
  19.5166260  85.2849900  36.8124520  20.5877360  84.5798010  37.6170090
  25.1594570  89.9361720  35.7051830  25.1739110  89.0042680  35.4870740
  24.4519670  90.0221480  36.3441600  30.2931640  84.1201540  21.9750440
  30.2095360  84.5515760  21.1246880  31.0125830  84.5799890  22.4077260
  31.3705780  86.5769060  35.0520410  30.6453970  87.1697840  34.8549800
  31.8981240  86.5692600  34.2533780  31.3218890  90.9743800  24.7032570
  30.6795050  90.3199420  24.9776290  30.9349550  91.3798890  23.9273240
  26.9005370  88.3029230  28.5504260  27.2529190  87.7057360  27.8905630
  26.0167700  87.9773460  28.7212510  22.9868650  89.0626920  25.9574670
  23.6739780  89.6096130  26.3382260  22.2001070  89.6067650  25.9924280
  15.1261050  84.6799740  21.4491750  15.9955900  84.9624540  21.7327670
  14.6351370  85.4935610  21.3340560  22.2895860  86.0672950  25.5700030
  22.7458640  86.8778200  25.7960220  21.9384070  85.7496090  26.4018520
  24.5928470  91.5779290  32.7992330  25.2370690  91.7838670  33.4765750
  24.9557910  90.8167690  32.3463180  18.1907640  76.4110600  26.0422550
  18.0622270  76.4028500  26.9907470  17.3669660  76.7493690  25.6913560
  25.8660550  89.5811640  31.5169780  26.5082780  88.8804800  31.6301950
  26.3909900  90.3610080  31.3366670  29.7116270  89.8660260  21.2408920
  29.4853850  89.1490700  21.8333560  29.3212470  89.6172700  20.4030670
  27.6398170  90.3806540  34.7205840  27.9754410  90.9673230  35.3983760
  26.7198510  90.2499250  34.9503630  15.1901570  78.1701720  35.5029250
  14.4760090  78.3698640  36.1081860  15.6096610  77.3941290  35.8744050
  29.2932520  87.7832200  22.9023080  29.0054220  88.2444890  23.6900960
  30.0884690  87.3229970  23.1707300  15.4774160  92.1581980  36.4895780
  15.5865280  91.2176720  36.3491170  14.8254720  92.4236730  35.8409510
  23.4686750  90.4297870  37.8893900  23.1483620  89.7107110  38.4339590
  22.7945110  91.1052940  37.9629960  21.5100920  91.2758320  22.8327050
  21.5011020  92.0088010  22.2171560  20.5899280  91.0289900  22.9254010
  17.1107560  86.4973210  23.5773810  16.5035510  87.2372110  23.5869110
  17.5856910  86.5872570  22.7512010  26.6840350  80.6624030  33.2530700
  27.0521170  79.8419240  33.5810270  25.8238550  80.7225920  33.6686350
  30.0502380  79.6180970  24.0618260  29.4215540  79.7226640  23.3476490
  29.5554300  79.8377750  24.8512140  24.4960520  91.3386560  21.4952240
  24.5972500  91.1350550  20.5654220  23.5962260  91.0844840  21.7000020
  22.0186410  81.8966920  25.4776140  21.3102560  82.3653260  25.9189750
  22.3030890  81.2388930  26.1121330  23.6442340  83.3163620  33.4768670
  24.1427590  83.7909440  34.1420520  23.7865290  82.3927140  33.6838700
  26.0501840  78.6217580  26.9171930  25.9269620  78.6403710  25.9681440
  26.9986400  78.6696520  27.0370330  20.2221430  80.2052000  22.8526850
  21.0711960  80.6422150  22.7867040  19.8552700  80.5172260  23.6798910
  30.8509200  79.5331580  34.3197060  30.3482800  80.2736980  34.6590870
  31.6665860  79.9215580  34.0033850  29.1431210  84.7764760  27.7658420
  28.2021350  84.7914990  27.9406110  29.4575280  83.9900720  28.2118720
  19.1212850  86.4584360  21.3262380  19.8876120  86.3465720  21.8887810
  19.1987540  85.7622330  20.6739150  17.8159610  83.8909430  22.0095270
  17.8963200  82.9436940  22.1212670  18.7079360  84.2216310  22.1155930
  31.1456790  91.9473610  29.4412680  31.2704210  92.7704780  29.9136490
  32.0122350  91.7364340  29.0936830  15.5019800  90.1078390  24.9871320
  14.5759580  90.3499530  24.9776730  15.9676230  90.9352650  24.8656070
  17.6232600  93.2250890  38.3015390  18.4245330  93.5462940  38.7150790
  17.1084420  92.8646470  39.0235300  21.7276630  93.2135130  20.9355380
  22.5205240  93.5023960  20.4837170  21.2080980  92.7827300  20.2567860
  26.4597230  89.3330760  38.2490800  25.8535390  89.3562360  37.5086550
  26.1551340  88.6013800  38.7858050  27.8897600  93.0611050  36.8600210
  28.8419350  92.9769070  36.8100450  27.7425820  93.7252760  37.5334000
  30.7806800  92.4405260  22.3592120  30.4948310  92.0270400  21.5446300
  30.5826350  93.3692970  22.2392640  15.3430410  85.7124350  37.2451440
  15.8469430  85.1331630  37.8167670  14.6037830  85.9964580  37.7827810
  22.2454030  88.4338540  20.7997730  22.1404670  87.8190890  21.5259110
  22.0778250  87.9104430  20.0160740  22.3968350  87.1195340  36.7786960
  21.6314020  87.6880340  36.6941630  22.5784310  86.8271550  35.8855190
  25.4856760  87.4958570  21.4039720  24.9366860  87.9427870  22.0482460
  26.1076020  86.9907820  21.9277390  29.5391700  88.8500670  37.3361980
  30.2801170  89.1876430  36.8329440  28.7764380  89.0192730  36.7831750
  17.3753490  83.8553940  38.1401510  17.4158830  83.5567810  39.0486740
  18.2298990  84.2561550  37.9809030  21.1531880  86.4549490  23.3005020
  21.5748300  86.2889360  24.1436410  21.2782720  85.6449720  22.8060160
  19.3159300  82.4346040  36.1076000  18.7855760  81.9436990  35.4799340
  19.9847370  82.8630240  35.5733930  23.6659520  85.4787100  20.5482120
  24.1865180  84.7636120  20.1823270  24.3127920  86.1172970  20.8482630
  28.2137360  86.9015500  35.8717190  28.6278380  87.0560580  36.7207610
  27.2788360  87.0270720  36.0342970  28.6859530  84.2411660  37.8756340
  29.2680300  83.4863980  37.7876820  28.8621300  84.7719100  37.0987820
  19.8031600  79.4008410  36.1873290  19.7088470  78.7829160  35.4624160
  19.2228990  80.1274700  35.9603200  22.5693040  77.9581650  33.2200680
  22.1210340  77.9805910  32.3746230  21.9358240  77.5600670  33.8170980
  22.9752590  86.8535980  33.8413120  23.3940700  87.6968710  33.6689360
  22.0561220  86.9908020  33.6119900  25.3116490  84.5852160  35.2250960
  25.4312700  83.9893300  35.9645800  26.1710490  84.6221850  34.8052260
  27.6504390  85.1389350  33.8013470  27.1239610  85.6631970  33.1978610
  27.9935730  85.7716740  34.4323200  20.0490780  82.5282720  20.2463180
  19.8479840  81.6650080  20.6076520  19.8782830  82.4416080  19.3084780
  22.0785260  81.1273510  36.4826780  22.6684950  80.8189360  37.1704600
  21.2605500  80.6553260  36.6386680  26.8978690  80.7439320  36.7159800
  26.2094210  80.0820860  36.6509790  27.6184710  80.2977590  37.1608260
  27.5279090  77.3390950  22.7750060  27.8081380  76.4958850  23.1309480
  26.7544820  77.5714060  23.2888810  18.8473580  79.6283340  20.2341060
  19.1499480  79.6350770  19.3260210  19.5868170  79.2781200  20.7308720
  22.0658510  78.5717960  21.2197260  21.7180510  77.8941950  20.6399710
  22.2671280  78.1107470  22.0340650  17.8703710  88.9325760  21.0670860
  18.3078580  89.4755430  21.7228440  18.3551440  88.1072710  21.0767200
  15.0849510  91.7214790  28.5191120  15.4152520  90.8535850  28.2869760
  15.5140510  91.9273310  29.3496080  19.6811430  90.0523800  26.1793090
  19.3806970  89.9288770  27.0797000  19.5748920  89.1932390  25.7708820
  15.5739720  92.5885380  31.2572750  15.1370710  92.7686180  32.0896900
  16.1417400  93.3460000  31.1154470  31.2101900  92.0902380  35.5450060
  30.6103890  92.1494940  34.8013980  31.3395800  91.1507360  35.6746910
  32.4503350  89.8320200  20.8819770  31.6196310  89.8996850  21.3527000
  32.6275180  90.7224320  20.5786630  31.9059810  86.5767680  23.3853970
  32.6678720  87.1464330  23.4913660  31.9214180  86.0094880  24.1562280
  15.4064150  85.1005610  27.6161630  14.7512990  84.8317250  26.9721330
  16.2442100  84.9910090  27.1663610  32.9119780  87.4317780  28.2295900
  33.2828610  86.6485100  27.8231870  33.5521710  88.1206880  28.0513200
  29.8953540  88.8154360  33.6426220  29.0813380  89.2451520  33.9052010
  30.3027740  89.4272770  33.0295270  31.9578980  86.8702050  20.5426490
  32.2327820  87.7780930  20.4145710  31.7689720  86.8064580  21.4788480
  28.3554590  79.8946900  21.8380120  28.7739470  79.7077880  20.9976780
  28.0490650  79.0425950  22.1483050  31.8544320  84.8071040  25.5355920
  31.4787920  84.0398970  25.1037210  31.1247440  85.1893740  26.0230850
  16.4440080  85.4858180  32.1564970  16.8113120  85.3985580  33.0360990
  15.8750900  84.7224730  32.0571830  31.2443940  83.9542560  35.1695440
  31.0130030  83.7255310  34.2693390  31.5048490  84.8742110  35.1240330
  15.9956080  82.3967270  36.0623390  15.1012130  82.3634030  36.4017100
  16.5353630  82.5954060  36.8274640  29.6832010  79.1798990  37.9475140
  30.5602190  79.1882390  38.3309140  29.6952850  78.4429830  37.3367490
  14.6202230  82.3104540  23.5586960  13.7166310  82.5734740  23.3838620
  15.1042850  82.5815710  22.7786920  31.1295280  83.0328530  28.8363160
  31.6532760  82.5391180  28.2053330  31.7154700  83.1678890  29.5810730
  31.3085000  83.1168400  32.3582710  30.3587710  83.0831940  32.4727700
  31.4898010  84.0268510  32.1232480  17.1629440  81.3670080  21.4681340
  17.8721140  80.9453300  20.9828620  16.4469380  81.4345310  20.8364690
  16.8103600  77.4209410  20.5083990  17.5331730  77.9618350  20.8265210
  17.0828120  77.1472830  19.6325530  30.6195250  82.2901880  24.7755570
  31.1154370  82.0572750  25.5604450  30.4211320  81.4513720  24.3593210
  16.4995790  76.6715600  30.4106610  17.1471980  76.1212980  29.9701770
  16.9197630  76.9258750  31.2322420  32.0482410  80.9262830  27.3093250
  31.9381690  80.7718870  28.2475520  32.8090000  80.3983770  27.0668660
  30.3948130  76.8656960  33.7676250  31.0320350  77.4791100  34.1335440
  30.5423020  76.9017620  32.8225480  32.9372680  78.7570750  20.5499390
  33.8621990  78.6251930  20.3417680  32.9148470  78.8363570  21.5035840
  33.0111170  79.5281410  23.1756100  32.2162670  79.4626530  23.7049010
  33.2154450  80.4632050  23.1641450  29.9529590  93.5672960  27.1694490
  30.5488660  93.2457530  26.4928910  30.2107740  93.0944780  27.9607760
  16.2527790  76.8271270  33.1531930  15.9042610  77.2835090  33.9190110
  15.9215490  75.9328400  33.2354360  17.8592160  89.9990870  37.3185120
  17.8161790  89.6283780  38.1999580  17.9903170  90.9368440  37.4586940
  21.5598190  91.5550460  32.9194840  21.3189550  91.8225020  32.0325360
  22.5000830  91.7256190  32.9745700  23.7652610  78.0183150  36.6751350
  23.7041500  78.6104980  37.4246760  24.7052990  77.9109110  36.5301610
  26.4027170  77.6753210  36.3143640  27.0167580  77.9932500  35.6524720
  26.9476730  77.1901800  36.9339500  16.9248430  76.3547470  36.4282700
  17.4731420  76.1735520  35.6648810  16.9903740  75.5641580  36.9639010
  17.6980190  92.9453120  34.4382900  17.1040510  92.8137820  35.1772940
  17.6904030  92.1091260  33.9725000  27.1435210  76.2385350  32.6412930
  26.2695050  76.5720460  32.4385860  27.0345960  75.7658530  33.4664800
  28.0507190  78.4456220  34.0254650  27.7220550  77.6307980  33.6456380
  28.9989490  78.4026030  33.9020340  17.3292420  90.3111500  33.3890940
  16.6026480  89.6916790  33.3216890  17.3901570  90.7052110  32.5189020
  20.9337520  92.5256500  30.1740350  21.4502540  91.9143860  29.6488610
  21.5834900  93.0285280  30.6651360  23.6733020  93.4164990  31.0009330
  23.9610830  93.1619290  30.1242340  24.1856240  92.8642350  31.5914900
  24.8910030  77.1555190  31.5805840  24.1081820  77.6300690  31.8602600
  24.5972960  76.2510020  31.4719020  29.4431100  77.8578290  29.6254930
  29.8839190  77.8023390  28.7776530  29.1738690  78.7736300  29.6965110
  31.3069670  77.4893530  27.6363750  31.2458070  76.5454750  27.4894770
  32.0861700  77.5973620  28.1817210  16.2350440  77.4602670  24.1019560
  16.9929800  77.5731550  23.5283590  15.7727610  78.2971870  24.0562990
  22.7764250  79.5741940  27.0921870  21.9638760  79.1998830  26.7517750
  23.2805890  78.8187020  27.3943060  27.2789230  76.2384390  28.3304940
  27.8818600  76.8104600  28.8053460  26.5382220  76.8023830  28.1078840
  30.4223830  76.6405950  23.6045220  30.6174460  77.5389400  23.8712650
  29.6353700  76.4093030  24.0978170  17.2185120  92.3219120  24.0437840
  16.6932740  92.7027150  23.3399800  17.1429700  92.9469890  24.7647550
  18.6075590  77.9866720  22.6421530  19.1368350  77.1996520  22.5129480
  19.2403910  78.6657910  22.8757060  20.8013430  77.7241860  25.6966920
  20.1716170  77.0229170  25.8637050  20.2618570  78.4845990  25.4800080
  20.9268990  77.0025840  38.1319410  20.6453260  77.5059440  37.3680230
  21.3088690  76.2047590  37.7661540  18.9792880  90.3866230  22.9233420
  18.3501760  90.8551330  23.4719250  19.0940710  89.5415450  23.3579610
  27.5284450  76.4179420  38.7099880  27.4149900  76.7374030  39.6051400
  28.3454190  76.8191930  38.4137160  26.4342600  84.4371890   9.0734620
  26.3536650  83.5226500   8.8026330  26.0207020  84.9338960   8.3674330
  24.5660640  86.2150910  10.9543890  23.7902740  85.7351350  11.2442460
  25.2173570  85.5356560  10.7800050  18.5826470  86.5270720  11.8319650
  17.7511350  86.2719430  12.2316160  19.1907450  86.5981490  12.5677570
  28.5868070  90.6211100   9.7343020  28.1249600  89.8498340  10.0630190
  29.3993620  90.6477170  10.2395470  18.5627730  90.5610810  12.0277670
  18.8655770  89.6708550  11.8487890  19.3071320  91.1181030  11.7999920
  16.9918420  81.4872610   5.6162040  16.1035120  81.8288580   5.5141920
  17.2759610  81.2872930   4.7242870  14.9551430  84.0878260  11.5001740
  15.5267540  83.3200460  11.5005380  14.9552970  84.3867020  10.5908350
  24.8131380  92.9069110   9.3547010  24.1942820  93.3626610   8.7841450
  25.6683160  93.0620570   8.9536710  24.0069630  88.8908100  10.9614050
  23.9377910  87.9498040  10.8003180  24.7689490  88.9809510  11.5336620
  16.1976300  79.4962620  13.2870670  16.0179140  78.5988370  13.5673430
  15.7956380  80.0434490  13.9617620  25.0374800  81.6978480  11.1882980
  25.4139620  80.8250360  11.0756650  24.9394310  82.0337180  10.2973420
  19.1679810  80.0704110   6.6500420  19.2746560  80.9707840   6.9569180
  18.2572170  80.0222080   6.3595070  28.8198920  79.1928920   8.1211320
  29.6408540  78.7025490   8.1636800  28.8533000  79.7826580   8.8743160
  16.8162970  81.9923120  11.8953010  17.4973080  82.2561490  12.5140410
  16.5011020  81.1523990  12.2291020  21.0087540  83.0390480  10.9825600
  21.5165760  83.5371450  11.6230620  21.5400780  82.2625680  10.8064960
  33.1098470  81.2095670  14.6854950  32.4050640  81.5977380  14.1670060
  33.3756390  81.9045960  15.2875880  19.2923640  77.6789040  15.2489020
  19.2942080  78.1961430  14.4434920  18.4627950  77.2019220  15.2258950
  25.6794730  87.7908350   6.7478920  25.0612000  88.2557800   6.1841640
  26.1917980  88.4835830   7.1648430  20.5426490  87.3184220  13.4262520
  20.2095870  87.9453140  14.0683590  20.7193170  87.8446100  12.6464190
  29.0560400  81.1329300  10.8938860  28.3515970  81.4214190  11.4741970
  29.4172560  81.9429410  10.5338420  18.9738970  79.3899000  13.2559470
  19.3155780  80.2341050  12.9613340  18.0354780  79.5382740  13.3724810
  19.7545590  89.2865020  15.2411700  20.3719590  89.9616100  14.9596150
  18.8938710  89.6953000  15.1499200  15.0477930  88.4764880   4.1218550
  14.6705910  88.9651980   3.3903450  15.3051000  89.1490160   4.7525080
  30.6723180  90.7504430  13.1566340  29.9886700  91.4203540  13.1483010
  31.2117470  90.9485080  12.3911200  32.1247320  80.5784090  11.2848070
  31.1772230  80.6123070  11.4163500  32.4497310  81.3923040  11.6697430
  22.6566860  76.8781270   9.5804060  22.9641840  76.3228160   8.8639560
  21.7267560  77.0125730   9.3977050  28.2081920  92.5948560  11.8711520
  28.2209080  92.1910850  11.0033780  27.6557140  93.3695850  11.7672950
  29.5027340  89.3164780   6.9601690  29.3923670  88.3739110   7.0851110
  29.4995590  89.6780420   7.8464450  27.6067360  87.4978400  13.1994130
  28.0236150  87.2838510  12.3647590  28.3307180  87.7551190  13.7702750
  25.0447620  84.9430100   6.3164180  24.1176900  84.8767480   6.5452650
  25.1972440  85.8810230   6.2019420  25.0316700  81.2147100   3.3131340
  24.0920370  81.3761060   3.3983800  25.3499960  81.9332780   2.7667330
  31.5529460  85.8965620  13.2910370  30.7248090  85.9658710  12.8160500
  32.1479940  86.4819930  12.8226200  29.0744910  86.5050400   6.8199430
  28.4557330  86.1669950   6.1725730  29.0569360  85.8610160   7.5278620
  28.5171470  82.6834940  14.2365240  28.1042650  83.5088650  14.4905230
  27.7847420  82.0979980  14.0441600  20.6504260  85.4694840   9.0983910
  20.2461260  84.7572090   8.6029810  20.7367380  85.1248080   9.9871950
  21.1185960  89.1562400  11.2623120  20.8214250  88.5507870  10.5830900
  22.0685780  89.1939710  11.1512480  19.3632880  82.2438050  12.8782950
  19.9147470  82.3533390  12.1036200  19.8776390  82.6175650  13.5938180
  29.2071570  92.7294270  14.9246220  28.7302130  93.5366460  14.7318830
  28.5233360  92.0772600  15.0772430  20.2104390  88.8944090  17.9130920
  19.3132920  89.1184060  18.1604320  20.2357260  89.0179030  16.9642320
  27.2509610  85.7437210   3.8272180  27.6902890  84.9059640   3.6810000
  27.9638030  86.3766610   3.9136320  19.0375610  85.7657410  16.4888290
  18.8983380  86.6380210  16.8575690  18.1556970  85.4230220  16.3436230
  25.3604990  90.6833280   7.7953420  25.8000900  91.4257610   7.3808810
  25.2991880  90.9259850   8.7192380  20.8355960  91.7079110  18.6973440
  20.8071390  92.1122060  17.8301870  20.6720930  90.7789470  18.5345040
  30.8326750  76.9980020   2.1413220  30.5199410  77.0906850   3.0412290
  31.5939220  77.5761050   2.0910650  17.3508890  84.3639820   6.5990560
  17.2306490  85.0901910   5.9871830  17.0409780  83.5942730   6.1218470
  32.7870780  92.4906210  19.9937610  33.2630500  92.9689100  20.6726690
  33.4077940  92.4223700  19.2683110  14.9894260  87.5354960  12.4059200
  15.0674680  87.6703730  11.4614920  15.6035940  86.8270850  12.5987320
  16.2341890  89.2355150   8.8165380  15.8269970  89.3769740   7.9618980
  17.1254900  88.9515310   8.6136590  32.1904030  89.6819060  17.1537620
  32.3167090  89.4430940  16.2354800  32.2325410  88.8503600  17.6259700
  26.0520770  93.3847060  15.7232430  26.5665440  93.2955070  16.5254860
  25.2089850  93.7306760  16.0160340  28.0275170  93.6702400   5.1516430
  27.8676310  93.3805340   6.0498260  27.8621880  92.8942530   4.6161660
  27.7301300  91.1789960   3.7114430  27.0366460  91.1767250   3.0516710
  28.4724160  90.7549280   3.2808600  27.2951230  92.8052670   7.7862920
  27.7508180  92.0242050   8.1001540  27.6343750  93.5159490   8.3304100
  32.0428040  81.7351520  18.1187360  31.4272310  82.2431190  17.5902820
  31.7224460  80.8349850  18.0613300  15.0453780  88.5769130  14.9453660
  15.2084820  88.1074490  14.1273030  15.5106230  88.0692690  15.6102500
  19.8172550  77.7074890   9.9814230  19.3740700  78.4884430   9.6498750
  20.3757540  78.0304780  10.6885170  24.1042360  80.5743410  15.5849550
  23.6421730  80.7826430  16.3969490  23.7020470  79.7602760  15.2820220
  29.1046870  81.7952360  16.7146210  28.2540460  81.4958110  17.0355280
  28.9448660  82.0394370  15.8030030  26.1996580  83.2954110  18.8145000
  26.5249990  82.4617860  18.4747230  26.9876910  83.8182630  18.9623330
  22.9331370  77.3285590   4.8620060  22.3085550  77.3245460   5.5873370
  22.8461490  76.4616550   4.4656030  21.8548450  78.2522220  11.8403830
  22.1520780  79.1585050  11.7595850  22.4034010  77.7641000  11.2263400
  19.6086770  82.8308460   7.7095480  19.3827690  82.6145630   8.6142100
  18.8279300  83.2636920   7.3641450  26.8384530  82.8371830   6.3086130
  26.2393420  83.5607630   6.1249750  27.3864140  82.7748610   5.5262580
  22.0485980  83.7294040  18.3755750  21.9529580  82.7888770  18.2256150
  22.8917960  83.9509110  17.9803820  25.4449400  81.4735370   8.3389410
  25.8378970  81.7907570   7.5258100  25.8066250  80.5947250   8.4533930
  17.1796520  80.1407710  16.5289530  16.7859910  80.9882920  16.7362310
  16.4914920  79.5034080  16.7198170  23.7541570  80.2242680  19.5986270
  23.0639890  80.0314880  20.2332360  24.4973870  80.5077320  20.1310570
  14.4813570  78.0636170  10.5619610  14.1926620  78.6339030  11.2744590
  15.2259330  77.5840620  10.9250840  26.0304540  84.0641120  12.4340190
  25.2985660  84.5727930  12.7830290  25.6328880  83.2471100  12.1328970
  22.4681930  80.7395320  10.8392680  22.4717990  80.2985270   9.9897220
  23.3633050  81.0612650  10.9464500  18.3184310  80.6221810   9.7986890
  17.9784360  81.0997040  10.5553940  17.5561630  80.1686930   9.4387990
  22.5302080  81.7407400   3.8299440  22.6514900  81.6993880   4.7785260
  22.1450590  82.6031550   3.6746170  26.4930450  79.5174800  11.8463130
  26.5103190  79.9683450  12.6904980  26.2446030  78.6180440  12.0596570
  21.5423580  84.0508540   3.2282740  20.9740480  83.6026790   2.6018650
  22.2512580  84.4101320   2.6947890  29.9201200  76.9306980  17.6849510
  30.2446970  76.1996640  18.2107490  29.9557710  76.6120620  16.7830500
  16.6192760  87.9520560  17.1049470  16.2347550  87.3114230  17.7032430
  16.9304950  88.6556680  17.6744200  22.7689900  84.7997100  12.5858090
  23.1360030  84.3255670  13.3319430  22.5794960  85.6738670  12.9266430
  15.6330390  79.5440790   8.7151560  15.3477310  79.1796460   9.5530180
  15.5709250  78.8121250   8.1014700  20.5589270  83.8405740  14.9042300
  20.2546340  84.7197720  15.1292660  21.5135730  83.9005530  14.9399740
  19.0871060  88.0466730   5.5009150  18.3133320  87.5064350   5.3407870
  19.8165690  87.5273340   5.1626910  29.8459040  87.0432090  11.2935540
  30.5658160  87.5387380  10.9031650  29.6440860  86.3649980  10.6489410
  25.3068980  78.4370050   5.4364930  24.4933590  77.9383220   5.3610240
  25.1130930  79.2768300   5.0201280  25.2277840  87.1141150  17.1804540
  25.1615150  86.1936820  16.9262130  24.5982980  87.2116590  17.8949180
  28.0217370  82.8089700   3.7327090  28.9096990  83.1206930   3.5578430
  27.9922460  81.9361950   3.3407670  19.1308460  87.7147110   9.1387960
  19.6487130  86.9115370   9.0844850  18.6792480  87.6526250   9.9804790
  24.0177960  88.9813390   4.4115260  24.3593660  89.7255620   3.9158580
  23.1890670  89.2944510   4.7740090  16.6153000  84.6808480  16.0513660
  16.2567940  85.3462330  16.6387000  16.3207560  83.8492030  16.4226280
  19.8166120  85.1392720  18.9353210  19.5166260  85.2849900  18.0381030
  20.5877360  84.5798010  18.8426600  25.1594570  89.9361720  16.9308340
  25.1739110  89.0042680  16.7127250  24.4519670  90.0221480  17.5698110
  30.2931640  84.1201540   3.2006950  30.2095360  84.5515760   2.3503390
  31.0125830  84.5799890   3.6333770  31.3705780  86.5769060  16.2776920
  30.6453970  87.1697840  16.0806310  31.8981240  86.5692600  15.4790290
  31.3218890  90.9743800   5.9289080  30.6795050  90.3199420   6.2032800
  30.9349550  91.3798890   5.1529750  26.9005370  88.3029230   9.7760770
  27.2529190  87.7057360   9.1162140  26.0167700  87.9773460   9.9469020
  22.9868650  89.0626920   7.1831180  23.6739780  89.6096130   7.5638770
  22.2001070  89.6067650   7.2180790  15.1261050  84.6799740   2.6748260
  15.9955900  84.9624540   2.9584180  14.6351370  85.4935610   2.5597070
  22.2895860  86.0672950   6.7956540  22.7458640  86.8778200   7.0216730
  21.9384070  85.7496090   7.6275030  24.5928470  91.5779290  14.0248840
  25.2370690  91.7838670  14.7022260  24.9557910  90.8167690  13.5719690
  18.1907640  76.4110600   7.2679060  18.0622270  76.4028500   8.2163980
  17.3669660  76.7493690   6.9170070  25.8660550  89.5811640  12.7426290
  26.5082780  88.8804800  12.8558460  26.3909900  90.3610080  12.5623180
  29.7116270  89.8660260   2.4665430  29.4853850  89.1490700   3.0590070
  29.3212470  89.6172700   1.6287180  27.6398170  90.3806540  15.9462350
  27.9754410  90.9673230  16.6240270  26.7198510  90.2499250  16.1760140
  15.1901570  78.1701720  16.7285760  14.4760090  78.3698640  17.3338370
  15.6096610  77.3941290  17.1000560  29.2932520  87.7832200   4.1279590
  29.0054220  88.2444890   4.9157470  30.0884690  87.3229970   4.3963810
  15.4774160  92.1581980  17.7152290  15.5865280  91.2176720  17.5747680
  14.8254720  92.4236730  17.0666020  23.4686750  90.4297870  19.1150410
  23.1483620  89.7107110  19.6596100  22.7945110  91.1052940  19.1886470
  21.5100920  91.2758320   4.0583560  21.5011020  92.0088010   3.4428070
  20.5899280  91.0289900   4.1510520  17.1107560  86.4973210   4.8030320
  16.5035510  87.2372110   4.8125620  17.5856910  86.5872570   3.9768520
  26.6840350  80.6624030  14.4787210  27.0521170  79.8419240  14.8066780
  25.8238550  80.7225920  14.8942860  30.0502380  79.6180970   5.2874770
  29.4215540  79.7226640   4.5733000  29.5554300  79.8377750   6.0768650
  24.4960520  91.3386560   2.7208750  24.5972500  91.1350550   1.7910730
  23.5962260  91.0844840   2.9256530  22.0186410  81.8966920   6.7032650
  21.3102560  82.3653260   7.1446260  22.3030890  81.2388930   7.3377840
  23.6442340  83.3163620  14.7025180  24.1427590  83.7909440  15.3677030
  23.7865290  82.3927140  14.9095210  26.0501840  78.6217580   8.1428440
  25.9269620  78.6403710   7.1937950  26.9986400  78.6696520   8.2626840
  20.2221430  80.2052000   4.0783360  21.0711960  80.6422150   4.0123550
  19.8552700  80.5172260   4.9055420  30.8509200  79.5331580  15.5453570
  30.3482800  80.2736980  15.8847380  31.6665860  79.9215580  15.2290360
  29.1431210  84.7764760   8.9914930  28.2021350  84.7914990   9.1662620
  29.4575280  83.9900720   9.4375230  19.1212850  86.4584360   2.5518890
  19.8876120  86.3465720   3.1144320  19.1987540  85.7622330   1.8995660
  17.8159610  83.8909430   3.2351780  17.8963200  82.9436940   3.3469180
  18.7079360  84.2216310   3.3412440  31.1456790  91.9473610  10.6669190
  31.2704210  92.7704780  11.1393000  32.0122350  91.7364340  10.3193340
  15.5019800  90.1078390   6.2127830  14.5759580  90.3499530   6.2033240
  15.9676230  90.9352650   6.0912580  17.6232600  93.2250890  19.5271900
  18.4245330  93.5462940  19.9407300  17.1084420  92.8646470  20.2491810
  26.4597230  89.3330760  19.4747310  25.8535390  89.3562360  18.7343060
  26.1551340  88.6013800  20.0114560  27.8897600  93.0611050  18.0856720
  28.8419350  92.9769070  18.0356960  27.7425820  93.7252760  18.7590510
  30.7806800  92.4405260   3.5848630  30.4948310  92.0270400   2.7702810
  30.5826350  93.3692970   3.4649150  15.3430410  85.7124350  18.4707950
  15.8469430  85.1331630  19.0424180  14.6037830  85.9964580  19.0084320
  22.3968350  87.1195340  18.0043470  21.6314020  87.6880340  17.9198140
  22.5784310  86.8271550  17.1111700  25.4856760  87.4958570   2.6296230
  24.9366860  87.9427870   3.2738970  26.1076020  86.9907820   3.1533900
  29.5391700  88.8500670  18.5618490  30.2801170  89.1876430  18.0585950
  28.7764380  89.0192730  18.0088260  17.3753490  83.8553940  19.3658020
  17.4158830  83.5567810  20.2743250  18.2298990  84.2561550  19.2065540
  21.1531880  86.4549490   4.5261530  21.5748300  86.2889360   5.3692920
  21.2782720  85.6449720   4.0316670  19.3159300  82.4346040  17.3332510
  18.7855760  81.9436990  16.7055850  19.9847370  82.8630240  16.7990440
  28.2137360  86.9015500  17.0973700  28.6278380  87.0560580  17.9464120
  27.2788360  87.0270720  17.2599480  28.6859530  84.2411660  19.1012850
  29.2680300  83.4863980  19.0133330  28.8621300  84.7719100  18.3244330
  19.8031600  79.4008410  17.4129800  19.7088470  78.7829160  16.6880670
  19.2228990  80.1274700  17.1859710  22.5693040  77.9581650  14.4457190
  22.1210340  77.9805910  13.6002740  21.9358240  77.5600670  15.0427490
  22.9752590  86.8535980  15.0669630  23.3940700  87.6968710  14.8945870
  22.0561220  86.9908020  14.8376410  25.3116490  84.5852160  16.4507470
  25.4312700  83.9893300  17.1902310  26.1710490  84.6221850  16.0308770
  27.6504390  85.1389350  15.0269980  27.1239610  85.6631970  14.4235120
  27.9935730  85.7716740  15.6579710  22.0785260  81.1273510  17.7083290
  22.6684950  80.8189360  18.3961110  21.2605500  80.6553260  17.8643190
  26.8978690  80.7439320  17.9416310  26.2094210  80.0820860  17.8766300
  27.6184710  80.2977590  18.3864770  27.5279090  77.3390950   4.0006570
  27.8081380  76.4958850   4.3565990  26.7544820  77.5714060   4.5145320
  22.0658510  78.5717960   2.4453770  21.7180510  77.8941950   1.8656220
  22.2671280  78.1107470   3.2597160  17.8703710  88.9325760   2.2927370
  18.3078580  89.4755430   2.9484950  18.3551440  88.1072710   2.3023710
  15.0849510  91.7214790   9.7447630  15.4152520  90.8535850   9.5126270
  15.5140510  91.9273310  10.5752590  19.6811430  90.0523800   7.4049600
  19.3806970  89.9288770   8.3053510  19.5748920  89.1932390   6.9965330
  15.5739720  92.5885380  12.4829260  15.1370710  92.7686180  13.3153410
  16.1417400  93.3460000  12.3410980  31.2101900  92.0902380  16.7706570
  30.6103890  92.1494940  16.0270490  31.3395800  91.1507360  16.9003420
  32.4503350  89.8320200   2.1076280  31.6196310  89.8996850   2.5783510
  32.6275180  90.7224320   1.8043140  31.9059810  86.5767680   4.6110480
  32.6678720  87.1464330   4.7170170  31.9214180  86.0094880   5.3818790
  15.4064150  85.1005610   8.8418140  14.7512990  84.8317250   8.1977840
  16.2442100  84.9910090   8.3920120  32.9119780  87.4317780   9.4552410
  33.2828610  86.6485100   9.0488380  33.5521710  88.1206880   9.2769710
  29.8953540  88.8154360  14.8682730  29.0813380  89.2451520  15.1308520
  30.3027740  89.4272770  14.2551780  31.9578980  86.8702050   1.7683000
  32.2327820  87.7780930   1.6402220  31.7689720  86.8064580   2.7044990
  28.3554590  79.8946900   3.0636630  28.7739470  79.7077880   2.2233290
  28.0490650  79.0425950   3.3739560  31.8544320  84.8071040   6.7612430
  31.4787920  84.0398970   6.3293720  31.1247440  85.1893740   7.2487360
  16.4440080  85.4858180  13.3821480  16.8113120  85.3985580  14.2617500
  15.8750900  84.7224730  13.2828340  31.2443940  83.9542560  16.3951950
  31.0130030  83.7255310  15.4949900  31.5048490  84.8742110  16.3496840
  15.9956080  82.3967270  17.2879900  15.1012130  82.3634030  17.6273610
  16.5353630  82.5954060  18.0531150  29.6832010  79.1798990  19.1731650
  30.5602190  79.1882390  19.5565650  29.6952850  78.4429830  18.5624000
  14.6202230  82.3104540   4.7843470  13.7166310  82.5734740   4.6095130
  15.1042850  82.5815710   4.0043430  31.1295280  83.0328530  10.0619670
  31.6532760  82.5391180   9.4309840  31.7154700  83.1678890  10.8067240
  31.3085000  83.1168400  13.5839220  30.3587710  83.0831940  13.6984210
  31.4898010  84.0268510  13.3488990  17.1629440  81.3670080   2.6937850
  17.8721140  80.9453300   2.2085130  16.4469380  81.4345310   2.0621200
  30.6195250  82.2901880   6.0012080  31.1154370  82.0572750   6.7860960
  30.4211320  81.4513720   5.5849720  16.4995790  76.6715600  11.6363120
  17.1471980  76.1212980  11.1958280  16.9197630  76.9258750  12.4578930
  32.0482410  80.9262830   8.5349760  31.9381690  80.7718870   9.4732030
  32.8090000  80.3983770   8.2925170  30.3948130  76.8656960  14.9932760
  31.0320350  77.4791100  15.3591950  30.5423020  76.9017620  14.0481990
  32.9372680  78.7570750   1.7755900  33.8621990  78.6251930   1.5674190
  32.9148470  78.8363570   2.7292350  33.0111170  79.5281410   4.4012610
  32.2162670  79.4626530   4.9305520  33.2154450  80.4632050   4.3897960
  29.9529590  93.5672960   8.3951000  30.5488660  93.2457530   7.7185420
  30.2107740  93.0944780   9.1864270  16.2527790  76.8271270  14.3788440
  15.9042610  77.2835090  15.1446620  15.9215490  75.9328400  14.4610870
  17.8592160  89.9990870  18.5441630  17.8161790  89.6283780  19.4256090
  17.9903170  90.9368440  18.6843450  21.5598190  91.5550460  14.1451350
  21.3189550  91.8225020  13.2581870  22.5000830  91.7256190  14.2002210
  23.7652610  78.0183150  17.9007860  23.7041500  78.6104980  18.6503270
  24.7052990  77.9109110  17.7558120  26.4027170  77.6753210  17.5400150
  27.0167580  77.9932500  16.8781230  26.9476730  77.1901800  18.1596010
  16.9248430  76.3547470  17.6539210  17.4731420  76.1735520  16.8905320
  16.9903740  75.5641580  18.1895520  17.6980190  92.9453120  15.6639410
  17.1040510  92.8137820  16.4029450  17.6904030  92.1091260  15.1981510
  27.1435210  76.2385350  13.8669440  26.2695050  76.5720460  13.6642370
  27.0345960  75.7658530  14.6921310  28.0507190  78.4456220  15.2511160
  27.7220550  77.6307980  14.8712890  28.9989490  78.4026030  15.1276850
  17.3292420  90.3111500  14.6147450  16.6026480  89.6916790  14.5473400
  17.3901570  90.7052110  13.7445530  20.9337520  92.5256500  11.3996860
  21.4502540  91.9143860  10.8745120  21.5834900  93.0285280  11.8907870
  23.6733020  93.4164990  12.2265840  23.9610830  93.1619290  11.3498850
  24.1856240  92.8642350  12.8171410  24.8910030  77.1555190  12.8062350
  24.1081820  77.6300690  13.0859110  24.5972960  76.2510020  12.6975530
  29.4431100  77.8578290  10.8511440  29.8839190  77.8023390  10.0033040
  29.1738690  78.7736300  10.9221620  31.3069670  77.4893530   8.8620260
  31.2458070  76.5454750   8.7151280  32.0861700  77.5973620   9.4073720
  16.2350440  77.4602670   5.3276070  16.9929800  77.5731550   4.7540100
  15.7727610  78.2971870   5.2819500  22.7764250  79.5741940   8.3178380
  21.9638760  79.1998830   7.9774260  23.2805890  78.8187020   8.6199570
  27.2789230  76.2384390   9.5561450  27.8818600  76.8104600  10.0309970
  26.5382220  76.8023830   9.3335350  30.4223830  76.6405950   4.8301730
  30.6174460  77.5389400   5.0969160  29.6353700  76.4093030   5.3234680
  17.2185120  92.3219120   5.2694350  16.6932740  92.7027150   4.5656310
  17.1429700  92.9469890   5.9904060  18.6075590  77.9866720   3.8678040
  19.1368350  77.1996520   3.7385990  19.2403910  78.6657910   4.1013570
  20.8013430  77.7241860   6.9223430  20.1716170  77.0229170   7.0893560
  20.2618570  78.4845990   6.7056590  20.9268990  77.0025840  19.3575920
  20.6453260  77.5059440  18.5936740  21.3088690  76.2047590  18.9918050
  18.9792880  90.3866230   4.1489930  18.3501760  90.8551330   4.6975760
  19.0940710  89.5415450   4.5836120  27.5284450  76.4179420  19.9356390
  27.4149900  76.7374030  20.8307910  28.3454190  76.8191930  19.6393670
  26.4342600  65.6628400  65.3965090  26.3536650  64.7483010  65.1256800
  26.0207020  66.1595470  64.6904800  24.5660640  67.4407420  67.2774360
  23.7902740  66.9607860  67.5672930  25.2173570  66.7613070  67.1030520
  18.5826470  67.7527230  68.1550120  17.7511350  67.4975940  68.5546630
  19.1907450  67.8238000  68.8908040  28.5868070  71.8467610  66.0573490
  28.1249600  71.0754850  66.3860660  29.3993620  71.8733680  66.5625940
  18.5627730  71.7867320  68.3508140  18.8655770  70.8965060  68.1718360
  19.3071320  72.3437540  68.1230390  16.9918420  62.7129120  61.9392510
  16.1035120  63.0545090  61.8372390  17.2759610  62.5129440  61.0473340
  14.9551430  65.3134770  67.8232210  15.5267540  64.5456970  67.8235850
  14.9552970  65.6123530  66.9138820  24.8131380  74.1325620  65.6777480
  24.1942820  74.5883120  65.1071920  25.6683160  74.2877080  65.2767180
  24.0069630  70.1164610  67.2844520  23.9377910  69.1754550  67.1233650
  24.7689490  70.2066020  67.8567090  16.1976300  60.7219130  69.6101140
  16.0179140  59.8244880  69.8903900  15.7956380  61.2691000  70.2848090
  25.0374800  62.9234990  67.5113450  25.4139620  62.0506870  67.3987120
  24.9394310  63.2593690  66.6203890  19.1679810  61.2960620  62.9730890
  19.2746560  62.1964350  63.2799650  18.2572170  61.2478590  62.6825540
  28.8198920  60.4185430  64.4441790  29.6408540  59.9282000  64.4867270
  28.8533000  61.0083090  65.1973630  16.8162970  63.2179630  68.2183480
  17.4973080  63.4818000  68.8370880  16.5011020  62.3780500  68.5521490
  21.0087540  64.2646990  67.3056070  21.5165760  64.7627960  67.9461090
  21.5400780  63.4882190  67.1295430  33.1098470  62.4352180  71.0085420
  32.4050640  62.8233890  70.4900530  33.3756390  63.1302470  71.6106350
  19.2923640  58.9045550  71.5719490  19.2942080  59.4217940  70.7665390
  18.4627950  58.4275730  71.5489420  25.6794730  69.0164860  63.0709390
  25.0612000  69.4814310  62.5072110  26.1917980  69.7092340  63.4878900
  20.5426490  68.5440730  69.7492990  20.2095870  69.1709650  70.3914060
  20.7193170  69.0702610  68.9694660  29.0560400  62.3585810  67.2169330
  28.3515970  62.6470700  67.7972440  29.4172560  63.1685920  66.8568890
  18.9738970  60.6155510  69.5789940  19.3155780  61.4597560  69.2843810
  18.0354780  60.7639250  69.6955280  19.7545590  70.5121530  71.5642170
  20.3719590  71.1872610  71.2826620  18.8938710  70.9209510  71.4729670
  15.0477930  69.7021390  60.4449020  14.6705910  70.1908490  59.7133920
  15.3051000  70.3746670  61.0755550  30.6723180  71.9760940  69.4796810
  29.9886700  72.6460050  69.4713480  31.2117470  72.1741590  68.7141670
  32.1247320  61.8040600  67.6078540  31.1772230  61.8379580  67.7393970
  32.4497310  62.6179550  67.9927900  22.6566860  58.1037780  65.9034530
  22.9641840  57.5484670  65.1870030  21.7267560  58.2382240  65.7207520
  28.2081920  73.8205070  68.1941990  28.2209080  73.4167360  67.3264250
  27.6557140  74.5952360  68.0903420  29.5027340  70.5421290  63.2832160
  29.3923670  69.5995620  63.4081580  29.4995590  70.9036930  64.1694920
  27.6067360  68.7234910  69.5224600  28.0236150  68.5095020  68.6878060
  28.3307180  68.9807700  70.0933220  25.0447620  66.1686610  62.6394650
  24.1176900  66.1023990  62.8683120  25.1972440  67.1066740  62.5249890
  25.0316700  62.4403610  59.6361810  24.0920370  62.6017570  59.7214270
  25.3499960  63.1589290  59.0897800  31.5529460  67.1222130  69.6140840
  30.7248090  67.1915220  69.1390970  32.1479940  67.7076440  69.1456670
  29.0744910  67.7306910  63.1429900  28.4557330  67.3926460  62.4956200
  29.0569360  67.0866670  63.8509090  28.5171470  63.9091450  70.5595710
  28.1042650  64.7345160  70.8135700  27.7847420  63.3236490  70.3672070
  20.6504260  66.6951350  65.4214380  20.2461260  65.9828600  64.9260280
  20.7367380  66.3504590  66.3102420  21.1185960  70.3818910  67.5853590
  20.8214250  69.7764380  66.9061370  22.0685780  70.4196220  67.4742950
  19.3632880  63.4694560  69.2013420  19.9147470  63.5789900  68.4266670
  19.8776390  63.8432160  69.9168650  29.2071570  73.9550780  71.2476690
  28.7302130  74.7622970  71.0549300  28.5233360  73.3029110  71.4002900
  20.2104390  70.1200600  74.2361390  19.3132920  70.3440570  74.4834790
  20.2357260  70.2435540  73.2872790  27.2509610  66.9693720  60.1502650
  27.6902890  66.1316150  60.0040470  27.9638030  67.6023120  60.2366790
  19.0375610  66.9913920  72.8118760  18.8983380  67.8636720  73.1806160
  18.1556970  66.6486730  72.6666700  25.3604990  71.9089790  64.1183890
  25.8000900  72.6514120  63.7039280  25.2991880  72.1516360  65.0422850
  20.8355960  72.9335620  75.0203910  20.8071390  73.3378570  74.1532340
  20.6720930  72.0045980  74.8575510  30.8326750  58.2236530  58.4643690
  30.5199410  58.3163360  59.3642760  31.5939220  58.8017560  58.4141120
  17.3508890  65.5896330  62.9221030  17.2306490  66.3158420  62.3102300
  17.0409780  64.8199240  62.4448940  14.9894260  68.7611470  68.7289670
  15.0674680  68.8960240  67.7845390  15.6035940  68.0527360  68.9217790
  16.2341890  70.4611660  65.1395850  15.8269970  70.6026250  64.2849450
  17.1254900  70.1771820  64.9367060  32.1904030  70.9075570  73.4768090
  32.3167090  70.6687450  72.5585270  32.2325410  70.0760110  73.9490170
  26.0520770  74.6103570  72.0462900  26.5665440  74.5211580  72.8485330
  25.2089850  74.9563270  72.3390810  28.0275170  74.8958910  61.4746900
  27.8676310  74.6061850  62.3728730  27.8621880  74.1199040  60.9392130
  20.5063550  74.6757440  63.2518520  20.3306030  73.7592980  63.0386320
  19.6519290  75.0344730  63.4916320  27.7301300  72.4046470  60.0344900
  27.0366460  72.4023760  59.3747180  28.4724160  71.9805790  59.6039070
  27.2951230  74.0309180  64.1093390  27.7508180  73.2498560  64.4232010
  27.6343750  74.7416000  64.6534570  32.0428040  62.9608030  74.4417830
  31.4272310  63.4687700  73.9133290  31.7224460  62.0606360  74.3843770
  15.0453780  69.8025640  71.2684130  15.2084820  69.3331000  70.4503500
  15.5106230  69.2949200  71.9332970  19.8172550  58.9331400  66.3044700
  19.3740700  59.7140940  65.9729220  20.3757540  59.2561290  67.0115640
  24.1042360  61.7999920  71.9080020  23.6421730  62.0082940  72.7199960
  23.7020470  60.9859270  71.6050690  29.1046870  63.0208870  73.0376680
  28.2540460  62.7214620  73.3585750  28.9448660  63.2650880  72.1260500
  26.1996580  64.5210620  75.1375470  26.5249990  63.6874370  74.7977700
  26.9876910  65.0439140  75.2853800  22.9331370  58.5542100  61.1850530
  22.3085550  58.5501970  61.9103840  22.8461490  57.6873060  60.7886500
  21.8548450  59.4778730  68.1634300  22.1520780  60.3841560  68.0826320
  22.4034010  58.9897510  67.5493870  19.6086770  64.0564970  64.0325950
  19.3827690  63.8402140  64.9372570  18.8279300  64.4893430  63.6871920
  26.8384530  64.0628340  62.6316600  26.2393420  64.7864140  62.4480220
  27.3864140  64.0005120  61.8493050  22.0485980  64.9550550  74.6986220
  21.9529580  64.0145280  74.5486620  22.8917960  65.1765620  74.3034290
  25.4449400  62.6991880  64.6619880  25.8378970  63.0164080  63.8488570
  25.8066250  61.8203760  64.7764400  17.1796520  61.3664220  72.8520000
  16.7859910  62.2139430  73.0592780  16.4914920  60.7290590  73.0428640
  14.4813570  59.2892680  66.8850080  14.1926620  59.8595540  67.5975060
  15.2259330  58.8097130  67.2481310  14.6683800  63.2312800  58.0952800
  14.5858470  64.1743560  58.2367790  14.3166860  63.0887710  57.2165150
  26.0304540  65.2897630  68.7570660  25.2985660  65.7984440  69.1060760
  25.6328880  64.4727610  68.4559440  22.4681930  61.9651830  67.1623150
  22.4717990  61.5241780  66.3127690  23.3633050  62.2869160  67.2694970
  18.3184310  61.8478320  66.1217360  17.9784360  62.3253550  66.8784410
  17.5561630  61.3943440  65.7618460  22.5302080  62.9663910  60.1529910
  22.6514900  62.9250390  61.1015730  22.1450590  63.8288060  59.9976640
  26.4930450  60.7431310  68.1693600  26.5103190  61.1939960  69.0135450
  26.2446030  59.8436950  68.3827040  21.5423580  65.2765050  59.5513210
  20.9740480  64.8283300  58.9249120  22.2512580  65.6357830  59.0178360
  29.9201200  58.1563490  74.0079980  30.2446970  57.4253150  74.5337960
  29.9557710  57.8377130  73.1060970  16.6192760  69.1777070  73.4279940
  16.2347550  68.5370740  74.0262900  16.9304950  69.8813190  73.9974670
  22.7689900  66.0253610  68.9088560  23.1360030  65.5512180  69.6549900
  22.5794960  66.8995180  69.2496900  15.6330390  60.7697300  65.0382030
  15.3477310  60.4052970  65.8760650  15.5709250  60.0377760  64.4245170
  20.5589270  65.0662250  71.2272770  20.2546340  65.9454230  71.4523130
  21.5135730  65.1262040  71.2630210  19.0871060  69.2723240  61.8239620
  18.3133320  68.7320860  61.6638340  19.8165690  68.7529850  61.4857380
  29.8459040  68.2688600  67.6166010  30.5658160  68.7643890  67.2262120
  29.6440860  67.5906490  66.9719880  25.3068980  59.6626560  61.7595400
  24.4933590  59.1639730  61.6840710  25.1130930  60.5024810  61.3431750
  25.2277840  68.3397660  73.5035010  25.1615150  67.4193330  73.2492600
  24.5982980  68.4373100  74.2179650  28.0217370  64.0346210  60.0557560
  28.9096990  64.3463440  59.8808900  27.9922460  63.1618460  59.6638140
  19.1308460  68.9403620  65.4618430  19.6487130  68.1371880  65.4075320
  18.6792480  68.8782760  66.3035260  24.0177960  70.2069900  60.7345730
  24.3593660  70.9512130  60.2389050  23.1890670  70.5201020  61.0970560
  16.6153000  65.9064990  72.3744130  16.2567940  66.5718840  72.9617470
  16.3207560  65.0748540  72.7456750  19.8166120  66.3649230  75.2583680
  19.5166260  66.5106410  74.3611500  20.5877360  65.8054520  75.1657070
  25.1594570  71.1618230  73.2538810  25.1739110  70.2299190  73.0357720
  24.4519670  71.2477990  73.8928580  30.2931640  65.3458050  59.5237420
  30.2095360  65.7772270  58.6733860  31.0125830  65.8056400  59.9564240
  31.3705780  67.8025570  72.6007390  30.6453970  68.3954350  72.4036780
  31.8981240  67.7949110  71.8020760  31.3218890  72.2000310  62.2519550
  30.6795050  71.5455930  62.5263270  30.9349550  72.6055400  61.4760220
  26.9005370  69.5285740  66.0991240  27.2529190  68.9313870  65.4392610
  26.0167700  69.2029970  66.2699490  22.9868650  70.2883430  63.5061650
  23.6739780  70.8352640  63.8869240  22.2001070  70.8324160  63.5411260
  15.1261050  65.9056250  58.9978730  15.9955900  66.1881050  59.2814650
  14.6351370  66.7192120  58.8827540  22.2895860  67.2929460  63.1187010
  22.7458640  68.1034710  63.3447200  21.9384070  66.9752600  63.9505500
  24.5928470  72.8035800  70.3479310  25.2370690  73.0095180  71.0252730
  24.9557910  72.0424200  69.8950160  18.1907640  57.6367110  63.5909530
  18.0622270  57.6285010  64.5394450  17.3669660  57.9750200  63.2400540
  25.8660550  70.8068150  69.0656760  26.5082780  70.1061310  69.1788930
  26.3909900  71.5866590  68.8853650  29.7116270  71.0916770  58.7895900
  29.4853850  70.3747210  59.3820540  29.3212470  70.8429210  57.9517650
  27.6398170  71.6063050  72.2692820  27.9754410  72.1929740  72.9470740
  26.7198510  71.4755760  72.4990610  15.4932300  75.1183630  59.5640360
  15.8529940  75.7172970  58.9097630  15.3524640  75.6643520  60.3375390
  15.1901570  59.3958230  73.0516230  14.4760090  59.5955150  73.6568840
  15.6096610  58.6197800  73.4231030  29.2932520  69.0088710  60.4510060
  29.0054220  69.4701400  61.2387940  30.0884690  68.5486480  60.7194280
  15.4774160  73.3838490  74.0382760  15.5865280  72.4433230  73.8978150
  14.8254720  73.6493240  73.3896490  23.4686750  71.6554380  75.4380880
  23.1483620  70.9363620  75.9826570  22.7945110  72.3309450  75.5116940
  21.5100920  72.5014830  60.3814030  21.5011020  73.2344520  59.7658540
  20.5899280  72.2546410  60.4740990  17.1107560  67.7229720  61.1260790
  16.5035510  68.4628620  61.1356090  17.5856910  67.8129080  60.2998990
  26.6840350  61.8880540  70.8017680  27.0521170  61.0675750  71.1297250
  25.8238550  61.9482430  71.2173330  30.0502380  60.8437480  61.6105240
  29.4215540  60.9483150  60.8963470  29.5554300  61.0634260  62.3999120
  24.4960520  72.5643070  59.0439220  24.5972500  72.3607060  58.1141200
  23.5962260  72.3101350  59.2487000  22.0186410  63.1223430  63.0263120
  21.3102560  63.5909770  63.4676730  22.3030890  62.4645440  63.6608310
  23.6442340  64.5420130  71.0255650  24.1427590  65.0165950  71.6907500
  23.7865290  63.6183650  71.2325680  26.0501840  59.8474090  64.4658910
  25.9269620  59.8660220  63.5168420  26.9986400  59.8953030  64.5857310
  23.1378630  75.0829390  63.7386890  23.3920130  75.0450780  62.8166260
  22.1891110  74.9562720  63.7315140  20.2221430  61.4308510  60.4013830
  21.0711960  61.8678660  60.3354020  19.8552700  61.7428770  61.2285890
  30.8509200  60.7588090  71.8684040  30.3482800  61.4993490  72.2077850
  31.6665860  61.1472090  71.5520830  29.1431210  66.0021270  65.3145400
  28.2021350  66.0171500  65.4893090  29.4575280  65.2157230  65.7605700
  19.1212850  67.6840870  58.8749360  19.8876120  67.5722230  59.4374790
  19.1987540  66.9878840  58.2226130  17.8159610  65.1165940  59.5582250
  17.8963200  64.1693450  59.6699650  18.7079360  65.4472820  59.6642910
  31.1456790  73.1730120  66.9899660  31.2704210  73.9961290  67.4623470
  32.0122350  72.9620850  66.6423810  18.6174320  75.2661330  66.6616790
  19.3536800  74.7176790  66.9325360  19.0015240  76.1317340  66.5222780
  15.5019800  71.3334900  62.5358300  14.5759580  71.5756040  62.5263710
  15.9676230  72.1609160  62.4143050  21.7276630  74.4391640  58.4842360
  22.5205240  74.7280470  58.0324150  21.2080980  74.0083810  57.8054840
  27.8897600  74.2867560  74.4087190  28.8419350  74.2025580  74.3587430
  27.7425820  74.9509270  75.0820980  30.7806800  73.6661770  59.9079100
  30.4948310  73.2526910  59.0933280  30.5826350  74.5949480  59.7879620
  15.3430410  66.9380860  74.7938420  15.8469430  66.3588140  75.3654650
  14.6037830  67.2221090  75.3314790  22.2454030  69.6595050  58.3484710
  22.1404670  69.0447400  59.0746090  22.0778250  69.1360940  57.5647720
  22.3968350  68.3451850  74.3273940  21.6314020  68.9136850  74.2428610
  22.5784310  68.0528060  73.4342170  25.4856760  68.7215080  58.9526700
  24.9366860  69.1684380  59.5969440  26.1076020  68.2164330  59.4764370
  29.5391700  70.0757180  74.8848960  30.2801170  70.4132940  74.3816420
  28.7764380  70.2449240  74.3318730  21.1531880  67.6806000  60.8492000
  21.5748300  67.5145870  61.6923390  21.2782720  66.8706230  60.3547140
  19.3159300  63.6602550  73.6562980  18.7855760  63.1693500  73.0286320
  19.9847370  64.0886750  73.1220910  23.6659520  66.7043610  58.0969100
  24.1865180  65.9892630  57.7310250  24.3127920  67.3429480  58.3969610
  28.2137360  68.1272010  73.4204170  28.6278380  68.2817090  74.2694590
  27.2788360  68.2527230  73.5829950  28.6859530  65.4668170  75.4243320
  29.2680300  64.7120490  75.3363800  28.8621300  65.9975610  74.6474800
  19.8031600  60.6264920  73.7360270  19.7088470  60.0085670  73.0111140
  19.2228990  61.3531210  73.5090180  22.5693040  59.1838160  70.7687660
  22.1210340  59.2062420  69.9233210  21.9358240  58.7857180  71.3657960
  22.9752590  68.0792490  71.3900100  23.3940700  68.9225220  71.2176340
  22.0561220  68.2164530  71.1606880  25.3116490  65.8108670  72.7737940
  25.4312700  65.2149810  73.5132780  26.1710490  65.8478360  72.3539240
  27.6504390  66.3645860  71.3500450  27.1239610  66.8888480  70.7465590
  27.9935730  66.9973250  71.9810180  20.0490780  63.7539230  57.7950160
  19.8479840  62.8906590  58.1563500  19.8782830  63.6672590  56.8571760
  20.8260010  74.3845500  72.5057830  20.2881100  75.1091560  72.1866530
  21.0793970  73.9075840  71.7155170  22.0785260  62.3530020  74.0313760
  22.6684950  62.0445870  74.7191580  21.2605500  61.8809770  74.1873660
  26.8978690  61.9695830  74.2646780  26.2094210  61.3077370  74.1996770
  27.6184710  61.5234100  74.7095240  27.5279090  58.5647460  60.3237040
  27.8081380  57.7215360  60.6796460  26.7544820  58.7970570  60.8375790
  18.8473580  60.8539850  57.7828040  19.1499480  60.8607280  56.8747190
  19.5868170  60.5037710  58.2795700  23.6822220  75.6196710  72.7644480
  23.6080920  76.5231850  73.0716850  22.7801060  75.3008610  72.7366550
  22.0658510  59.7974470  58.7684240  21.7180510  59.1198460  58.1886690
  22.2671280  59.3363980  59.5827630  24.2307550  74.7855220  60.3870840
  25.1258340  75.1240190  60.4089600  24.2625180  74.0634630  59.7595120
  17.8703710  70.1582270  58.6157840  18.3078580  70.7011940  59.2715420
  18.3551440  69.3329220  58.6254180  15.0849510  72.9471300  66.0678100
  15.4152520  72.0792360  65.8356740  15.5140510  73.1529820  66.8983060
  19.6811430  71.2780310  63.7280070  19.3806970  71.1545280  64.6283980
  19.5748920  70.4188900  63.3195800  15.5739720  73.8141890  68.8059730
  15.1370710  73.9942690  69.6383880  16.1417400  74.5716510  68.6641450
  31.2101900  73.3158890  73.0937040  30.6103890  73.3751450  72.3500960
  31.3395800  72.3763870  73.2233890  32.4503350  71.0576710  58.4306750
  31.6196310  71.1253360  58.9013980  32.6275180  71.9480830  58.1273610
  31.9059810  67.8024190  60.9340950  32.6678720  68.3720840  61.0400640
  31.9214180  67.2351390  61.7049260  15.4064150  66.3262120  65.1648610
  14.7512990  66.0573760  64.5208310  16.2442100  66.2166600  64.7150590
  32.9119780  68.6574290  65.7782880  33.2828610  67.8741610  65.3718850
  33.5521710  69.3463390  65.6000180  29.8953540  70.0410870  71.1913200
  29.0813380  70.4708030  71.4538990  30.3027740  70.6529280  70.5782250
  31.9578980  68.0958560  58.0913470  32.2327820  69.0037440  57.9632690
  31.7689720  68.0321090  59.0275460  28.3554590  61.1203410  59.3867100
  28.7739470  60.9334390  58.5463760  28.0490650  60.2682460  59.6970030
  31.8544320  66.0327550  63.0842900  31.4787920  65.2655480  62.6524190
  31.1247440  66.4150250  63.5717830  16.4440080  66.7114690  69.7051950
  16.8113120  66.6242090  70.5847970  15.8750900  65.9481240  69.6058810
  31.2443940  65.1799070  72.7182420  31.0130030  64.9511820  71.8180370
  31.5048490  66.0998620  72.6727310  15.9956080  63.6223780  73.6110370
  15.1012130  63.5890540  73.9504080  16.5353630  63.8210570  74.3761620
  29.6832010  60.4055500  75.4962120  30.5602190  60.4138900  75.8796120
  29.6952850  59.6686340  74.8854470  14.6202230  63.5361050  61.1073940
  13.7166310  63.7991250  60.9325600  15.1042850  63.8072220  60.3273900
  31.1295280  64.2585040  66.3850140  31.6532760  63.7647690  65.7540310
  31.7154700  64.3935400  67.1297710  31.3085000  64.3424910  69.9069690
  30.3587710  64.3088450  70.0214680  31.4898010  65.2525020  69.6719460
  17.1629440  62.5926590  59.0168320  17.8721140  62.1709810  58.5315600
  16.4469380  62.6601820  58.3851670  16.8103600  58.6465920  58.0570970
  17.5331730  59.1874860  58.3752190  17.0828120  58.3729340  57.1812510
  30.6195250  63.5158390  62.3242550  31.1154370  63.2829260  63.1091430
  30.4211320  62.6770230  61.9080190  16.4995790  57.8972110  67.9593590
  17.1471980  57.3469490  67.5188750  16.9197630  58.1515260  68.7809400
  32.0482410  62.1519340  64.8580230  31.9381690  61.9975380  65.7962500
  32.8090000  61.6240280  64.6155640  30.3948130  58.0913470  71.3163230
  31.0320350  58.7047610  71.6822420  30.5423020  58.1274130  70.3712460
  32.9372680  59.9827260  58.0986370  33.8621990  59.8508440  57.8904660
  32.9148470  60.0620080  59.0522820  33.0111170  60.7537920  60.7243080
  32.2162670  60.6883040  61.2535990  33.2154450  61.6888560  60.7128430
  29.9529590  74.7929470  64.7181470  30.5488660  74.4714040  64.0415890
  30.2107740  74.3201290  65.5094740  16.2527790  58.0527780  70.7018910
  15.9042610  58.5091600  71.4677090  15.9215490  57.1584910  70.7841340
  17.8592160  71.2247380  74.8672100  17.8161790  70.8540290  75.7486560
  17.9903170  72.1624950  75.0073920  21.5598190  72.7806970  70.4681820
  21.3189550  73.0481530  69.5812340  22.5000830  72.9512700  70.5232680
  23.7652610  59.2439660  74.2238330  23.7041500  59.8361490  74.9733740
  24.7052990  59.1365620  74.0788590  26.4027170  58.9009720  73.8630620
  27.0167580  59.2189010  73.2011700  26.9476730  58.4158310  74.4826480
  32.8202350  74.8001350  71.2692460  32.3260630  75.1970220  70.5519590
  32.2115640  74.1750560  71.6629740  16.9248430  57.5803980  73.9769680
  17.4731420  57.3992030  73.2135790  16.9903740  56.7898090  74.5125990
  17.6980190  74.1709630  71.9869880  17.1040510  74.0394330  72.7259920
  17.6904030  73.3347770  71.5211980  27.1435210  57.4641860  70.1899910
  26.2695050  57.7976970  69.9872840  27.0345960  56.9915040  71.0151780
  28.0507190  59.6712730  71.5741630  27.7220550  58.8564490  71.1943360
  28.9989490  59.6282540  71.4507320  30.5041800  75.4424770  68.5479200
  30.0444770  76.1940580  68.1737220  29.8754260  74.7231240  68.4894000
  17.3292420  71.5368010  70.9377920  16.6026480  70.9173300  70.8703870
  17.3901570  71.9308620  70.0676000  20.9337520  73.7513010  67.7227330
  21.4502540  73.1400370  67.1975590  21.5834900  74.2541790  68.2138340
  23.6733020  74.6421500  68.5496310  23.9610830  74.3875800  67.6729320
  24.1856240  74.0898860  69.1401880  24.8910030  58.3811700  69.1292820
  24.1081820  58.8557200  69.4089580  24.5972960  57.4766530  69.0206000
  29.4431100  59.0834800  67.1741910  29.8839190  59.0279900  66.3263510
  29.1738690  59.9992810  67.2452090  31.3069670  58.7150040  65.1850730
  31.2458070  57.7711260  65.0381750  32.0861700  58.8230130  65.7304190
  15.6122420  74.8542400  64.1474680  15.4444460  74.2213080  64.8456570
  14.7456930  75.0601800  63.7968870  16.2350440  58.6859180  61.6506540
  16.9929800  58.7988060  61.0770570  15.7727610  59.5228380  61.6049970
  22.7764250  60.7998450  64.6408850  21.9638760  60.4255340  64.3004730
  23.2805890  60.0443530  64.9430040  27.2789230  57.4640900  65.8791920
  27.8818600  58.0361110  66.3540440  26.5382220  58.0280340  65.6565820
  30.4223830  57.8662460  61.1532200  30.6174460  58.7645910  61.4199630
  29.6353700  57.6349540  61.6465150  17.2185120  73.5475630  61.5924820
  16.6932740  73.9283660  60.8886780  17.1429700  74.1726400  62.3134530
  18.6075590  59.2123230  60.1908510  19.1368350  58.4253030  60.0616460
  19.2403910  59.8914420  60.4244040  20.8013430  58.9498370  63.2453900
  20.1716170  58.2485680  63.4124030  20.2618570  59.7102500  63.0287060
  23.7405380  75.5637600  75.9164510  24.6672690  75.3281870  75.9600470
  23.7255810  76.3909600  75.4350540  31.9750440  75.1063170  62.9138760
  32.1502630  74.4200910  62.2699680  31.2772010  75.6310220  62.5215430
  20.9268990  58.2282350  75.6806390  20.6453260  58.7315950  74.9167210
  21.3088690  57.4304100  75.3148520  19.8178090  75.4958010  60.4674070
  20.5496910  75.2117290  59.9197960  20.0771760  75.2571290  61.3573450
  18.9792880  71.6122740  60.4720400  18.3501760  72.0807840  61.0206230
  19.0940710  70.7671960  60.9066590  26.4342600  65.6628400  46.6221600
  26.3536650  64.7483010  46.3513310  26.0207020  66.1595470  45.9161310
  24.5660640  67.4407420  48.5030870  23.7902740  66.9607860  48.7929440
  25.2173570  66.7613070  48.3287030  18.5826470  67.7527230  49.3806630
  17.7511350  67.4975940  49.7803140  19.1907450  67.8238000  50.1164550
  28.5868070  71.8467610  47.2830000  28.1249600  71.0754850  47.6117170
  29.3993620  71.8733680  47.7882450  18.5627730  71.7867320  49.5764650
  18.8655770  70.8965060  49.3974870  19.3071320  72.3437540  49.3486900
  16.9918420  62.7129120  43.1649020  16.1035120  63.0545090  43.0628900
  17.2759610  62.5129440  42.2729850  14.9551430  65.3134770  49.0488720
  15.5267540  64.5456970  49.0492360  14.9552970  65.6123530  48.1395330
  24.8131380  74.1325620  46.9033990  24.1942820  74.5883120  46.3328430
  25.6683160  74.2877080  46.5023690  24.0069630  70.1164610  48.5101030
  23.9377910  69.1754550  48.3490160  24.7689490  70.2066020  49.0823600
  16.1976300  60.7219130  50.8357650  16.0179140  59.8244880  51.1160410
  15.7956380  61.2691000  51.5104600  25.0374800  62.9234990  48.7369960
  25.4139620  62.0506870  48.6243630  24.9394310  63.2593690  47.8460400
  19.1679810  61.2960620  44.1987400  19.2746560  62.1964350  44.5056160
  18.2572170  61.2478590  43.9082050  28.8198920  60.4185430  45.6698300
  29.6408540  59.9282000  45.7123780  28.8533000  61.0083090  46.4230140
  16.8162970  63.2179630  49.4439990  17.4973080  63.4818000  50.0627390
  16.5011020  62.3780500  49.7778000  21.0087540  64.2646990  48.5312580
  21.5165760  64.7627960  49.1717600  21.5400780  63.4882190  48.3551940
  33.1098470  62.4352180  52.2341930  32.4050640  62.8233890  51.7157040
  33.3756390  63.1302470  52.8362860  19.2923640  58.9045550  52.7976000
  19.2942080  59.4217940  51.9921900  18.4627950  58.4275730  52.7745930
  25.6794730  69.0164860  44.2965900  25.0612000  69.4814310  43.7328620
  26.1917980  69.7092340  44.7135410  20.5426490  68.5440730  50.9749500
  20.2095870  69.1709650  51.6170570  20.7193170  69.0702610  50.1951170
  29.0560400  62.3585810  48.4425840  28.3515970  62.6470700  49.0228950
  29.4172560  63.1685920  48.0825400  18.9738970  60.6155510  50.8046450
  19.3155780  61.4597560  50.5100320  18.0354780  60.7639250  50.9211790
  19.7545590  70.5121530  52.7898680  20.3719590  71.1872610  52.5083130
  18.8938710  70.9209510  52.6986180  15.0477930  69.7021390  41.6705530
  14.6705910  70.1908490  40.9390430  15.3051000  70.3746670  42.3012060
  30.6723180  71.9760940  50.7053320  29.9886700  72.6460050  50.6969990
  31.2117470  72.1741590  49.9398180  32.1247320  61.8040600  48.8335050
  31.1772230  61.8379580  48.9650480  32.4497310  62.6179550  49.2184410
  22.6566860  58.1037780  47.1291040  22.9641840  57.5484670  46.4126540
  21.7267560  58.2382240  46.9464030  28.2081920  73.8205070  49.4198500
  28.2209080  73.4167360  48.5520760  27.6557140  74.5952360  49.3159930
  29.5027340  70.5421290  44.5088670  29.3923670  69.5995620  44.6338090
  29.4995590  70.9036930  45.3951430  27.6067360  68.7234910  50.7481110
  28.0236150  68.5095020  49.9134570  28.3307180  68.9807700  51.3189730
  25.0447620  66.1686610  43.8651160  24.1176900  66.1023990  44.0939630
  25.1972440  67.1066740  43.7506400  31.5529460  67.1222130  50.8397350
  30.7248090  67.1915220  50.3647480  32.1479940  67.7076440  50.3713180
  29.0744910  67.7306910  44.3686410  28.4557330  67.3926460  43.7212710
  29.0569360  67.0866670  45.0765600  28.5171470  63.9091450  51.7852220
  28.1042650  64.7345160  52.0392210  27.7847420  63.3236490  51.5928580
  20.6504260  66.6951350  46.6470890  20.2461260  65.9828600  46.1516790
  20.7367380  66.3504590  47.5358930  21.1185960  70.3818910  48.8110100
  20.8214250  69.7764380  48.1317880  22.0685780  70.4196220  48.6999460
  19.3632880  63.4694560  50.4269930  19.9147470  63.5789900  49.6523180
  19.8776390  63.8432160  51.1425160  29.2071570  73.9550780  52.4733200
  28.7302130  74.7622970  52.2805810  28.5233360  73.3029110  52.6259410
  20.2104390  70.1200600  55.4617900  19.3132920  70.3440570  55.7091300
  20.2357260  70.2435540  54.5129300  27.2509610  66.9693720  41.3759160
  27.6902890  66.1316150  41.2296980  27.9638030  67.6023120  41.4623300
  19.0375610  66.9913920  54.0375270  18.8983380  67.8636720  54.4062670
  18.1556970  66.6486730  53.8923210  25.3604990  71.9089790  45.3440400
  25.8000900  72.6514120  44.9295790  25.2991880  72.1516360  46.2679360
  20.8355960  72.9335620  56.2460420  20.8071390  73.3378570  55.3788850
  20.6720930  72.0045980  56.0832020  30.8326750  58.2236530  39.6900200
  30.5199410  58.3163360  40.5899270  31.5939220  58.8017560  39.6397630
  17.3508890  65.5896330  44.1477540  17.2306490  66.3158420  43.5358810
  17.0409780  64.8199240  43.6705450  32.7870780  73.7162720  57.5424590
  33.2630500  74.1945610  58.2213670  33.4077940  73.6480210  56.8170090
  14.9894260  68.7611470  49.9546180  15.0674680  68.8960240  49.0101900
  15.6035940  68.0527360  50.1474300  16.2341890  70.4611660  46.3652360
  15.8269970  70.6026250  45.5105960  17.1254900  70.1771820  46.1623570
  32.1904030  70.9075570  54.7024600  32.3167090  70.6687450  53.7841780
  32.2325410  70.0760110  55.1746680  26.0520770  74.6103570  53.2719410
  26.5665440  74.5211580  54.0741840  25.2089850  74.9563270  53.5647320
  28.0275170  74.8958910  42.7003410  27.8676310  74.6061850  43.5985240
  27.8621880  74.1199040  42.1648640  20.5063550  74.6757440  44.4775030
  20.3306030  73.7592980  44.2642830  19.6519290  75.0344730  44.7172830
  27.7301300  72.4046470  41.2601410  27.0366460  72.4023760  40.6003690
  28.4724160  71.9805790  40.8295580  27.2951230  74.0309180  45.3349900
  27.7508180  73.2498560  45.6488520  27.6343750  74.7416000  45.8791080
  32.0428040  62.9608030  55.6674340  31.4272310  63.4687700  55.1389800
  31.7224460  62.0606360  55.6100280  15.0453780  69.8025640  52.4940640
  15.2084820  69.3331000  51.6760010  15.5106230  69.2949200  53.1589480
  19.8172550  58.9331400  47.5301210  19.3740700  59.7140940  47.1985730
  20.3757540  59.2561290  48.2372150  24.1042360  61.7999920  53.1336530
  23.6421730  62.0082940  53.9456470  23.7020470  60.9859270  52.8307200
  29.1046870  63.0208870  54.2633190  28.2540460  62.7214620  54.5842260
  28.9448660  63.2650880  53.3517010  26.1996580  64.5210620  56.3631980
  26.5249990  63.6874370  56.0234210  26.9876910  65.0439140  56.5110310
  22.9331370  58.5542100  42.4107040  22.3085550  58.5501970  43.1360350
  22.8461490  57.6873060  42.0143010  21.8548450  59.4778730  49.3890810
  22.1520780  60.3841560  49.3082830  22.4034010  58.9897510  48.7750380
  19.6086770  64.0564970  45.2582460  19.3827690  63.8402140  46.1629080
  18.8279300  64.4893430  44.9128430  26.8384530  64.0628340  43.8573110
  26.2393420  64.7864140  43.6736730  27.3864140  64.0005120  43.0749560
  22.0485980  64.9550550  55.9242730  21.9529580  64.0145280  55.7743130
  22.8917960  65.1765620  55.5290800  25.4449400  62.6991880  45.8876390
  25.8378970  63.0164080  45.0745080  25.8066250  61.8203760  46.0020910
  17.1796520  61.3664220  54.0776510  16.7859910  62.2139430  54.2849290
  16.4914920  60.7290590  54.2685150  23.7541570  61.4499190  57.1473250
  23.0639890  61.2571390  57.7819340  24.4973870  61.7333830  57.6797550
  14.4813570  59.2892680  48.1106590  14.1926620  59.8595540  48.8231570
  15.2259330  58.8097130  48.4737820  14.6683800  63.2312800  39.3209310
  14.5858470  64.1743560  39.4624300  14.3166860  63.0887710  38.4421660
  26.0304540  65.2897630  49.9827170  25.2985660  65.7984440  50.3317270
  25.6328880  64.4727610  49.6815950  22.4681930  61.9651830  48.3879660
  22.4717990  61.5241780  47.5384200  23.3633050  62.2869160  48.4951480
  18.3184310  61.8478320  47.3473870  17.9784360  62.3253550  48.1040920
  17.5561630  61.3943440  46.9874970  22.5302080  62.9663910  41.3786420
  22.6514900  62.9250390  42.3272240  22.1450590  63.8288060  41.2233150
  26.4930450  60.7431310  49.3950110  26.5103190  61.1939960  50.2391960
  26.2446030  59.8436950  49.6083550  21.5423580  65.2765050  40.7769720
  20.9740480  64.8283300  40.1505630  22.2512580  65.6357830  40.2434870
  29.9201200  58.1563490  55.2336490  30.2446970  57.4253150  55.7594470
  29.9557710  57.8377130  54.3317480  16.6192760  69.1777070  54.6536450
  16.2347550  68.5370740  55.2519410  16.9304950  69.8813190  55.2231180
  22.7689900  66.0253610  50.1345070  23.1360030  65.5512180  50.8806410
  22.5794960  66.8995180  50.4753410  15.6330390  60.7697300  46.2638540
  15.3477310  60.4052970  47.1017160  15.5709250  60.0377760  45.6501680
  20.5589270  65.0662250  52.4529280  20.2546340  65.9454230  52.6779640
  21.5135730  65.1262040  52.4886720  19.0871060  69.2723240  43.0496130
  18.3133320  68.7320860  42.8894850  19.8165690  68.7529850  42.7113890
  29.8459040  68.2688600  48.8422520  30.5658160  68.7643890  48.4518630
  29.6440860  67.5906490  48.1976390  25.3068980  59.6626560  42.9851910
  24.4933590  59.1639730  42.9097220  25.1130930  60.5024810  42.5688260
  25.2277840  68.3397660  54.7291520  25.1615150  67.4193330  54.4749110
  24.5982980  68.4373100  55.4436160  28.0217370  64.0346210  41.2814070
  28.9096990  64.3463440  41.1065410  27.9922460  63.1618460  40.8894650
  19.1308460  68.9403620  46.6874940  19.6487130  68.1371880  46.6331830
  18.6792480  68.8782760  47.5291770  24.0177960  70.2069900  41.9602240
  24.3593660  70.9512130  41.4645560  23.1890670  70.5201020  42.3227070
  16.6153000  65.9064990  53.6000640  16.2567940  66.5718840  54.1873980
  16.3207560  65.0748540  53.9713260  19.8166120  66.3649230  56.4840190
  19.5166260  66.5106410  55.5868010  20.5877360  65.8054520  56.3913580
  25.1594570  71.1618230  54.4795320  25.1739110  70.2299190  54.2614230
  24.4519670  71.2477990  55.1185090  30.2931640  65.3458050  40.7493930
  30.2095360  65.7772270  39.8990370  31.0125830  65.8056400  41.1820750
  31.3705780  67.8025570  53.8263900  30.6453970  68.3954350  53.6293290
  31.8981240  67.7949110  53.0277270  31.3218890  72.2000310  43.4776060
  30.6795050  71.5455930  43.7519780  30.9349550  72.6055400  42.7016730
  26.9005370  69.5285740  47.3247750  27.2529190  68.9313870  46.6649120
  26.0167700  69.2029970  47.4956000  22.9868650  70.2883430  44.7318160
  23.6739780  70.8352640  45.1125750  22.2001070  70.8324160  44.7667770
  15.1261050  65.9056250  40.2235240  15.9955900  66.1881050  40.5071160
  14.6351370  66.7192120  40.1084050  22.2895860  67.2929460  44.3443520
  22.7458640  68.1034710  44.5703710  21.9384070  66.9752600  45.1762010
  24.5928470  72.8035800  51.5735820  25.2370690  73.0095180  52.2509240
  24.9557910  72.0424200  51.1206670  18.1907640  57.6367110  44.8166040
  18.0622270  57.6285010  45.7650960  17.3669660  57.9750200  44.4657050
  25.8660550  70.8068150  50.2913270  26.5082780  70.1061310  50.4045440
  26.3909900  71.5866590  50.1110160  29.7116270  71.0916770  40.0152410
  29.4853850  70.3747210  40.6077050  29.3212470  70.8429210  39.1774160
  27.6398170  71.6063050  53.4949330  27.9754410  72.1929740  54.1727250
  26.7198510  71.4755760  53.7247120  15.4932300  75.1183630  40.7896870
  15.8529940  75.7172970  40.1354140  15.3524640  75.6643520  41.5631900
  15.1901570  59.3958230  54.2772740  14.4760090  59.5955150  54.8825350
  15.6096610  58.6197800  54.6487540  29.2932520  69.0088710  41.6766570
  29.0054220  69.4701400  42.4644450  30.0884690  68.5486480  41.9450790
  15.4774160  73.3838490  55.2639270  15.5865280  72.4433230  55.1234660
  14.8254720  73.6493240  54.6153000  23.4686750  71.6554380  56.6637390
  23.1483620  70.9363620  57.2083080  22.7945110  72.3309450  56.7373450
  21.5100920  72.5014830  41.6070540  21.5011020  73.2344520  40.9915050
  20.5899280  72.2546410  41.6997500  17.1107560  67.7229720  42.3517300
  16.5035510  68.4628620  42.3612600  17.5856910  67.8129080  41.5255500
  26.6840350  61.8880540  52.0274190  27.0521170  61.0675750  52.3553760
  25.8238550  61.9482430  52.4429840  30.0502380  60.8437480  42.8361750
  29.4215540  60.9483150  42.1219980  29.5554300  61.0634260  43.6255630
  24.4960520  72.5643070  40.2695730  24.5972500  72.3607060  39.3397710
  23.5962260  72.3101350  40.4743510  22.0186410  63.1223430  44.2519630
  21.3102560  63.5909770  44.6933240  22.3030890  62.4645440  44.8864820
  23.6442340  64.5420130  52.2512160  24.1427590  65.0165950  52.9164010
  23.7865290  63.6183650  52.4582190  26.0501840  59.8474090  45.6915420
  25.9269620  59.8660220  44.7424930  26.9986400  59.8953030  45.8113820
  23.1378630  75.0829390  44.9643400  23.3920130  75.0450780  44.0422770
  22.1891110  74.9562720  44.9571650  20.2221430  61.4308510  41.6270340
  21.0711960  61.8678660  41.5610530  19.8552700  61.7428770  42.4542400
  30.8509200  60.7588090  53.0940550  30.3482800  61.4993490  53.4334360
  31.6665860  61.1472090  52.7777340  29.1431210  66.0021270  46.5401910
  28.2021350  66.0171500  46.7149600  29.4575280  65.2157230  46.9862210
  19.1212850  67.6840870  40.1005870  19.8876120  67.5722230  40.6631300
  19.1987540  66.9878840  39.4482640  17.8159610  65.1165940  40.7838760
  17.8963200  64.1693450  40.8956160  18.7079360  65.4472820  40.8899420
  31.1456790  73.1730120  48.2156170  31.2704210  73.9961290  48.6879980
  32.0122350  72.9620850  47.8680320  18.6174320  75.2661330  47.8873300
  19.3536800  74.7176790  48.1581870  19.0015240  76.1317340  47.7479290
  15.5019800  71.3334900  43.7614810  14.5759580  71.5756040  43.7520220
  15.9676230  72.1609160  43.6399560  17.6232600  74.4507400  57.0758880
  18.4245330  74.7719450  57.4894280  17.1084420  74.0902980  57.7978790
  21.7276630  74.4391640  39.7098870  22.5205240  74.7280470  39.2580660
  21.2080980  74.0083810  39.0311350  26.4597230  70.5587270  57.0234290
  25.8535390  70.5818870  56.2830040  26.1551340  69.8270310  57.5601540
  27.8897600  74.2867560  55.6343700  28.8419350  74.2025580  55.5843940
  27.7425820  74.9509270  56.3077490  30.7806800  73.6661770  41.1335610
  30.4948310  73.2526910  40.3189790  30.5826350  74.5949480  41.0136130
  15.3430410  66.9380860  56.0194930  15.8469430  66.3588140  56.5911160
  14.6037830  67.2221090  56.5571300  22.2454030  69.6595050  39.5741220
  22.1404670  69.0447400  40.3002600  22.0778250  69.1360940  38.7904230
  22.3968350  68.3451850  55.5530450  21.6314020  68.9136850  55.4685120
  22.5784310  68.0528060  54.6598680  25.4856760  68.7215080  40.1783210
  24.9366860  69.1684380  40.8225950  26.1076020  68.2164330  40.7020880
  29.5391700  70.0757180  56.1105470  30.2801170  70.4132940  55.6072930
  28.7764380  70.2449240  55.5575240  17.3753490  65.0810450  56.9145000
  17.4158830  64.7824320  57.8230230  18.2298990  65.4818060  56.7552520
  21.1531880  67.6806000  42.0748510  21.5748300  67.5145870  42.9179900
  21.2782720  66.8706230  41.5803650  19.3159300  63.6602550  54.8819490
  18.7855760  63.1693500  54.2542830  19.9847370  64.0886750  54.3477420
  23.6659520  66.7043610  39.3225610  24.1865180  65.9892630  38.9566760
  24.3127920  67.3429480  39.6226120  28.2137360  68.1272010  54.6460680
  28.6278380  68.2817090  55.4951100  27.2788360  68.2527230  54.8086460
  28.6859530  65.4668170  56.6499830  29.2680300  64.7120490  56.5620310
  28.8621300  65.9975610  55.8731310  19.8031600  60.6264920  54.9616780
  19.7088470  60.0085670  54.2367650  19.2228990  61.3531210  54.7346690
  22.5693040  59.1838160  51.9944170  22.1210340  59.2062420  51.1489720
  21.9358240  58.7857180  52.5914470  22.9752590  68.0792490  52.6156610
  23.3940700  68.9225220  52.4432850  22.0561220  68.2164530  52.3863390
  25.3116490  65.8108670  53.9994450  25.4312700  65.2149810  54.7389290
  26.1710490  65.8478360  53.5795750  27.6504390  66.3645860  52.5756960
  27.1239610  66.8888480  51.9722100  27.9935730  66.9973250  53.2066690
  20.0490780  63.7539230  39.0206670  19.8479840  62.8906590  39.3820010
  19.8782830  63.6672590  38.0828270  20.8260010  74.3845500  53.7314340
  20.2881100  75.1091560  53.4123040  21.0793970  73.9075840  52.9411680
  22.0785260  62.3530020  55.2570270  22.6684950  62.0445870  55.9448090
  21.2605500  61.8809770  55.4130170  26.8978690  61.9695830  55.4903290
  26.2094210  61.3077370  55.4253280  27.6184710  61.5234100  55.9351750
  27.5279090  58.5647460  41.5493550  27.8081380  57.7215360  41.9052970
  26.7544820  58.7970570  42.0632300  18.8473580  60.8539850  39.0084550
  19.1499480  60.8607280  38.1003700  19.5868170  60.5037710  39.5052210
  23.6822220  75.6196710  53.9900990  23.6080920  76.5231850  54.2973360
  22.7801060  75.3008610  53.9623060  22.0658510  59.7974470  39.9940750
  21.7180510  59.1198460  39.4143200  22.2671280  59.3363980  40.8084140
  24.2307550  74.7855220  41.6127350  25.1258340  75.1240190  41.6346110
  24.2625180  74.0634630  40.9851630  17.8703710  70.1582270  39.8414350
  18.3078580  70.7011940  40.4971930  18.3551440  69.3329220  39.8510690
  15.0849510  72.9471300  47.2934610  15.4152520  72.0792360  47.0613250
  15.5140510  73.1529820  48.1239570  19.6811430  71.2780310  44.9536580
  19.3806970  71.1545280  45.8540490  19.5748920  70.4188900  44.5452310
  15.5739720  73.8141890  50.0316240  15.1370710  73.9942690  50.8640390
  16.1417400  74.5716510  49.8897960  31.2101900  73.3158890  54.3193550
  30.6103890  73.3751450  53.5757470  31.3395800  72.3763870  54.4490400
  32.4503350  71.0576710  39.6563260  31.6196310  71.1253360  40.1270490
  32.6275180  71.9480830  39.3530120  31.9059810  67.8024190  42.1597460
  32.6678720  68.3720840  42.2657150  31.9214180  67.2351390  42.9305770
  15.4064150  66.3262120  46.3905120  14.7512990  66.0573760  45.7464820
  16.2442100  66.2166600  45.9407100  32.9119780  68.6574290  47.0039390
  33.2828610  67.8741610  46.5975360  33.5521710  69.3463390  46.8256690
  29.8953540  70.0410870  52.4169710  29.0813380  70.4708030  52.6795500
  30.3027740  70.6529280  51.8038760  31.9578980  68.0958560  39.3169980
  32.2327820  69.0037440  39.1889200  31.7689720  68.0321090  40.2531970
  31.8544320  66.0327550  44.3099410  31.4787920  65.2655480  43.8780700
  31.1247440  66.4150250  44.7974340  16.4440080  66.7114690  50.9308460
  16.8113120  66.6242090  51.8104480  15.8750900  65.9481240  50.8315320
  31.2443940  65.1799070  53.9438930  31.0130030  64.9511820  53.0436880
  31.5048490  66.0998620  53.8983820  15.9956080  63.6223780  54.8366880
  15.1012130  63.5890540  55.1760590  16.5353630  63.8210570  55.6018130
  29.6832010  60.4055500  56.7218630  30.5602190  60.4138900  57.1052630
  29.6952850  59.6686340  56.1110980  14.6202230  63.5361050  42.3330450
  13.7166310  63.7991250  42.1582110  15.1042850  63.8072220  41.5530410
  31.1295280  64.2585040  47.6106650  31.6532760  63.7647690  46.9796820
  31.7154700  64.3935400  48.3554220  31.3085000  64.3424910  51.1326200
  30.3587710  64.3088450  51.2471190  31.4898010  65.2525020  50.8975970
  17.1629440  62.5926590  40.2424830  17.8721140  62.1709810  39.7572110
  16.4469380  62.6601820  39.6108180  16.8103600  58.6465920  39.2827480
  17.5331730  59.1874860  39.6008700  17.0828120  58.3729340  38.4069020
  30.6195250  63.5158390  43.5499060  31.1154370  63.2829260  44.3347940
  30.4211320  62.6770230  43.1336700  16.4995790  57.8972110  49.1850100
  17.1471980  57.3469490  48.7445260  16.9197630  58.1515260  50.0065910
  32.0482410  62.1519340  46.0836740  31.9381690  61.9975380  47.0219010
  32.8090000  61.6240280  45.8412150  30.3948130  58.0913470  52.5419740
  31.0320350  58.7047610  52.9078930  30.5423020  58.1274130  51.5968970
  29.9529590  74.7929470  45.9437980  30.5488660  74.4714040  45.2672400
  30.2107740  74.3201290  46.7351250  16.2527790  58.0527780  51.9275420
  15.9042610  58.5091600  52.6933600  15.9215490  57.1584910  52.0097850
  17.8592160  71.2247380  56.0928610  17.8161790  70.8540290  56.9743070
  17.9903170  72.1624950  56.2330430  21.5598190  72.7806970  51.6938330
  21.3189550  73.0481530  50.8068850  22.5000830  72.9512700  51.7489190
  23.7652610  59.2439660  55.4494840  23.7041500  59.8361490  56.1990250
  24.7052990  59.1365620  55.3045100  26.4027170  58.9009720  55.0887130
  27.0167580  59.2189010  54.4268210  26.9476730  58.4158310  55.7082990
  32.8202350  74.8001350  52.4948970  32.3260630  75.1970220  51.7776100
  32.2115640  74.1750560  52.8886250  16.9248430  57.5803980  55.2026190
  17.4731420  57.3992030  54.4392300  16.9903740  56.7898090  55.7382500
  17.6980190  74.1709630  53.2126390  17.1040510  74.0394330  53.9516430
  17.6904030  73.3347770  52.7468490  27.1435210  57.4641860  51.4156420
  26.2695050  57.7976970  51.2129350  27.0345960  56.9915040  52.2408290
  28.0507190  59.6712730  52.7998140  27.7220550  58.8564490  52.4199870
  28.9989490  59.6282540  52.6763830  30.5041800  75.4424770  49.7735710
  30.0444770  76.1940580  49.3993730  29.8754260  74.7231240  49.7150510
  17.3292420  71.5368010  52.1634430  16.6026480  70.9173300  52.0960380
  17.3901570  71.9308620  51.2932510  20.9337520  73.7513010  48.9483840
  21.4502540  73.1400370  48.4232100  21.5834900  74.2541790  49.4394850
  23.6733020  74.6421500  49.7752820  23.9610830  74.3875800  48.8985830
  24.1856240  74.0898860  50.3658390  24.8910030  58.3811700  50.3549330
  24.1081820  58.8557200  50.6346090  24.5972960  57.4766530  50.2462510
  29.4431100  59.0834800  48.3998420  29.8839190  59.0279900  47.5520020
  29.1738690  59.9992810  48.4708600  31.3069670  58.7150040  46.4107240
  31.2458070  57.7711260  46.2638260  32.0861700  58.8230130  46.9560700
  15.6122420  74.8542400  45.3731190  15.4444460  74.2213080  46.0713080
  14.7456930  75.0601800  45.0225380  16.2350440  58.6859180  42.8763050
  16.9929800  58.7988060  42.3027080  15.7727610  59.5228380  42.8306480
  22.7764250  60.7998450  45.8665360  21.9638760  60.4255340  45.5261240
  23.2805890  60.0443530  46.1686550  27.2789230  57.4640900  47.1048430
  27.8818600  58.0361110  47.5796950  26.5382220  58.0280340  46.8822330
  30.4223830  57.8662460  42.3788710  30.6174460  58.7645910  42.6456140
  29.6353700  57.6349540  42.8721660  17.2185120  73.5475630  42.8181330
  16.6932740  73.9283660  42.1143290  17.1429700  74.1726400  43.5391040
  18.6075590  59.2123230  41.4165020  19.1368350  58.4253030  41.2872970
  19.2403910  59.8914420  41.6500550  20.8013430  58.9498370  44.4710410
  20.1716170  58.2485680  44.6380540  20.2618570  59.7102500  44.2543570
  23.7405380  75.5637600  57.1421020  24.6672690  75.3281870  57.1856980
  23.7255810  76.3909600  56.6607050  31.9750440  75.1063170  44.1395270
  32.1502630  74.4200910  43.4956190  31.2772010  75.6310220  43.7471940
  20.9268990  58.2282350  56.9062900  20.6453260  58.7315950  56.1423720
  21.3088690  57.4304100  56.5405030  19.8178090  75.4958010  41.6930580
  20.5496910  75.2117290  41.1454470  20.0771760  75.2571290  42.5829960
  18.9792880  71.6122740  41.6976910  18.3501760  72.0807840  42.2462740
  19.0940710  70.7671960  42.1323100  27.5284450  57.6435930  57.4843370
  27.4149900  57.9630540  58.3794890  28.3454190  58.0448440  57.1880650
  30.3082940  74.7907460  56.9662060  31.1008260  74.2956690  56.7588020
  30.6016090  75.4697600  57.5737670  24.5660640  67.4407420  29.7287380
  23.7902740  66.9607860  30.0185950  25.2173570  66.7613070  29.5543540
  18.5826470  67.7527230  30.6063140  17.7511350  67.4975940  31.0059650
  19.1907450  67.8238000  31.3421060  18.5627730  71.7867320  30.8021160
  18.8655770  70.8965060  30.6231380  19.3071320  72.3437540  30.5743410
  14.9551430  65.3134770  30.2745230  15.5267540  64.5456970  30.2748870
  14.9552970  65.6123530  29.3651840  24.8131380  74.1325620  28.1290500
  24.1942820  74.5883120  27.5584940  25.6683160  74.2877080  27.7280200
  24.0069630  70.1164610  29.7357540  23.9377910  69.1754550  29.5746670
  24.7689490  70.2066020  30.3080110  16.1976300  60.7219130  32.0614160
  16.0179140  59.8244880  32.3416920  15.7956380  61.2691000  32.7361110
  16.8162970  63.2179630  30.6696500  17.4973080  63.4818000  31.2883900
  16.5011020  62.3780500  31.0034510  20.5426490  68.5440730  32.2006010
  20.2095870  69.1709650  32.8427080  20.7193170  69.0702610  31.4207680
  19.7545590  70.5121530  34.0155190  20.3719590  71.1872610  33.7339640
  18.8938710  70.9209510  33.9242690  15.0477930  69.7021390  22.8962040
  14.6705910  70.1908490  22.1646940  15.3051000  70.3746670  23.5268570
  22.6566860  58.1037780  28.3547550  22.9641840  57.5484670  27.6383050
  21.7267560  58.2382240  28.1720540  28.2081920  73.8205070  30.6455010
  28.2209080  73.4167360  29.7777270  27.6557140  74.5952360  30.5416440
  20.6504260  66.6951350  27.8727400  20.2461260  65.9828600  27.3773300
  20.7367380  66.3504590  28.7615440  21.1185960  70.3818910  30.0366610
  20.8214250  69.7764380  29.3574390  22.0685780  70.4196220  29.9255970
  29.2071570  73.9550780  33.6989710  28.7302130  74.7622970  33.5062320
  28.5233360  73.3029110  33.8515920  20.2104390  70.1200600  36.6874410
  19.3132920  70.3440570  36.9347810  20.2357260  70.2435540  35.7385810
  19.0375610  66.9913920  35.2631780  18.8983380  67.8636720  35.6319180
  18.1556970  66.6486730  35.1179720  25.3604990  71.9089790  26.5696910
  25.8000900  72.6514120  26.1552300  25.2991880  72.1516360  27.4935870
  20.8355960  72.9335620  37.4716930  20.8071390  73.3378570  36.6045360
  20.6720930  72.0045980  37.3088530  32.7870780  73.7162720  38.7681100
  33.2630500  74.1945610  39.4470180  33.4077940  73.6480210  38.0426600
  14.9894260  68.7611470  31.1802690  15.0674680  68.8960240  30.2358410
  15.6035940  68.0527360  31.3730810  16.2341890  70.4611660  27.5908870
  15.8269970  70.6026250  26.7362470  17.1254900  70.1771820  27.3880080
  26.0520770  74.6103570  34.4975920  26.5665440  74.5211580  35.2998350
  25.2089850  74.9563270  34.7903830  20.5063550  74.6757440  25.7031540
  20.3306030  73.7592980  25.4899340  19.6519290  75.0344730  25.9429340
  15.0453780  69.8025640  33.7197150  15.2084820  69.3331000  32.9016520
  15.5106230  69.2949200  34.3845990  19.8172550  58.9331400  28.7557720
  19.3740700  59.7140940  28.4242240  20.3757540  59.2561290  29.4628660
  17.1796520  61.3664220  35.3033020  16.7859910  62.2139430  35.5105800
  16.4914920  60.7290590  35.4941660  14.4813570  59.2892680  29.3363100
  14.1926620  59.8595540  30.0488080  15.2259330  58.8097130  29.6994330
  14.6683800  63.2312800  20.5465820  14.5858470  64.1743560  20.6880810
  14.3166860  63.0887710  19.6678170  18.3184310  61.8478320  28.5730380
  17.9784360  62.3253550  29.3297430  17.5561630  61.3943440  28.2131480
  16.6192760  69.1777070  35.8792960  16.2347550  68.5370740  36.4775920
  16.9304950  69.8813190  36.4487690  15.6330390  60.7697300  27.4895050
  15.3477310  60.4052970  28.3273670  15.5709250  60.0377760  26.8758190
  25.2277840  68.3397660  35.9548030  25.1615150  67.4193330  35.7005620
  24.5982980  68.4373100  36.6692670  19.1308460  68.9403620  27.9131450
  19.6487130  68.1371880  27.8588340  18.6792480  68.8782760  28.7548280
  24.0177960  70.2069900  23.1858750  24.3593660  70.9512130  22.6902070
  23.1890670  70.5201020  23.5483580  16.6153000  65.9064990  34.8257150
  16.2567940  66.5718840  35.4130490  16.3207560  65.0748540  35.1969770
  19.8166120  66.3649230  37.7096700  19.5166260  66.5106410  36.8124520
  20.5877360  65.8054520  37.6170090  25.1594570  71.1618230  35.7051830
  25.1739110  70.2299190  35.4870740  24.4519670  71.2477990  36.3441600
  26.9005370  69.5285740  28.5504260  27.2529190  68.9313870  27.8905630
  26.0167700  69.2029970  28.7212510  22.9868650  70.2883430  25.9574670
  23.6739780  70.8352640  26.3382260  22.2001070  70.8324160  25.9924280
  24.5928470  72.8035800  32.7992330  25.2370690  73.0095180  33.4765750
  24.9557910  72.0424200  32.3463180  18.1907640  57.6367110  26.0422550
  18.0622270  57.6285010  26.9907470  17.3669660  57.9750200  25.6913560
  25.8660550  70.8068150  31.5169780  26.5082780  70.1061310  31.6301950
  26.3909900  71.5866590  31.3366670  27.6398170  71.6063050  34.7205840
  27.9754410  72.1929740  35.3983760  26.7198510  71.4755760  34.9503630
  15.4932300  75.1183630  22.0153380  15.8529940  75.7172970  21.3610650
  15.3524640  75.6643520  22.7888410  15.1901570  59.3958230  35.5029250
  14.4760090  59.5955150  36.1081860  15.6096610  58.6197800  35.8744050
  15.4774160  73.3838490  36.4895780  15.5865280  72.4433230  36.3491170
  14.8254720  73.6493240  35.8409510  23.4686750  71.6554380  37.8893900
  23.1483620  70.9363620  38.4339590  22.7945110  72.3309450  37.9629960
  21.5100920  72.5014830  22.8327050  21.5011020  73.2344520  22.2171560
  20.5899280  72.2546410  22.9254010  24.4960520  72.5643070  21.4952240
  24.5972500  72.3607060  20.5654220  23.5962260  72.3101350  21.7000020
  23.1378630  75.0829390  26.1899910  23.3920130  75.0450780  25.2679280
  22.1891110  74.9562720  26.1828160  31.1456790  73.1730120  29.4412680
  31.2704210  73.9961290  29.9136490  32.0122350  72.9620850  29.0936830
  18.6174320  75.2661330  29.1129810  19.3536800  74.7176790  29.3838380
  19.0015240  76.1317340  28.9735800  15.5019800  71.3334900  24.9871320
  14.5759580  71.5756040  24.9776730  15.9676230  72.1609160  24.8656070
  17.6232600  74.4507400  38.3015390  18.4245330  74.7719450  38.7150790
  17.1084420  74.0902980  39.0235300  21.7276630  74.4391640  20.9355380
  22.5205240  74.7280470  20.4837170  21.2080980  74.0083810  20.2567860
  26.4597230  70.5587270  38.2490800  25.8535390  70.5818870  37.5086550
  26.1551340  69.8270310  38.7858050  27.8897600  74.2867560  36.8600210
  28.8419350  74.2025580  36.8100450  27.7425820  74.9509270  37.5334000
  15.3430410  66.9380860  37.2451440  15.8469430  66.3588140  37.8167670
  14.6037830  67.2221090  37.7827810  22.2454030  69.6595050  20.7997730
  22.1404670  69.0447400  21.5259110  22.0778250  69.1360940  20.0160740
  22.3968350  68.3451850  36.7786960  21.6314020  68.9136850  36.6941630
  22.5784310  68.0528060  35.8855190  25.4856760  68.7215080  21.4039720
  24.9366860  69.1684380  22.0482460  26.1076020  68.2164330  21.9277390
  17.3753490  65.0810450  38.1401510  17.4158830  64.7824320  39.0486740
  18.2298990  65.4818060  37.9809030  23.6659520  66.7043610  20.5482120
  24.1865180  65.9892630  20.1823270  24.3127920  67.3429480  20.8482630
  22.9752590  68.0792490  33.8413120  23.3940700  68.9225220  33.6689360
  22.0561220  68.2164530  33.6119900  20.8260010  74.3845500  34.9570850
  20.2881100  75.1091560  34.6379550  21.0793970  73.9075840  34.1668190
  27.5279090  58.5647460  22.7750060  27.8081380  57.7215360  23.1309480
  26.7544820  58.7970570  23.2888810  23.6822220  75.6196710  35.2157500
  23.6080920  76.5231850  35.5229870  22.7801060  75.3008610  35.1879570
  24.2307550  74.7855220  22.8383860  25.1258340  75.1240190  22.8602620
  24.2625180  74.0634630  22.2108140  17.8703710  70.1582270  21.0670860
  18.3078580  70.7011940  21.7228440  18.3551440  69.3329220  21.0767200
  15.0849510  72.9471300  28.5191120  15.4152520  72.0792360  28.2869760
  15.5140510  73.1529820  29.3496080  19.6811430  71.2780310  26.1793090
  19.3806970  71.1545280  27.0797000  19.5748920  70.4188900  25.7708820
  15.5739720  73.8141890  31.2572750  15.1370710  73.9942690  32.0896900
  16.1417400  74.5716510  31.1154470  31.2101900  73.3158890  35.5450060
  30.6103890  73.3751450  34.8013980  31.3395800  72.3763870  35.6746910
  15.4064150  66.3262120  27.6161630  14.7512990  66.0573760  26.9721330
  16.2442100  66.2166600  27.1663610  31.9578980  68.0958560  20.5426490
  32.2327820  69.0037440  20.4145710  31.7689720  68.0321090  21.4788480
  16.4440080  66.7114690  32.1564970  16.8113120  66.6242090  33.0360990
  15.8750900  65.9481240  32.0571830  15.9956080  63.6223780  36.0623390
  15.1012130  63.5890540  36.4017100  16.5353630  63.8210570  36.8274640
  14.6202230  63.5361050  23.5586960  13.7166310  63.7991250  23.3838620
  15.1042850  63.8072220  22.7786920  16.8103600  58.6465920  20.5083990
  17.5331730  59.1874860  20.8265210  17.0828120  58.3729340  19.6325530
  16.4995790  57.8972110  30.4106610  17.1471980  57.3469490  29.9701770
  16.9197630  58.1515260  31.2322420  29.9529590  74.7929470  27.1694490
  30.5488660  74.4714040  26.4928910  30.2107740  74.3201290  27.9607760
  16.2527790  58.0527780  33.1531930  15.9042610  58.5091600  33.9190110
  15.9215490  57.1584910  33.2354360  17.8592160  71.2247380  37.3185120
  17.8161790  70.8540290  38.1999580  17.9903170  72.1624950  37.4586940
  21.5598190  72.7806970  32.9194840  21.3189550  73.0481530  32.0325360
  22.5000830  72.9512700  32.9745700  32.8202350  74.8001350  33.7205480
  32.3260630  75.1970220  33.0032610  32.2115640  74.1750560  34.1142760
  16.9248430  57.5803980  36.4282700  17.4731420  57.3992030  35.6648810
  16.9903740  56.7898090  36.9639010  17.6980190  74.1709630  34.4382900
  17.1040510  74.0394330  35.1772940  17.6904030  73.3347770  33.9725000
  27.1435210  57.4641860  32.6412930  26.2695050  57.7976970  32.4385860
  27.0345960  56.9915040  33.4664800  30.5041800  75.4424770  30.9992220
  30.0444770  76.1940580  30.6250240  29.8754260  74.7231240  30.9407020
  17.3292420  71.5368010  33.3890940  16.6026480  70.9173300  33.3216890
  17.3901570  71.9308620  32.5189020  20.9337520  73.7513010  30.1740350
  21.4502540  73.1400370  29.6488610  21.5834900  74.2541790  30.6651360
  23.6733020  74.6421500  31.0009330  23.9610830  74.3875800  30.1242340
  24.1856240  74.0898860  31.5914900  15.6122420  74.8542400  26.5987700
  15.4444460  74.2213080  27.2969590  14.7456930  75.0601800  26.2481890
  16.2350440  58.6859180  24.1019560  16.9929800  58.7988060  23.5283590
  15.7727610  59.5228380  24.0562990  27.2789230  57.4640900  28.3304940
  27.8818600  58.0361110  28.8053460  26.5382220  58.0280340  28.1078840
  17.2185120  73.5475630  24.0437840  16.6932740  73.9283660  23.3399800
  17.1429700  74.1726400  24.7647550  23.7405380  75.5637600  38.3677530
  24.6672690  75.3281870  38.4113490  23.7255810  76.3909600  37.8863560
  20.9268990  58.2282350  38.1319410  20.6453260  58.7315950  37.3680230
  21.3088690  57.4304100  37.7661540  19.8178090  75.4958010  22.9187090
  20.5496910  75.2117290  22.3710980  20.0771760  75.2571290  23.8086470
  18.9792880  71.6122740  22.9233420  18.3501760  72.0807840  23.4719250
  19.0940710  70.7671960  23.3579610  27.5284450  57.6435930  38.7099880
  27.4149900  57.9630540  39.6051400  28.3454190  58.0448440  38.4137160
  30.3082940  74.7907460  38.1918570  31.1008260  74.2956690  37.9844530
  30.6016090  75.4697600  38.7994180  26.4342600  65.6628400   9.0734620
  26.3536650  64.7483010   8.8026330  26.0207020  66.1595470   8.3674330
  24.5660640  67.4407420  10.9543890  23.7902740  66.9607860  11.2442460
  25.2173570  66.7613070  10.7800050  18.5826470  67.7527230  11.8319650
  17.7511350  67.4975940  12.2316160  19.1907450  67.8238000  12.5677570
  28.5868070  71.8467610   9.7343020  28.1249600  71.0754850  10.0630190
  29.3993620  71.8733680  10.2395470  18.5627730  71.7867320  12.0277670
  18.8655770  70.8965060  11.8487890  19.3071320  72.3437540  11.7999920
  16.9918420  62.7129120   5.6162040  16.1035120  63.0545090   5.5141920
  17.2759610  62.5129440   4.7242870  14.9551430  65.3134770  11.5001740
  15.5267540  64.5456970  11.5005380  14.9552970  65.6123530  10.5908350
  24.8131380  74.1325620   9.3547010  24.1942820  74.5883120   8.7841450
  25.6683160  74.2877080   8.9536710  24.0069630  70.1164610  10.9614050
  23.9377910  69.1754550  10.8003180  24.7689490  70.2066020  11.5336620
  16.1976300  60.7219130  13.2870670  16.0179140  59.8244880  13.5673430
  15.7956380  61.2691000  13.9617620  25.0374800  62.9234990  11.1882980
  25.4139620  62.0506870  11.0756650  24.9394310  63.2593690  10.2973420
  19.1679810  61.2960620   6.6500420  19.2746560  62.1964350   6.9569180
  18.2572170  61.2478590   6.3595070  28.8198920  60.4185430   8.1211320
  29.6408540  59.9282000   8.1636800  28.8533000  61.0083090   8.8743160
  16.8162970  63.2179630  11.8953010  17.4973080  63.4818000  12.5140410
  16.5011020  62.3780500  12.2291020  21.0087540  64.2646990  10.9825600
  21.5165760  64.7627960  11.6230620  21.5400780  63.4882190  10.8064960
  33.1098470  62.4352180  14.6854950  32.4050640  62.8233890  14.1670060
  33.3756390  63.1302470  15.2875880  19.2923640  58.9045550  15.2489020
  19.2942080  59.4217940  14.4434920  18.4627950  58.4275730  15.2258950
  25.6794730  69.0164860   6.7478920  25.0612000  69.4814310   6.1841640
  26.1917980  69.7092340   7.1648430  20.5426490  68.5440730  13.4262520
  20.2095870  69.1709650  14.0683590  20.7193170  69.0702610  12.6464190
  29.0560400  62.3585810  10.8938860  28.3515970  62.6470700  11.4741970
  29.4172560  63.1685920  10.5338420  18.9738970  60.6155510  13.2559470
  19.3155780  61.4597560  12.9613340  18.0354780  60.7639250  13.3724810
  19.7545590  70.5121530  15.2411700  20.3719590  71.1872610  14.9596150
  18.8938710  70.9209510  15.1499200  15.0477930  69.7021390   4.1218550
  14.6705910  70.1908490   3.3903450  15.3051000  70.3746670   4.7525080
  30.6723180  71.9760940  13.1566340  29.9886700  72.6460050  13.1483010
  31.2117470  72.1741590  12.3911200  32.1247320  61.8040600  11.2848070
  31.1772230  61.8379580  11.4163500  32.4497310  62.6179550  11.6697430
  22.6566860  58.1037780   9.5804060  22.9641840  57.5484670   8.8639560
  21.7267560  58.2382240   9.3977050  28.2081920  73.8205070  11.8711520
  28.2209080  73.4167360  11.0033780  27.6557140  74.5952360  11.7672950
  29.5027340  70.5421290   6.9601690  29.3923670  69.5995620   7.0851110
  29.4995590  70.9036930   7.8464450  27.6067360  68.7234910  13.1994130
  28.0236150  68.5095020  12.3647590  28.3307180  68.9807700  13.7702750
  25.0447620  66.1686610   6.3164180  24.1176900  66.1023990   6.5452650
  25.1972440  67.1066740   6.2019420  25.0316700  62.4403610   3.3131340
  24.0920370  62.6017570   3.3983800  25.3499960  63.1589290   2.7667330
  31.5529460  67.1222130  13.2910370  30.7248090  67.1915220  12.8160500
  32.1479940  67.7076440  12.8226200  29.0744910  67.7306910   6.8199430
  28.4557330  67.3926460   6.1725730  29.0569360  67.0866670   7.5278620
  28.5171470  63.9091450  14.2365240  28.1042650  64.7345160  14.4905230
  27.7847420  63.3236490  14.0441600  20.6504260  66.6951350   9.0983910
  20.2461260  65.9828600   8.6029810  20.7367380  66.3504590   9.9871950
  21.1185960  70.3818910  11.2623120  20.8214250  69.7764380  10.5830900
  22.0685780  70.4196220  11.1512480  19.3632880  63.4694560  12.8782950
  19.9147470  63.5789900  12.1036200  19.8776390  63.8432160  13.5938180
  29.2071570  73.9550780  14.9246220  28.7302130  74.7622970  14.7318830
  28.5233360  73.3029110  15.0772430  20.2104390  70.1200600  17.9130920
  19.3132920  70.3440570  18.1604320  20.2357260  70.2435540  16.9642320
  27.2509610  66.9693720   3.8272180  27.6902890  66.1316150   3.6810000
  27.9638030  67.6023120   3.9136320  19.0375610  66.9913920  16.4888290
  18.8983380  67.8636720  16.8575690  18.1556970  66.6486730  16.3436230
  25.3604990  71.9089790   7.7953420  25.8000900  72.6514120   7.3808810
  25.2991880  72.1516360   8.7192380  20.8355960  72.9335620  18.6973440
  20.8071390  73.3378570  17.8301870  20.6720930  72.0045980  18.5345040
  30.8326750  58.2236530   2.1413220  30.5199410  58.3163360   3.0412290
  31.5939220  58.8017560   2.0910650  17.3508890  65.5896330   6.5990560
  17.2306490  66.3158420   5.9871830  17.0409780  64.8199240   6.1218470
  14.9894260  68.7611470  12.4059200  15.0674680  68.8960240  11.4614920
  15.6035940  68.0527360  12.5987320  16.2341890  70.4611660   8.8165380
  15.8269970  70.6026250   7.9618980  17.1254900  70.1771820   8.6136590
  32.1904030  70.9075570  17.1537620  32.3167090  70.6687450  16.2354800
  32.2325410  70.0760110  17.6259700  26.0520770  74.6103570  15.7232430
  26.5665440  74.5211580  16.5254860  25.2089850  74.9563270  16.0160340
  28.0275170  74.8958910   5.1516430  27.8676310  74.6061850   6.0498260
  27.8621880  74.1199040   4.6161660  20.5063550  74.6757440   6.9288050
  20.3306030  73.7592980   6.7155850  19.6519290  75.0344730   7.1685850
  27.7301300  72.4046470   3.7114430  27.0366460  72.4023760   3.0516710
  28.4724160  71.9805790   3.2808600  27.2951230  74.0309180   7.7862920
  27.7508180  73.2498560   8.1001540  27.6343750  74.7416000   8.3304100
  32.0428040  62.9608030  18.1187360  31.4272310  63.4687700  17.5902820
  31.7224460  62.0606360  18.0613300  15.0453780  69.8025640  14.9453660
  15.2084820  69.3331000  14.1273030  15.5106230  69.2949200  15.6102500
  19.8172550  58.9331400   9.9814230  19.3740700  59.7140940   9.6498750
  20.3757540  59.2561290  10.6885170  24.1042360  61.7999920  15.5849550
  23.6421730  62.0082940  16.3969490  23.7020470  60.9859270  15.2820220
  29.1046870  63.0208870  16.7146210  28.2540460  62.7214620  17.0355280
  28.9448660  63.2650880  15.8030030  26.1996580  64.5210620  18.8145000
  26.5249990  63.6874370  18.4747230  26.9876910  65.0439140  18.9623330
  22.9331370  58.5542100   4.8620060  22.3085550  58.5501970   5.5873370
  22.8461490  57.6873060   4.4656030  21.8548450  59.4778730  11.8403830
  22.1520780  60.3841560  11.7595850  22.4034010  58.9897510  11.2263400
  19.6086770  64.0564970   7.7095480  19.3827690  63.8402140   8.6142100
  18.8279300  64.4893430   7.3641450  26.8384530  64.0628340   6.3086130
  26.2393420  64.7864140   6.1249750  27.3864140  64.0005120   5.5262580
  22.0485980  64.9550550  18.3755750  21.9529580  64.0145280  18.2256150
  22.8917960  65.1765620  17.9803820  25.4449400  62.6991880   8.3389410
  25.8378970  63.0164080   7.5258100  25.8066250  61.8203760   8.4533930
  17.1796520  61.3664220  16.5289530  16.7859910  62.2139430  16.7362310
  16.4914920  60.7290590  16.7198170  14.4813570  59.2892680  10.5619610
  14.1926620  59.8595540  11.2744590  15.2259330  58.8097130  10.9250840
  26.0304540  65.2897630  12.4340190  25.2985660  65.7984440  12.7830290
  25.6328880  64.4727610  12.1328970  22.4681930  61.9651830  10.8392680
  22.4717990  61.5241780   9.9897220  23.3633050  62.2869160  10.9464500
  18.3184310  61.8478320   9.7986890  17.9784360  62.3253550  10.5553940
  17.5561630  61.3943440   9.4387990  22.5302080  62.9663910   3.8299440
  22.6514900  62.9250390   4.7785260  22.1450590  63.8288060   3.6746170
  26.4930450  60.7431310  11.8463130  26.5103190  61.1939960  12.6904980
  26.2446030  59.8436950  12.0596570  21.5423580  65.2765050   3.2282740
  20.9740480  64.8283300   2.6018650  22.2512580  65.6357830   2.6947890
  29.9201200  58.1563490  17.6849510  30.2446970  57.4253150  18.2107490
  29.9557710  57.8377130  16.7830500  16.6192760  69.1777070  17.1049470
  16.2347550  68.5370740  17.7032430  16.9304950  69.8813190  17.6744200
  22.7689900  66.0253610  12.5858090  23.1360030  65.5512180  13.3319430
  22.5794960  66.8995180  12.9266430  15.6330390  60.7697300   8.7151560
  15.3477310  60.4052970   9.5530180  15.5709250  60.0377760   8.1014700
  20.5589270  65.0662250  14.9042300  20.2546340  65.9454230  15.1292660
  21.5135730  65.1262040  14.9399740  19.0871060  69.2723240   5.5009150
  18.3133320  68.7320860   5.3407870  19.8165690  68.7529850   5.1626910
  29.8459040  68.2688600  11.2935540  30.5658160  68.7643890  10.9031650
  29.6440860  67.5906490  10.6489410  25.3068980  59.6626560   5.4364930
  24.4933590  59.1639730   5.3610240  25.1130930  60.5024810   5.0201280
  25.2277840  68.3397660  17.1804540  25.1615150  67.4193330  16.9262130
  24.5982980  68.4373100  17.8949180  28.0217370  64.0346210   3.7327090
  28.9096990  64.3463440   3.5578430  27.9922460  63.1618460   3.3407670
  19.1308460  68.9403620   9.1387960  19.6487130  68.1371880   9.0844850
  18.6792480  68.8782760   9.9804790  24.0177960  70.2069900   4.4115260
  24.3593660  70.9512130   3.9158580  23.1890670  70.5201020   4.7740090
  16.6153000  65.9064990  16.0513660  16.2567940  66.5718840  16.6387000
  16.3207560  65.0748540  16.4226280  19.8166120  66.3649230  18.9353210
  19.5166260  66.5106410  18.0381030  20.5877360  65.8054520  18.8426600
  25.1594570  71.1618230  16.9308340  25.1739110  70.2299190  16.7127250
  24.4519670  71.2477990  17.5698110  30.2931640  65.3458050   3.2006950
  30.2095360  65.7772270   2.3503390  31.0125830  65.8056400   3.6333770
  31.3705780  67.8025570  16.2776920  30.6453970  68.3954350  16.0806310
  31.8981240  67.7949110  15.4790290  31.3218890  72.2000310   5.9289080
  30.6795050  71.5455930   6.2032800  30.9349550  72.6055400   5.1529750
  26.9005370  69.5285740   9.7760770  27.2529190  68.9313870   9.1162140
  26.0167700  69.2029970   9.9469020  22.9868650  70.2883430   7.1831180
  23.6739780  70.8352640   7.5638770  22.2001070  70.8324160   7.2180790
  15.1261050  65.9056250   2.6748260  15.9955900  66.1881050   2.9584180
  14.6351370  66.7192120   2.5597070  22.2895860  67.2929460   6.7956540
  22.7458640  68.1034710   7.0216730  21.9384070  66.9752600   7.6275030
  24.5928470  72.8035800  14.0248840  25.2370690  73.0095180  14.7022260
  24.9557910  72.0424200  13.5719690  18.1907640  57.6367110   7.2679060
  18.0622270  57.6285010   8.2163980  17.3669660  57.9750200   6.9170070
  25.8660550  70.8068150  12.7426290  26.5082780  70.1061310  12.8558460
  26.3909900  71.5866590  12.5623180  29.7116270  71.0916770   2.4665430
  29.4853850  70.3747210   3.0590070  29.3212470  70.8429210   1.6287180
  27.6398170  71.6063050  15.9462350  27.9754410  72.1929740  16.6240270
  26.7198510  71.4755760  16.1760140  15.4932300  75.1183630   3.2409890
  15.8529940  75.7172970   2.5867160  15.3524640  75.6643520   4.0144920
  15.1901570  59.3958230  16.7285760  14.4760090  59.5955150  17.3338370
  15.6096610  58.6197800  17.1000560  29.2932520  69.0088710   4.1279590
  29.0054220  69.4701400   4.9157470  30.0884690  68.5486480   4.3963810
  15.4774160  73.3838490  17.7152290  15.5865280  72.4433230  17.5747680
  14.8254720  73.6493240  17.0666020  23.4686750  71.6554380  19.1150410
  23.1483620  70.9363620  19.6596100  22.7945110  72.3309450  19.1886470
  21.5100920  72.5014830   4.0583560  21.5011020  73.2344520   3.4428070
  20.5899280  72.2546410   4.1510520  17.1107560  67.7229720   4.8030320
  16.5035510  68.4628620   4.8125620  17.5856910  67.8129080   3.9768520
  26.6840350  61.8880540  14.4787210  27.0521170  61.0675750  14.8066780
  25.8238550  61.9482430  14.8942860  30.0502380  60.8437480   5.2874770
  29.4215540  60.9483150   4.5733000  29.5554300  61.0634260   6.0768650
  24.4960520  72.5643070   2.7208750  24.5972500  72.3607060   1.7910730
  23.5962260  72.3101350   2.9256530  22.0186410  63.1223430   6.7032650
  21.3102560  63.5909770   7.1446260  22.3030890  62.4645440   7.3377840
  23.6442340  64.5420130  14.7025180  24.1427590  65.0165950  15.3677030
  23.7865290  63.6183650  14.9095210  26.0501840  59.8474090   8.1428440
  25.9269620  59.8660220   7.1937950  26.9986400  59.8953030   8.2626840
  23.1378630  75.0829390   7.4156420  23.3920130  75.0450780   6.4935790
  22.1891110  74.9562720   7.4084670  20.2221430  61.4308510   4.0783360
  21.0711960  61.8678660   4.0123550  19.8552700  61.7428770   4.9055420
  30.8509200  60.7588090  15.5453570  30.3482800  61.4993490  15.8847380
  31.6665860  61.1472090  15.2290360  29.1431210  66.0021270   8.9914930
  28.2021350  66.0171500   9.1662620  29.4575280  65.2157230   9.4375230
  19.1212850  67.6840870   2.5518890  19.8876120  67.5722230   3.1144320
  19.1987540  66.9878840   1.8995660  17.8159610  65.1165940   3.2351780
  17.8963200  64.1693450   3.3469180  18.7079360  65.4472820   3.3412440
  31.1456790  73.1730120  10.6669190  31.2704210  73.9961290  11.1393000
  32.0122350  72.9620850  10.3193340  18.6174320  75.2661330  10.3386320
  19.3536800  74.7176790  10.6094890  19.0015240  76.1317340  10.1992310
  15.5019800  71.3334900   6.2127830  14.5759580  71.5756040   6.2033240
  15.9676230  72.1609160   6.0912580  17.6232600  74.4507400  19.5271900
  18.4245330  74.7719450  19.9407300  17.1084420  74.0902980  20.2491810
  26.4597230  70.5587270  19.4747310  25.8535390  70.5818870  18.7343060
  26.1551340  69.8270310  20.0114560  27.8897600  74.2867560  18.0856720
  28.8419350  74.2025580  18.0356960  27.7425820  74.9509270  18.7590510
  30.7806800  73.6661770   3.5848630  30.4948310  73.2526910   2.7702810
  30.5826350  74.5949480   3.4649150  15.3430410  66.9380860  18.4707950
  15.8469430  66.3588140  19.0424180  14.6037830  67.2221090  19.0084320
  22.3968350  68.3451850  18.0043470  21.6314020  68.9136850  17.9198140
  22.5784310  68.0528060  17.1111700  25.4856760  68.7215080   2.6296230
  24.9366860  69.1684380   3.2738970  26.1076020  68.2164330   3.1533900
  29.5391700  70.0757180  18.5618490  30.2801170  70.4132940  18.0585950
  28.7764380  70.2449240  18.0088260  17.3753490  65.0810450  19.3658020
  17.4158830  64.7824320  20.2743250  18.2298990  65.4818060  19.2065540
  21.1531880  67.6806000   4.5261530  21.5748300  67.5145870   5.3692920
  21.2782720  66.8706230   4.0316670  19.3159300  63.6602550  17.3332510
  18.7855760  63.1693500  16.7055850  19.9847370  64.0886750  16.7990440
  28.2137360  68.1272010  17.0973700  28.6278380  68.2817090  17.9464120
  27.2788360  68.2527230  17.2599480  28.6859530  65.4668170  19.1012850
  29.2680300  64.7120490  19.0133330  28.8621300  65.9975610  18.3244330
  19.8031600  60.6264920  17.4129800  19.7088470  60.0085670  16.6880670
  19.2228990  61.3531210  17.1859710  22.5693040  59.1838160  14.4457190
  22.1210340  59.2062420  13.6002740  21.9358240  58.7857180  15.0427490
  22.9752590  68.0792490  15.0669630  23.3940700  68.9225220  14.8945870
  22.0561220  68.2164530  14.8376410  25.3116490  65.8108670  16.4507470
  25.4312700  65.2149810  17.1902310  26.1710490  65.8478360  16.0308770
  27.6504390  66.3645860  15.0269980  27.1239610  66.8888480  14.4235120
  27.9935730  66.9973250  15.6579710  20.8260010  74.3845500  16.1827360
  20.2881100  75.1091560  15.8636060  21.0793970  73.9075840  15.3924700
  22.0785260  62.3530020  17.7083290  22.6684950  62.0445870  18.3961110
  21.2605500  61.8809770  17.8643190  26.8978690  61.9695830  17.9416310
  26.2094210  61.3077370  17.8766300  27.6184710  61.5234100  18.3864770
  27.5279090  58.5647460   4.0006570  27.8081380  57.7215360   4.3565990
  26.7544820  58.7970570   4.5145320  23.6822220  75.6196710  16.4414010
  23.6080920  76.5231850  16.7486380  22.7801060  75.3008610  16.4136080
  22.0658510  59.7974470   2.4453770  21.7180510  59.1198460   1.8656220
  22.2671280  59.3363980   3.2597160  24.2307550  74.7855220   4.0640370
  25.1258340  75.1240190   4.0859130  24.2625180  74.0634630   3.4364650
  17.8703710  70.1582270   2.2927370  18.3078580  70.7011940   2.9484950
  18.3551440  69.3329220   2.3023710  15.0849510  72.9471300   9.7447630
  15.4152520  72.0792360   9.5126270  15.5140510  73.1529820  10.5752590
  19.6811430  71.2780310   7.4049600  19.3806970  71.1545280   8.3053510
  19.5748920  70.4188900   6.9965330  15.5739720  73.8141890  12.4829260
  15.1370710  73.9942690  13.3153410  16.1417400  74.5716510  12.3410980
  31.2101900  73.3158890  16.7706570  30.6103890  73.3751450  16.0270490
  31.3395800  72.3763870  16.9003420  32.4503350  71.0576710   2.1076280
  31.6196310  71.1253360   2.5783510  32.6275180  71.9480830   1.8043140
  31.9059810  67.8024190   4.6110480  32.6678720  68.3720840   4.7170170
  31.9214180  67.2351390   5.3818790  15.4064150  66.3262120   8.8418140
  14.7512990  66.0573760   8.1977840  16.2442100  66.2166600   8.3920120
  32.9119780  68.6574290   9.4552410  33.2828610  67.8741610   9.0488380
  33.5521710  69.3463390   9.2769710  29.8953540  70.0410870  14.8682730
  29.0813380  70.4708030  15.1308520  30.3027740  70.6529280  14.2551780
  31.9578980  68.0958560   1.7683000  32.2327820  69.0037440   1.6402220
  31.7689720  68.0321090   2.7044990  28.3554590  61.1203410   3.0636630
  28.7739470  60.9334390   2.2233290  28.0490650  60.2682460   3.3739560
  31.8544320  66.0327550   6.7612430  31.4787920  65.2655480   6.3293720
  31.1247440  66.4150250   7.2487360  16.4440080  66.7114690  13.3821480
  16.8113120  66.6242090  14.2617500  15.8750900  65.9481240  13.2828340
  31.2443940  65.1799070  16.3951950  31.0130030  64.9511820  15.4949900
  31.5048490  66.0998620  16.3496840  15.9956080  63.6223780  17.2879900
  15.1012130  63.5890540  17.6273610  16.5353630  63.8210570  18.0531150
  29.6832010  60.4055500  19.1731650  30.5602190  60.4138900  19.5565650
  29.6952850  59.6686340  18.5624000  14.6202230  63.5361050   4.7843470
  13.7166310  63.7991250   4.6095130  15.1042850  63.8072220   4.0043430
  31.1295280  64.2585040  10.0619670  31.6532760  63.7647690   9.4309840
  31.7154700  64.3935400  10.8067240  31.3085000  64.3424910  13.5839220
  30.3587710  64.3088450  13.6984210  31.4898010  65.2525020  13.3488990
  17.1629440  62.5926590   2.6937850  17.8721140  62.1709810   2.2085130
  16.4469380  62.6601820   2.0621200  30.6195250  63.5158390   6.0012080
  31.1154370  63.2829260   6.7860960  30.4211320  62.6770230   5.5849720
  16.4995790  57.8972110  11.6363120  17.1471980  57.3469490  11.1958280
  16.9197630  58.1515260  12.4578930  32.0482410  62.1519340   8.5349760
  31.9381690  61.9975380   9.4732030  32.8090000  61.6240280   8.2925170
  30.3948130  58.0913470  14.9932760  31.0320350  58.7047610  15.3591950
  30.5423020  58.1274130  14.0481990  32.9372680  59.9827260   1.7755900
  33.8621990  59.8508440   1.5674190  32.9148470  60.0620080   2.7292350
  33.0111170  60.7537920   4.4012610  32.2162670  60.6883040   4.9305520
  33.2154450  61.6888560   4.3897960  29.9529590  74.7929470   8.3951000
  30.5488660  74.4714040   7.7185420  30.2107740  74.3201290   9.1864270
  16.2527790  58.0527780  14.3788440  15.9042610  58.5091600  15.1446620
  15.9215490  57.1584910  14.4610870  17.8592160  71.2247380  18.5441630
  17.8161790  70.8540290  19.4256090  17.9903170  72.1624950  18.6843450
  21.5598190  72.7806970  14.1451350  21.3189550  73.0481530  13.2581870
  22.5000830  72.9512700  14.2002210  23.7652610  59.2439660  17.9007860
  23.7041500  59.8361490  18.6503270  24.7052990  59.1365620  17.7558120
  26.4027170  58.9009720  17.5400150  27.0167580  59.2189010  16.8781230
  26.9476730  58.4158310  18.1596010  32.8202350  74.8001350  14.9461990
  32.3260630  75.1970220  14.2289120  32.2115640  74.1750560  15.3399270
  16.9248430  57.5803980  17.6539210  17.4731420  57.3992030  16.8905320
  16.9903740  56.7898090  18.1895520  17.6980190  74.1709630  15.6639410
  17.1040510  74.0394330  16.4029450  17.6904030  73.3347770  15.1981510
  27.1435210  57.4641860  13.8669440  26.2695050  57.7976970  13.6642370
  27.0345960  56.9915040  14.6921310  28.0507190  59.6712730  15.2511160
  27.7220550  58.8564490  14.8712890  28.9989490  59.6282540  15.1276850
  30.5041800  75.4424770  12.2248730  30.0444770  76.1940580  11.8506750
  29.8754260  74.7231240  12.1663530  17.3292420  71.5368010  14.6147450
  16.6026480  70.9173300  14.5473400  17.3901570  71.9308620  13.7445530
  20.9337520  73.7513010  11.3996860  21.4502540  73.1400370  10.8745120
  21.5834900  74.2541790  11.8907870  23.6733020  74.6421500  12.2265840
  23.9610830  74.3875800  11.3498850  24.1856240  74.0898860  12.8171410
  24.8910030  58.3811700  12.8062350  24.1081820  58.8557200  13.0859110
  24.5972960  57.4766530  12.6975530  29.4431100  59.0834800  10.8511440
  29.8839190  59.0279900  10.0033040  29.1738690  59.9992810  10.9221620
  31.3069670  58.7150040   8.8620260  31.2458070  57.7711260   8.7151280
  32.0861700  58.8230130   9.4073720  15.6122420  74.8542400   7.8244210
  15.4444460  74.2213080   8.5226100  14.7456930  75.0601800   7.4738400
  16.2350440  58.6859180   5.3276070  16.9929800  58.7988060   4.7540100
  15.7727610  59.5228380   5.2819500  22.7764250  60.7998450   8.3178380
  21.9638760  60.4255340   7.9774260  23.2805890  60.0443530   8.6199570
  27.2789230  57.4640900   9.5561450  27.8818600  58.0361110  10.0309970
  26.5382220  58.0280340   9.3335350  30.4223830  57.8662460   4.8301730
  30.6174460  58.7645910   5.0969160  29.6353700  57.6349540   5.3234680
  17.2185120  73.5475630   5.2694350  16.6932740  73.9283660   4.5656310
  17.1429700  74.1726400   5.9904060  18.6075590  59.2123230   3.8678040
  19.1368350  58.4253030   3.7385990  19.2403910  59.8914420   4.1013570
  20.8013430  58.9498370   6.9223430  20.1716170  58.2485680   7.0893560
  20.2618570  59.7102500   6.7056590  23.7405380  75.5637600  19.5934040
  24.6672690  75.3281870  19.6370000  23.7255810  76.3909600  19.1120070
  31.9750440  75.1063170   6.5908290  32.1502630  74.4200910   5.9469210
  31.2772010  75.6310220   6.1984960  20.9268990  58.2282350  19.3575920
  20.6453260  58.7315950  18.5936740  21.3088690  57.4304100  18.9918050
  19.8178090  75.4958010   4.1443600  20.5496910  75.2117290   3.5967490
  20.0771760  75.2571290   5.0342980  18.9792880  71.6122740   4.1489930
  18.3501760  72.0807840   4.6975760  19.0940710  70.7671960   4.5836120
  27.5284450  57.6435930  19.9356390  27.4149900  57.9630540  20.8307910
  28.3454190  58.0448440  19.6393670  30.3082940  74.7907460  19.4175080
  31.1008260  74.2956690  19.2101040  30.6016090  75.4697600  20.0250690
  26.4342600  46.8884910  65.3965090  26.3536650  45.9739520  65.1256800
  26.0207020  47.3851980  64.6904800  24.5660640  48.6663930  67.2774360
  23.7902740  48.1864370  67.5672930  25.2173570  47.9869580  67.1030520
  18.5826470  48.9783740  68.1550120  17.7511350  48.7232450  68.5546630
  19.1907450  49.0494510  68.8908040  28.5868070  53.0724120  66.0573490
  28.1249600  52.3011360  66.3860660  29.3993620  53.0990190  66.5625940
  18.5627730  53.0123830  68.3508140  18.8655770  52.1221570  68.1718360
  19.3071320  53.5694050  68.1230390  16.9918420  43.9385630  61.9392510
  16.1035120  44.2801600  61.8372390  17.2759610  43.7385950  61.0473340
  14.9551430  46.5391280  67.8232210  15.5267540  45.7713480  67.8235850
  14.9552970  46.8380040  66.9138820  24.8131380  55.3582130  65.6777480
  24.1942820  55.8139630  65.1071920  25.6683160  55.5133590  65.2767180
  24.0069630  51.3421120  67.2844520  23.9377910  50.4011060  67.1233650
  24.7689490  51.4322530  67.8567090  16.1976300  41.9475640  69.6101140
  16.0179140  41.0501390  69.8903900  15.7956380  42.4947510  70.2848090
  25.0374800  44.1491500  67.5113450  25.4139620  43.2763380  67.3987120
  24.9394310  44.4850200  66.6203890  19.1679810  42.5217130  62.9730890
  19.2746560  43.4220860  63.2799650  18.2572170  42.4735100  62.6825540
  28.8198920  41.6441940  64.4441790  29.6408540  41.1538510  64.4867270
  28.8533000  42.2339600  65.1973630  16.8162970  44.4436140  68.2183480
  17.4973080  44.7074510  68.8370880  16.5011020  43.6037010  68.5521490
  21.0087540  45.4903500  67.3056070  21.5165760  45.9884470  67.9461090
  21.5400780  44.7138700  67.1295430  33.1098470  43.6608690  71.0085420
  32.4050640  44.0490400  70.4900530  33.3756390  44.3558980  71.6106350
  19.2923640  40.1302060  71.5719490  19.2942080  40.6474450  70.7665390
  18.4627950  39.6532240  71.5489420  25.6794730  50.2421370  63.0709390
  25.0612000  50.7070820  62.5072110  26.1917980  50.9348850  63.4878900
  20.5426490  49.7697240  69.7492990  20.2095870  50.3966160  70.3914060
  20.7193170  50.2959120  68.9694660  29.0560400  43.5842320  67.2169330
  28.3515970  43.8727210  67.7972440  29.4172560  44.3942430  66.8568890
  18.9738970  41.8412020  69.5789940  19.3155780  42.6854070  69.2843810
  18.0354780  41.9895760  69.6955280  19.7545590  51.7378040  71.5642170
  20.3719590  52.4129120  71.2826620  18.8938710  52.1466020  71.4729670
  15.0477930  50.9277900  60.4449020  14.6705910  51.4165000  59.7133920
  15.3051000  51.6003180  61.0755550  30.6723180  53.2017450  69.4796810
  29.9886700  53.8716560  69.4713480  31.2117470  53.3998100  68.7141670
  32.1247320  43.0297110  67.6078540  31.1772230  43.0636090  67.7393970
  32.4497310  43.8436060  67.9927900  22.6566860  39.3294290  65.9034530
  22.9641840  38.7741180  65.1870030  21.7267560  39.4638750  65.7207520
  28.2081920  55.0461580  68.1941990  28.2209080  54.6423870  67.3264250
  27.6557140  55.8208870  68.0903420  29.5027340  51.7677800  63.2832160
  29.3923670  50.8252130  63.4081580  29.4995590  52.1293440  64.1694920
  27.6067360  49.9491420  69.5224600  28.0236150  49.7351530  68.6878060
  28.3307180  50.2064210  70.0933220  25.0447620  47.3943120  62.6394650
  24.1176900  47.3280500  62.8683120  25.1972440  48.3323250  62.5249890
  25.0316700  43.6660120  59.6361810  24.0920370  43.8274080  59.7214270
  25.3499960  44.3845800  59.0897800  31.5529460  48.3478640  69.6140840
  30.7248090  48.4171730  69.1390970  32.1479940  48.9332950  69.1456670
  29.0744910  48.9563420  63.1429900  28.4557330  48.6182970  62.4956200
  29.0569360  48.3123180  63.8509090  28.5171470  45.1347960  70.5595710
  28.1042650  45.9601670  70.8135700  27.7847420  44.5493000  70.3672070
  20.6504260  47.9207860  65.4214380  20.2461260  47.2085110  64.9260280
  20.7367380  47.5761100  66.3102420  21.1185960  51.6075420  67.5853590
  20.8214250  51.0020890  66.9061370  22.0685780  51.6452730  67.4742950
  19.3632880  44.6951070  69.2013420  19.9147470  44.8046410  68.4266670
  19.8776390  45.0688670  69.9168650  29.2071570  55.1807290  71.2476690
  28.7302130  55.9879480  71.0549300  28.5233360  54.5285620  71.4002900
  20.2104390  51.3457110  74.2361390  19.3132920  51.5697080  74.4834790
  20.2357260  51.4692050  73.2872790  27.2509610  48.1950230  60.1502650
  27.6902890  47.3572660  60.0040470  27.9638030  48.8279630  60.2366790
  19.0375610  48.2170430  72.8118760  18.8983380  49.0893230  73.1806160
  18.1556970  47.8743240  72.6666700  25.3604990  53.1346300  64.1183890
  25.8000900  53.8770630  63.7039280  25.2991880  53.3772870  65.0422850
  20.8355960  54.1592130  75.0203910  20.8071390  54.5635080  74.1532340
  20.6720930  53.2302490  74.8575510  30.8326750  39.4493040  58.4643690
  30.5199410  39.5419870  59.3642760  31.5939220  40.0274070  58.4141120
  17.3508890  46.8152840  62.9221030  17.2306490  47.5414930  62.3102300
  17.0409780  46.0455750  62.4448940  14.9894260  49.9867980  68.7289670
  15.0674680  50.1216750  67.7845390  15.6035940  49.2783870  68.9217790
  16.2341890  51.6868170  65.1395850  15.8269970  51.8282760  64.2849450
  17.1254900  51.4028330  64.9367060  32.1904030  52.1332080  73.4768090
  32.3167090  51.8943960  72.5585270  32.2325410  51.3016620  73.9490170
  26.0520770  55.8360080  72.0462900  26.5665440  55.7468090  72.8485330
  25.2089850  56.1819780  72.3390810  28.0275170  56.1215420  61.4746900
  27.8676310  55.8318360  62.3728730  27.8621880  55.3455550  60.9392130
  20.5063550  55.9013950  63.2518520  20.3306030  54.9849490  63.0386320
  19.6519290  56.2601240  63.4916320  27.7301300  53.6302980  60.0344900
  27.0366460  53.6280270  59.3747180  28.4724160  53.2062300  59.6039070
  27.2951230  55.2565690  64.1093390  27.7508180  54.4755070  64.4232010
  27.6343750  55.9672510  64.6534570  32.0428040  44.1864540  74.4417830
  31.4272310  44.6944210  73.9133290  31.7224460  43.2862870  74.3843770
  15.0453780  51.0282150  71.2684130  15.2084820  50.5587510  70.4503500
  15.5106230  50.5205710  71.9332970  19.8172550  40.1587910  66.3044700
  19.3740700  40.9397450  65.9729220  20.3757540  40.4817800  67.0115640
  24.1042360  43.0256430  71.9080020  23.6421730  43.2339450  72.7199960
  23.7020470  42.2115780  71.6050690  29.1046870  44.2465380  73.0376680
  28.2540460  43.9471130  73.3585750  28.9448660  44.4907390  72.1260500
  26.1996580  45.7467130  75.1375470  26.5249990  44.9130880  74.7977700
  26.9876910  46.2695650  75.2853800  22.9331370  39.7798610  61.1850530
  22.3085550  39.7758480  61.9103840  22.8461490  38.9129570  60.7886500
  21.8548450  40.7035240  68.1634300  22.1520780  41.6098070  68.0826320
  22.4034010  40.2154020  67.5493870  19.6086770  45.2821480  64.0325950
  19.3827690  45.0658650  64.9372570  18.8279300  45.7149940  63.6871920
  26.8384530  45.2884850  62.6316600  26.2393420  46.0120650  62.4480220
  27.3864140  45.2261630  61.8493050  22.0485980  46.1807060  74.6986220
  21.9529580  45.2401790  74.5486620  22.8917960  46.4022130  74.3034290
  25.4449400  43.9248390  64.6619880  25.8378970  44.2420590  63.8488570
  25.8066250  43.0460270  64.7764400  17.1796520  42.5920730  72.8520000
  16.7859910  43.4395940  73.0592780  16.4914920  41.9547100  73.0428640
  14.4813570  40.5149190  66.8850080  14.1926620  41.0852050  67.5975060
  15.2259330  40.0353640  67.2481310  14.6683800  44.4569310  58.0952800
  14.5858470  45.4000070  58.2367790  14.3166860  44.3144220  57.2165150
  26.0304540  46.5154140  68.7570660  25.2985660  47.0240950  69.1060760
  25.6328880  45.6984120  68.4559440  22.4681930  43.1908340  67.1623150
  22.4717990  42.7498290  66.3127690  23.3633050  43.5125670  67.2694970
  18.3184310  43.0734830  66.1217360  17.9784360  43.5510060  66.8784410
  17.5561630  42.6199950  65.7618460  22.5302080  44.1920420  60.1529910
  22.6514900  44.1506900  61.1015730  22.1450590  45.0544570  59.9976640
  26.4930450  41.9687820  68.1693600  26.5103190  42.4196470  69.0135450
  26.2446030  41.0693460  68.3827040  21.5423580  46.5021560  59.5513210
  20.9740480  46.0539810  58.9249120  22.2512580  46.8614340  59.0178360
  29.9201200  39.3820000  74.0079980  30.2446970  38.6509660  74.5337960
  29.9557710  39.0633640  73.1060970  16.6192760  50.4033580  73.4279940
  16.2347550  49.7627250  74.0262900  16.9304950  51.1069700  73.9974670
  22.7689900  47.2510120  68.9088560  23.1360030  46.7768690  69.6549900
  22.5794960  48.1251690  69.2496900  15.6330390  41.9953810  65.0382030
  15.3477310  41.6309480  65.8760650  15.5709250  41.2634270  64.4245170
  20.5589270  46.2918760  71.2272770  20.2546340  47.1710740  71.4523130
  21.5135730  46.3518550  71.2630210  19.0871060  50.4979750  61.8239620
  18.3133320  49.9577370  61.6638340  19.8165690  49.9786360  61.4857380
  29.8459040  49.4945110  67.6166010  30.5658160  49.9900400  67.2262120
  29.6440860  48.8163000  66.9719880  25.3068980  40.8883070  61.7595400
  24.4933590  40.3896240  61.6840710  25.1130930  41.7281320  61.3431750
  25.2277840  49.5654170  73.5035010  25.1615150  48.6449840  73.2492600
  24.5982980  49.6629610  74.2179650  28.0217370  45.2602720  60.0557560
  28.9096990  45.5719950  59.8808900  27.9922460  44.3874970  59.6638140
  19.1308460  50.1660130  65.4618430  19.6487130  49.3628390  65.4075320
  18.6792480  50.1039270  66.3035260  24.0177960  51.4326410  60.7345730
  24.3593660  52.1768640  60.2389050  23.1890670  51.7457530  61.0970560
  16.6153000  47.1321500  72.3744130  16.2567940  47.7975350  72.9617470
  16.3207560  46.3005050  72.7456750  19.8166120  47.5905740  75.2583680
  19.5166260  47.7362920  74.3611500  20.5877360  47.0311030  75.1657070
  25.1594570  52.3874740  73.2538810  25.1739110  51.4555700  73.0357720
  24.4519670  52.4734500  73.8928580  30.2931640  46.5714560  59.5237420
  30.2095360  47.0028780  58.6733860  31.0125830  47.0312910  59.9564240
  31.3705780  49.0282080  72.6007390  30.6453970  49.6210860  72.4036780
  31.8981240  49.0205620  71.8020760  31.3218890  53.4256820  62.2519550
  30.6795050  52.7712440  62.5263270  30.9349550  53.8311910  61.4760220
  26.9005370  50.7542250  66.0991240  27.2529190  50.1570380  65.4392610
  26.0167700  50.4286480  66.2699490  22.9868650  51.5139940  63.5061650
  23.6739780  52.0609150  63.8869240  22.2001070  52.0580670  63.5411260
  15.1261050  47.1312760  58.9978730  15.9955900  47.4137560  59.2814650
  14.6351370  47.9448630  58.8827540  22.2895860  48.5185970  63.1187010
  22.7458640  49.3291220  63.3447200  21.9384070  48.2009110  63.9505500
  24.5928470  54.0292310  70.3479310  25.2370690  54.2351690  71.0252730
  24.9557910  53.2680710  69.8950160  18.1907640  38.8623620  63.5909530
  18.0622270  38.8541520  64.5394450  17.3669660  39.2006710  63.2400540
  25.8660550  52.0324660  69.0656760  26.5082780  51.3317820  69.1788930
  26.3909900  52.8123100  68.8853650  29.7116270  52.3173280  58.7895900
  29.4853850  51.6003720  59.3820540  29.3212470  52.0685720  57.9517650
  27.6398170  52.8319560  72.2692820  27.9754410  53.4186250  72.9470740
  26.7198510  52.7012270  72.4990610  15.4932300  56.3440140  59.5640360
  15.8529940  56.9429480  58.9097630  15.3524640  56.8900030  60.3375390
  15.1901570  40.6214740  73.0516230  14.4760090  40.8211660  73.6568840
  15.6096610  39.8454310  73.4231030  29.2932520  50.2345220  60.4510060
  29.0054220  50.6957910  61.2387940  30.0884690  49.7742990  60.7194280
  15.4774160  54.6095000  74.0382760  15.5865280  53.6689740  73.8978150
  14.8254720  54.8749750  73.3896490  23.4686750  52.8810890  75.4380880
  23.1483620  52.1620130  75.9826570  22.7945110  53.5565960  75.5116940
  21.5100920  53.7271340  60.3814030  21.5011020  54.4601030  59.7658540
  20.5899280  53.4802920  60.4740990  17.1107560  48.9486230  61.1260790
  16.5035510  49.6885130  61.1356090  17.5856910  49.0385590  60.2998990
  26.6840350  43.1137050  70.8017680  27.0521170  42.2932260  71.1297250
  25.8238550  43.1738940  71.2173330  30.0502380  42.0693990  61.6105240
  29.4215540  42.1739660  60.8963470  29.5554300  42.2890770  62.3999120
  24.4960520  53.7899580  59.0439220  24.5972500  53.5863570  58.1141200
  23.5962260  53.5357860  59.2487000  22.0186410  44.3479940  63.0263120
  21.3102560  44.8166280  63.4676730  22.3030890  43.6901950  63.6608310
  23.6442340  45.7676640  71.0255650  24.1427590  46.2422460  71.6907500
  23.7865290  44.8440160  71.2325680  26.0501840  41.0730600  64.4658910
  25.9269620  41.0916730  63.5168420  26.9986400  41.1209540  64.5857310
  23.1378630  56.3085900  63.7386890  23.3920130  56.2707290  62.8166260
  22.1891110  56.1819230  63.7315140  20.2221430  42.6565020  60.4013830
  21.0711960  43.0935170  60.3354020  19.8552700  42.9685280  61.2285890
  30.8509200  41.9844600  71.8684040  30.3482800  42.7250000  72.2077850
  31.6665860  42.3728600  71.5520830  29.1431210  47.2277780  65.3145400
  28.2021350  47.2428010  65.4893090  29.4575280  46.4413740  65.7605700
  19.1212850  48.9097380  58.8749360  19.8876120  48.7978740  59.4374790
  19.1987540  48.2135350  58.2226130  17.8159610  46.3422450  59.5582250
  17.8963200  45.3949960  59.6699650  18.7079360  46.6729330  59.6642910
  31.1456790  54.3986630  66.9899660  31.2704210  55.2217800  67.4623470
  32.0122350  54.1877360  66.6423810  18.6174320  56.4917840  66.6616790
  19.3536800  55.9433300  66.9325360  19.0015240  57.3573850  66.5222780
  15.5019800  52.5591410  62.5358300  14.5759580  52.8012550  62.5263710
  15.9676230  53.3865670  62.4143050  21.7276630  55.6648150  58.4842360
  22.5205240  55.9536980  58.0324150  21.2080980  55.2340320  57.8054840
  27.8897600  55.5124070  74.4087190  28.8419350  55.4282090  74.3587430
  27.7425820  56.1765780  75.0820980  30.7806800  54.8918280  59.9079100
  30.4948310  54.4783420  59.0933280  30.5826350  55.8205990  59.7879620
  15.3430410  48.1637370  74.7938420  15.8469430  47.5844650  75.3654650
  14.6037830  48.4477600  75.3314790  22.2454030  50.8851560  58.3484710
  22.1404670  50.2703910  59.0746090  22.0778250  50.3617450  57.5647720
  22.3968350  49.5708360  74.3273940  21.6314020  50.1393360  74.2428610
  22.5784310  49.2784570  73.4342170  25.4856760  49.9471590  58.9526700
  24.9366860  50.3940890  59.5969440  26.1076020  49.4420840  59.4764370
  29.5391700  51.3013690  74.8848960  30.2801170  51.6389450  74.3816420
  28.7764380  51.4705750  74.3318730  21.1531880  48.9062510  60.8492000
  21.5748300  48.7402380  61.6923390  21.2782720  48.0962740  60.3547140
  19.3159300  44.8859060  73.6562980  18.7855760  44.3950010  73.0286320
  19.9847370  45.3143260  73.1220910  23.6659520  47.9300120  58.0969100
  24.1865180  47.2149140  57.7310250  24.3127920  48.5685990  58.3969610
  28.2137360  49.3528520  73.4204170  28.6278380  49.5073600  74.2694590
  27.2788360  49.4783740  73.5829950  28.6859530  46.6924680  75.4243320
  29.2680300  45.9377000  75.3363800  28.8621300  47.2232120  74.6474800
  19.8031600  41.8521430  73.7360270  19.7088470  41.2342180  73.0111140
  19.2228990  42.5787720  73.5090180  22.5693040  40.4094670  70.7687660
  22.1210340  40.4318930  69.9233210  21.9358240  40.0113690  71.3657960
  22.9752590  49.3049000  71.3900100  23.3940700  50.1481730  71.2176340
  22.0561220  49.4421040  71.1606880  25.3116490  47.0365180  72.7737940
  25.4312700  46.4406320  73.5132780  26.1710490  47.0734870  72.3539240
  27.6504390  47.5902370  71.3500450  27.1239610  48.1144990  70.7465590
  27.9935730  48.2229760  71.9810180  20.0490780  44.9795740  57.7950160
  19.8479840  44.1163100  58.1563500  19.8782830  44.8929100  56.8571760
  20.8260010  55.6102010  72.5057830  20.2881100  56.3348070  72.1866530
  21.0793970  55.1332350  71.7155170  22.0785260  43.5786530  74.0313760
  22.6684950  43.2702380  74.7191580  21.2605500  43.1066280  74.1873660
  26.8978690  43.1952340  74.2646780  26.2094210  42.5333880  74.1996770
  27.6184710  42.7490610  74.7095240  27.5279090  39.7903970  60.3237040
  27.8081380  38.9471870  60.6796460  26.7544820  40.0227080  60.8375790
  18.8473580  42.0796360  57.7828040  19.1499480  42.0863790  56.8747190
  19.5868170  41.7294220  58.2795700  23.6822220  56.8453220  72.7644480
  23.6080920  57.7488360  73.0716850  22.7801060  56.5265120  72.7366550
  22.0658510  41.0230980  58.7684240  21.7180510  40.3454970  58.1886690
  22.2671280  40.5620490  59.5827630  24.2307550  56.0111730  60.3870840
  25.1258340  56.3496700  60.4089600  24.2625180  55.2891140  59.7595120
  17.8703710  51.3838780  58.6157840  18.3078580  51.9268450  59.2715420
  18.3551440  50.5585730  58.6254180  15.0849510  54.1727810  66.0678100
  15.4152520  53.3048870  65.8356740  15.5140510  54.3786330  66.8983060
  19.6811430  52.5036820  63.7280070  19.3806970  52.3801790  64.6283980
  19.5748920  51.6445410  63.3195800  15.5739720  55.0398400  68.8059730
  15.1370710  55.2199200  69.6383880  16.1417400  55.7973020  68.6641450
  31.2101900  54.5415400  73.0937040  30.6103890  54.6007960  72.3500960
  31.3395800  53.6020380  73.2233890  32.4503350  52.2833220  58.4306750
  31.6196310  52.3509870  58.9013980  32.6275180  53.1737340  58.1273610
  31.9059810  49.0280700  60.9340950  32.6678720  49.5977350  61.0400640
  31.9214180  48.4607900  61.7049260  15.4064150  47.5518630  65.1648610
  14.7512990  47.2830270  64.5208310  16.2442100  47.4423110  64.7150590
  32.9119780  49.8830800  65.7782880  33.2828610  49.0998120  65.3718850
  33.5521710  50.5719900  65.6000180  29.8953540  51.2667380  71.1913200
  29.0813380  51.6964540  71.4538990  30.3027740  51.8785790  70.5782250
  31.9578980  49.3215070  58.0913470  32.2327820  50.2293950  57.9632690
  31.7689720  49.2577600  59.0275460  28.3554590  42.3459920  59.3867100
  28.7739470  42.1590900  58.5463760  28.0490650  41.4938970  59.6970030
  31.8544320  47.2584060  63.0842900  31.4787920  46.4911990  62.6524190
  31.1247440  47.6406760  63.5717830  16.4440080  47.9371200  69.7051950
  16.8113120  47.8498600  70.5847970  15.8750900  47.1737750  69.6058810
  31.2443940  46.4055580  72.7182420  31.0130030  46.1768330  71.8180370
  31.5048490  47.3255130  72.6727310  15.9956080  44.8480290  73.6110370
  15.1012130  44.8147050  73.9504080  16.5353630  45.0467080  74.3761620
  29.6832010  41.6312010  75.4962120  30.5602190  41.6395410  75.8796120
  29.6952850  40.8942850  74.8854470  14.6202230  44.7617560  61.1073940
  13.7166310  45.0247760  60.9325600  15.1042850  45.0328730  60.3273900
  31.1295280  45.4841550  66.3850140  31.6532760  44.9904200  65.7540310
  31.7154700  45.6191910  67.1297710  31.3085000  45.5681420  69.9069690
  30.3587710  45.5344960  70.0214680  31.4898010  46.4781530  69.6719460
  17.1629440  43.8183100  59.0168320  17.8721140  43.3966320  58.5315600
  16.4469380  43.8858330  58.3851670  16.8103600  39.8722430  58.0570970
  17.5331730  40.4131370  58.3752190  17.0828120  39.5985850  57.1812510
  30.6195250  44.7414900  62.3242550  31.1154370  44.5085770  63.1091430
  30.4211320  43.9026740  61.9080190  16.4995790  39.1228620  67.9593590
  17.1471980  38.5726000  67.5188750  16.9197630  39.3771770  68.7809400
  32.0482410  43.3775850  64.8580230  31.9381690  43.2231890  65.7962500
  32.8090000  42.8496790  64.6155640  30.3948130  39.3169980  71.3163230
  31.0320350  39.9304120  71.6822420  30.5423020  39.3530640  70.3712460
  32.9372680  41.2083770  58.0986370  33.8621990  41.0764950  57.8904660
  32.9148470  41.2876590  59.0522820  33.0111170  41.9794430  60.7243080
  32.2162670  41.9139550  61.2535990  33.2154450  42.9145070  60.7128430
  29.9529590  56.0185980  64.7181470  30.5488660  55.6970550  64.0415890
  30.2107740  55.5457800  65.5094740  16.2527790  39.2784290  70.7018910
  15.9042610  39.7348110  71.4677090  15.9215490  38.3841420  70.7841340
  17.8592160  52.4503890  74.8672100  17.8161790  52.0796800  75.7486560
  17.9903170  53.3881460  75.0073920  21.5598190  54.0063480  70.4681820
  21.3189550  54.2738040  69.5812340  22.5000830  54.1769210  70.5232680
  23.7652610  40.4696170  74.2238330  23.7041500  41.0618000  74.9733740
  24.7052990  40.3622130  74.0788590  26.4027170  40.1266230  73.8630620
  27.0167580  40.4445520  73.2011700  26.9476730  39.6414820  74.4826480
  32.8202350  56.0257860  71.2692460  32.3260630  56.4226730  70.5519590
  32.2115640  55.4007070  71.6629740  16.9248430  38.8060490  73.9769680
  17.4731420  38.6248540  73.2135790  16.9903740  38.0154600  74.5125990
  17.6980190  55.3966140  71.9869880  17.1040510  55.2650840  72.7259920
  17.6904030  54.5604280  71.5211980  27.1435210  38.6898370  70.1899910
  26.2695050  39.0233480  69.9872840  27.0345960  38.2171550  71.0151780
  28.0507190  40.8969240  71.5741630  27.7220550  40.0821000  71.1943360
  28.9989490  40.8539050  71.4507320  30.5041800  56.6681280  68.5479200
  30.0444770  57.4197090  68.1737220  29.8754260  55.9487750  68.4894000
  17.3292420  52.7624520  70.9377920  16.6026480  52.1429810  70.8703870
  17.3901570  53.1565130  70.0676000  20.9337520  54.9769520  67.7227330
  21.4502540  54.3656880  67.1975590  21.5834900  55.4798300  68.2138340
  23.6733020  55.8678010  68.5496310  23.9610830  55.6132310  67.6729320
  24.1856240  55.3155370  69.1401880  24.8910030  39.6068210  69.1292820
  24.1081820  40.0813710  69.4089580  24.5972960  38.7023040  69.0206000
  29.4431100  40.3091310  67.1741910  29.8839190  40.2536410  66.3263510
  29.1738690  41.2249320  67.2452090  31.3069670  39.9406550  65.1850730
  31.2458070  38.9967770  65.0381750  32.0861700  40.0486640  65.7304190
  15.6122420  56.0798910  64.1474680  15.4444460  55.4469590  64.8456570
  14.7456930  56.2858310  63.7968870  16.2350440  39.9115690  61.6506540
  16.9929800  40.0244570  61.0770570  15.7727610  40.7484890  61.6049970
  22.7764250  42.0254960  64.6408850  21.9638760  41.6511850  64.3004730
  23.2805890  41.2700040  64.9430040  27.2789230  38.6897410  65.8791920
  27.8818600  39.2617620  66.3540440  26.5382220  39.2536850  65.6565820
  30.4223830  39.0918970  61.1532200  30.6174460  39.9902420  61.4199630
  29.6353700  38.8606050  61.6465150  17.2185120  54.7732140  61.5924820
  16.6932740  55.1540170  60.8886780  17.1429700  55.3982910  62.3134530
  18.6075590  40.4379740  60.1908510  19.1368350  39.6509540  60.0616460
  19.2403910  41.1170930  60.4244040  20.8013430  40.1754880  63.2453900
  20.1716170  39.4742190  63.4124030  20.2618570  40.9359010  63.0287060
  23.7405380  56.7894110  75.9164510  24.6672690  56.5538380  75.9600470
  23.7255810  57.6166110  75.4350540  31.9750440  56.3319680  62.9138760
  32.1502630  55.6457420  62.2699680  31.2772010  56.8566730  62.5215430
  20.9268990  39.4538860  75.6806390  20.6453260  39.9572460  74.9167210
  21.3088690  38.6560610  75.3148520  19.8178090  56.7214520  60.4674070
  20.5496910  56.4373800  59.9197960  20.0771760  56.4827800  61.3573450
  18.9792880  52.8379250  60.4720400  18.3501760  53.3064350  61.0206230
  19.0940710  51.9928470  60.9066590  26.4342600  46.8884910  46.6221600
  26.3536650  45.9739520  46.3513310  26.0207020  47.3851980  45.9161310
  24.5660640  48.6663930  48.5030870  23.7902740  48.1864370  48.7929440
  25.2173570  47.9869580  48.3287030  18.5826470  48.9783740  49.3806630
  17.7511350  48.7232450  49.7803140  19.1907450  49.0494510  50.1164550
  28.5868070  53.0724120  47.2830000  28.1249600  52.3011360  47.6117170
  29.3993620  53.0990190  47.7882450  18.5627730  53.0123830  49.5764650
  18.8655770  52.1221570  49.3974870  19.3071320  53.5694050  49.3486900
  16.9918420  43.9385630  43.1649020  16.1035120  44.2801600  43.0628900
  17.2759610  43.7385950  42.2729850  14.9551430  46.5391280  49.0488720
  15.5267540  45.7713480  49.0492360  14.9552970  46.8380040  48.1395330
  24.8131380  55.3582130  46.9033990  24.1942820  55.8139630  46.3328430
  25.6683160  55.5133590  46.5023690  24.0069630  51.3421120  48.5101030
  23.9377910  50.4011060  48.3490160  24.7689490  51.4322530  49.0823600
  16.1976300  41.9475640  50.8357650  16.0179140  41.0501390  51.1160410
  15.7956380  42.4947510  51.5104600  25.0374800  44.1491500  48.7369960
  25.4139620  43.2763380  48.6243630  24.9394310  44.4850200  47.8460400
  19.1679810  42.5217130  44.1987400  19.2746560  43.4220860  44.5056160
  18.2572170  42.4735100  43.9082050  28.8198920  41.6441940  45.6698300
  29.6408540  41.1538510  45.7123780  28.8533000  42.2339600  46.4230140
  16.8162970  44.4436140  49.4439990  17.4973080  44.7074510  50.0627390
  16.5011020  43.6037010  49.7778000  21.0087540  45.4903500  48.5312580
  21.5165760  45.9884470  49.1717600  21.5400780  44.7138700  48.3551940
  33.1098470  43.6608690  52.2341930  32.4050640  44.0490400  51.7157040
  33.3756390  44.3558980  52.8362860  19.2923640  40.1302060  52.7976000
  19.2942080  40.6474450  51.9921900  18.4627950  39.6532240  52.7745930
  25.6794730  50.2421370  44.2965900  25.0612000  50.7070820  43.7328620
  26.1917980  50.9348850  44.7135410  20.5426490  49.7697240  50.9749500
  20.2095870  50.3966160  51.6170570  20.7193170  50.2959120  50.1951170
  29.0560400  43.5842320  48.4425840  28.3515970  43.8727210  49.0228950
  29.4172560  44.3942430  48.0825400  18.9738970  41.8412020  50.8046450
  19.3155780  42.6854070  50.5100320  18.0354780  41.9895760  50.9211790
  19.7545590  51.7378040  52.7898680  20.3719590  52.4129120  52.5083130
  18.8938710  52.1466020  52.6986180  15.0477930  50.9277900  41.6705530
  14.6705910  51.4165000  40.9390430  15.3051000  51.6003180  42.3012060
  30.6723180  53.2017450  50.7053320  29.9886700  53.8716560  50.6969990
  31.2117470  53.3998100  49.9398180  32.1247320  43.0297110  48.8335050
  31.1772230  43.0636090  48.9650480  32.4497310  43.8436060  49.2184410
  22.6566860  39.3294290  47.1291040  22.9641840  38.7741180  46.4126540
  21.7267560  39.4638750  46.9464030  28.2081920  55.0461580  49.4198500
  28.2209080  54.6423870  48.5520760  27.6557140  55.8208870  49.3159930
  29.5027340  51.7677800  44.5088670  29.3923670  50.8252130  44.6338090
  29.4995590  52.1293440  45.3951430  27.6067360  49.9491420  50.7481110
  28.0236150  49.7351530  49.9134570  28.3307180  50.2064210  51.3189730
  25.0447620  47.3943120  43.8651160  24.1176900  47.3280500  44.0939630
  25.1972440  48.3323250  43.7506400  25.0316700  43.6660120  40.8618320
  24.0920370  43.8274080  40.9470780  25.3499960  44.3845800  40.3154310
  31.5529460  48.3478640  50.8397350  30.7248090  48.4171730  50.3647480
  32.1479940  48.9332950  50.3713180  29.0744910  48.9563420  44.3686410
  28.4557330  48.6182970  43.7212710  29.0569360  48.3123180  45.0765600
  28.5171470  45.1347960  51.7852220  28.1042650  45.9601670  52.0392210
  27.7847420  44.5493000  51.5928580  20.6504260  47.9207860  46.6470890
  20.2461260  47.2085110  46.1516790  20.7367380  47.5761100  47.5358930
  21.1185960  51.6075420  48.8110100  20.8214250  51.0020890  48.1317880
  22.0685780  51.6452730  48.6999460  19.3632880  44.6951070  50.4269930
  19.9147470  44.8046410  49.6523180  19.8776390  45.0688670  51.1425160
  29.2071570  55.1807290  52.4733200  28.7302130  55.9879480  52.2805810
  28.5233360  54.5285620  52.6259410  20.2104390  51.3457110  55.4617900
  19.3132920  51.5697080  55.7091300  20.2357260  51.4692050  54.5129300
  27.2509610  48.1950230  41.3759160  27.6902890  47.3572660  41.2296980
  27.9638030  48.8279630  41.4623300  19.0375610  48.2170430  54.0375270
  18.8983380  49.0893230  54.4062670  18.1556970  47.8743240  53.8923210
  25.3604990  53.1346300  45.3440400  25.8000900  53.8770630  44.9295790
  25.2991880  53.3772870  46.2679360  20.8355960  54.1592130  56.2460420
  20.8071390  54.5635080  55.3788850  20.6720930  53.2302490  56.0832020
  30.8326750  39.4493040  39.6900200  30.5199410  39.5419870  40.5899270
  31.5939220  40.0274070  39.6397630  17.3508890  46.8152840  44.1477540
  17.2306490  47.5414930  43.5358810  17.0409780  46.0455750  43.6705450
  32.7870780  54.9419230  57.5424590  33.2630500  55.4202120  58.2213670
  33.4077940  54.8736720  56.8170090  14.9894260  49.9867980  49.9546180
  15.0674680  50.1216750  49.0101900  15.6035940  49.2783870  50.1474300
  16.2341890  51.6868170  46.3652360  15.8269970  51.8282760  45.5105960
  17.1254900  51.4028330  46.1623570  32.1904030  52.1332080  54.7024600
  32.3167090  51.8943960  53.7841780  32.2325410  51.3016620  55.1746680
  26.0520770  55.8360080  53.2719410  26.5665440  55.7468090  54.0741840
  25.2089850  56.1819780  53.5647320  28.0275170  56.1215420  42.7003410
  27.8676310  55.8318360  43.5985240  27.8621880  55.3455550  42.1648640
  20.5063550  55.9013950  44.4775030  20.3306030  54.9849490  44.2642830
  19.6519290  56.2601240  44.7172830  27.7301300  53.6302980  41.2601410
  27.0366460  53.6280270  40.6003690  28.4724160  53.2062300  40.8295580
  27.2951230  55.2565690  45.3349900  27.7508180  54.4755070  45.6488520
  27.6343750  55.9672510  45.8791080  32.0428040  44.1864540  55.6674340
  31.4272310  44.6944210  55.1389800  31.7224460  43.2862870  55.6100280
  15.0453780  51.0282150  52.4940640  15.2084820  50.5587510  51.6760010
  15.5106230  50.5205710  53.1589480  19.8172550  40.1587910  47.5301210
  19.3740700  40.9397450  47.1985730  20.3757540  40.4817800  48.2372150
  24.1042360  43.0256430  53.1336530  23.6421730  43.2339450  53.9456470
  23.7020470  42.2115780  52.8307200  29.1046870  44.2465380  54.2633190
  28.2540460  43.9471130  54.5842260  28.9448660  44.4907390  53.3517010
  26.1996580  45.7467130  56.3631980  26.5249990  44.9130880  56.0234210
  26.9876910  46.2695650  56.5110310  22.9331370  39.7798610  42.4107040
  22.3085550  39.7758480  43.1360350  22.8461490  38.9129570  42.0143010
  21.8548450  40.7035240  49.3890810  22.1520780  41.6098070  49.3082830
  22.4034010  40.2154020  48.7750380  19.6086770  45.2821480  45.2582460
  19.3827690  45.0658650  46.1629080  18.8279300  45.7149940  44.9128430
  26.8384530  45.2884850  43.8573110  26.2393420  46.0120650  43.6736730
  27.3864140  45.2261630  43.0749560  22.0485980  46.1807060  55.9242730
  21.9529580  45.2401790  55.7743130  22.8917960  46.4022130  55.5290800
  25.4449400  43.9248390  45.8876390  25.8378970  44.2420590  45.0745080
  25.8066250  43.0460270  46.0020910  17.1796520  42.5920730  54.0776510
  16.7859910  43.4395940  54.2849290  16.4914920  41.9547100  54.2685150
  23.7541570  42.6755700  57.1473250  23.0639890  42.4827900  57.7819340
  24.4973870  42.9590340  57.6797550  14.4813570  40.5149190  48.1106590
  14.1926620  41.0852050  48.8231570  15.2259330  40.0353640  48.4737820
  14.6683800  44.4569310  39.3209310  14.5858470  45.4000070  39.4624300
  14.3166860  44.3144220  38.4421660  26.0304540  46.5154140  49.9827170
  25.2985660  47.0240950  50.3317270  25.6328880  45.6984120  49.6815950
  22.4681930  43.1908340  48.3879660  22.4717990  42.7498290  47.5384200
  23.3633050  43.5125670  48.4951480  18.3184310  43.0734830  47.3473870
  17.9784360  43.5510060  48.1040920  17.5561630  42.6199950  46.9874970
  22.5302080  44.1920420  41.3786420  22.6514900  44.1506900  42.3272240
  22.1450590  45.0544570  41.2233150  26.4930450  41.9687820  49.3950110
  26.5103190  42.4196470  50.2391960  26.2446030  41.0693460  49.6083550
  21.5423580  46.5021560  40.7769720  20.9740480  46.0539810  40.1505630
  22.2512580  46.8614340  40.2434870  29.9201200  39.3820000  55.2336490
  30.2446970  38.6509660  55.7594470  29.9557710  39.0633640  54.3317480
  16.6192760  50.4033580  54.6536450  16.2347550  49.7627250  55.2519410
  16.9304950  51.1069700  55.2231180  22.7689900  47.2510120  50.1345070
  23.1360030  46.7768690  50.8806410  22.5794960  48.1251690  50.4753410
  15.6330390  41.9953810  46.2638540  15.3477310  41.6309480  47.1017160
  15.5709250  41.2634270  45.6501680  20.5589270  46.2918760  52.4529280
  20.2546340  47.1710740  52.6779640  21.5135730  46.3518550  52.4886720
  19.0871060  50.4979750  43.0496130  18.3133320  49.9577370  42.8894850
  19.8165690  49.9786360  42.7113890  29.8459040  49.4945110  48.8422520
  30.5658160  49.9900400  48.4518630  29.6440860  48.8163000  48.1976390
  25.3068980  40.8883070  42.9851910  24.4933590  40.3896240  42.9097220
  25.1130930  41.7281320  42.5688260  25.2277840  49.5654170  54.7291520
  25.1615150  48.6449840  54.4749110  24.5982980  49.6629610  55.4436160
  28.0217370  45.2602720  41.2814070  28.9096990  45.5719950  41.1065410
  27.9922460  44.3874970  40.8894650  19.1308460  50.1660130  46.6874940
  19.6487130  49.3628390  46.6331830  18.6792480  50.1039270  47.5291770
  24.0177960  51.4326410  41.9602240  24.3593660  52.1768640  41.4645560
  23.1890670  51.7457530  42.3227070  16.6153000  47.1321500  53.6000640
  16.2567940  47.7975350  54.1873980  16.3207560  46.3005050  53.9713260
  19.8166120  47.5905740  56.4840190  19.5166260  47.7362920  55.5868010
  20.5877360  47.0311030  56.3913580  25.1594570  52.3874740  54.4795320
  25.1739110  51.4555700  54.2614230  24.4519670  52.4734500  55.1185090
  30.2931640  46.5714560  40.7493930  30.2095360  47.0028780  39.8990370
  31.0125830  47.0312910  41.1820750  31.3705780  49.0282080  53.8263900
  30.6453970  49.6210860  53.6293290  31.8981240  49.0205620  53.0277270
  31.3218890  53.4256820  43.4776060  30.6795050  52.7712440  43.7519780
  30.9349550  53.8311910  42.7016730  26.9005370  50.7542250  47.3247750
  27.2529190  50.1570380  46.6649120  26.0167700  50.4286480  47.4956000
  22.9868650  51.5139940  44.7318160  23.6739780  52.0609150  45.1125750
  22.2001070  52.0580670  44.7667770  15.1261050  47.1312760  40.2235240
  15.9955900  47.4137560  40.5071160  14.6351370  47.9448630  40.1084050
  22.2895860  48.5185970  44.3443520  22.7458640  49.3291220  44.5703710
  21.9384070  48.2009110  45.1762010  24.5928470  54.0292310  51.5735820
  25.2370690  54.2351690  52.2509240  24.9557910  53.2680710  51.1206670
  18.1907640  38.8623620  44.8166040  18.0622270  38.8541520  45.7650960
  17.3669660  39.2006710  44.4657050  25.8660550  52.0324660  50.2913270
  26.5082780  51.3317820  50.4045440  26.3909900  52.8123100  50.1110160
  29.7116270  52.3173280  40.0152410  29.4853850  51.6003720  40.6077050
  29.3212470  52.0685720  39.1774160  27.6398170  52.8319560  53.4949330
  27.9754410  53.4186250  54.1727250  26.7198510  52.7012270  53.7247120
  15.4932300  56.3440140  40.7896870  15.8529940  56.9429480  40.1354140
  15.3524640  56.8900030  41.5631900  15.1901570  40.6214740  54.2772740
  14.4760090  40.8211660  54.8825350  15.6096610  39.8454310  54.6487540
  29.2932520  50.2345220  41.6766570  29.0054220  50.6957910  42.4644450
  30.0884690  49.7742990  41.9450790  15.4774160  54.6095000  55.2639270
  15.5865280  53.6689740  55.1234660  14.8254720  54.8749750  54.6153000
  23.4686750  52.8810890  56.6637390  23.1483620  52.1620130  57.2083080
  22.7945110  53.5565960  56.7373450  21.5100920  53.7271340  41.6070540
  21.5011020  54.4601030  40.9915050  20.5899280  53.4802920  41.6997500
  17.1107560  48.9486230  42.3517300  16.5035510  49.6885130  42.3612600
  17.5856910  49.0385590  41.5255500  26.6840350  43.1137050  52.0274190
  27.0521170  42.2932260  52.3553760  25.8238550  43.1738940  52.4429840
  30.0502380  42.0693990  42.8361750  29.4215540  42.1739660  42.1219980
  29.5554300  42.2890770  43.6255630  24.4960520  53.7899580  40.2695730
  24.5972500  53.5863570  39.3397710  23.5962260  53.5357860  40.4743510
  22.0186410  44.3479940  44.2519630  21.3102560  44.8166280  44.6933240
  22.3030890  43.6901950  44.8864820  23.6442340  45.7676640  52.2512160
  24.1427590  46.2422460  52.9164010  23.7865290  44.8440160  52.4582190
  26.0501840  41.0730600  45.6915420  25.9269620  41.0916730  44.7424930
  26.9986400  41.1209540  45.8113820  23.1378630  56.3085900  44.9643400
  23.3920130  56.2707290  44.0422770  22.1891110  56.1819230  44.9571650
  20.2221430  42.6565020  41.6270340  21.0711960  43.0935170  41.5610530
  19.8552700  42.9685280  42.4542400  30.8509200  41.9844600  53.0940550
  30.3482800  42.7250000  53.4334360  31.6665860  42.3728600  52.7777340
  29.1431210  47.2277780  46.5401910  28.2021350  47.2428010  46.7149600
  29.4575280  46.4413740  46.9862210  19.1212850  48.9097380  40.1005870
  19.8876120  48.7978740  40.6631300  19.1987540  48.2135350  39.4482640
  17.8159610  46.3422450  40.7838760  17.8963200  45.3949960  40.8956160
  18.7079360  46.6729330  40.8899420  31.1456790  54.3986630  48.2156170
  31.2704210  55.2217800  48.6879980  32.0122350  54.1877360  47.8680320
  18.6174320  56.4917840  47.8873300  19.3536800  55.9433300  48.1581870
  19.0015240  57.3573850  47.7479290  15.5019800  52.5591410  43.7614810
  14.5759580  52.8012550  43.7520220  15.9676230  53.3865670  43.6399560
  17.6232600  55.6763910  57.0758880  18.4245330  55.9975960  57.4894280
  17.1084420  55.3159490  57.7978790  21.7276630  55.6648150  39.7098870
  22.5205240  55.9536980  39.2580660  21.2080980  55.2340320  39.0311350
  26.4597230  51.7843780  57.0234290  25.8535390  51.8075380  56.2830040
  26.1551340  51.0526820  57.5601540  27.8897600  55.5124070  55.6343700
  28.8419350  55.4282090  55.5843940  27.7425820  56.1765780  56.3077490
  30.7806800  54.8918280  41.1335610  30.4948310  54.4783420  40.3189790
  30.5826350  55.8205990  41.0136130  15.3430410  48.1637370  56.0194930
  15.8469430  47.5844650  56.5911160  14.6037830  48.4477600  56.5571300
  22.2454030  50.8851560  39.5741220  22.1404670  50.2703910  40.3002600
  22.0778250  50.3617450  38.7904230  22.3968350  49.5708360  55.5530450
  21.6314020  50.1393360  55.4685120  22.5784310  49.2784570  54.6598680
  25.4856760  49.9471590  40.1783210  24.9366860  50.3940890  40.8225950
  26.1076020  49.4420840  40.7020880  29.5391700  51.3013690  56.1105470
  30.2801170  51.6389450  55.6072930  28.7764380  51.4705750  55.5575240
  17.3753490  46.3066960  56.9145000  17.4158830  46.0080830  57.8230230
  18.2298990  46.7074570  56.7552520  21.1531880  48.9062510  42.0748510
  21.5748300  48.7402380  42.9179900  21.2782720  48.0962740  41.5803650
  19.3159300  44.8859060  54.8819490  18.7855760  44.3950010  54.2542830
  19.9847370  45.3143260  54.3477420  23.6659520  47.9300120  39.3225610
  24.1865180  47.2149140  38.9566760  24.3127920  48.5685990  39.6226120
  28.2137360  49.3528520  54.6460680  28.6278380  49.5073600  55.4951100
  27.2788360  49.4783740  54.8086460  28.6859530  46.6924680  56.6499830
  29.2680300  45.9377000  56.5620310  28.8621300  47.2232120  55.8731310
  19.8031600  41.8521430  54.9616780  19.7088470  41.2342180  54.2367650
  19.2228990  42.5787720  54.7346690  22.5693040  40.4094670  51.9944170
  22.1210340  40.4318930  51.1489720  21.9358240  40.0113690  52.5914470
  22.9752590  49.3049000  52.6156610  23.3940700  50.1481730  52.4432850
  22.0561220  49.4421040  52.3863390  25.3116490  47.0365180  53.9994450
  25.4312700  46.4406320  54.7389290  26.1710490  47.0734870  53.5795750
  27.6504390  47.5902370  52.5756960  27.1239610  48.1144990  51.9722100
  27.9935730  48.2229760  53.2066690  20.0490780  44.9795740  39.0206670
  19.8479840  44.1163100  39.3820010  19.8782830  44.8929100  38.0828270
  20.8260010  55.6102010  53.7314340  20.2881100  56.3348070  53.4123040
  21.0793970  55.1332350  52.9411680  22.0785260  43.5786530  55.2570270
  22.6684950  43.2702380  55.9448090  21.2605500  43.1066280  55.4130170
  26.8978690  43.1952340  55.4903290  26.2094210  42.5333880  55.4253280
  27.6184710  42.7490610  55.9351750  27.5279090  39.7903970  41.5493550
  27.8081380  38.9471870  41.9052970  26.7544820  40.0227080  42.0632300
  18.8473580  42.0796360  39.0084550  19.1499480  42.0863790  38.1003700
  19.5868170  41.7294220  39.5052210  23.6822220  56.8453220  53.9900990
  23.6080920  57.7488360  54.2973360  22.7801060  56.5265120  53.9623060
  22.0658510  41.0230980  39.9940750  21.7180510  40.3454970  39.4143200
  22.2671280  40.5620490  40.8084140  24.2307550  56.0111730  41.6127350
  25.1258340  56.3496700  41.6346110  24.2625180  55.2891140  40.9851630
  17.8703710  51.3838780  39.8414350  18.3078580  51.9268450  40.4971930
  18.3551440  50.5585730  39.8510690  15.0849510  54.1727810  47.2934610
  15.4152520  53.3048870  47.0613250  15.5140510  54.3786330  48.1239570
  19.6811430  52.5036820  44.9536580  19.3806970  52.3801790  45.8540490
  19.5748920  51.6445410  44.5452310  15.5739720  55.0398400  50.0316240
  15.1370710  55.2199200  50.8640390  16.1417400  55.7973020  49.8897960
  31.2101900  54.5415400  54.3193550  30.6103890  54.6007960  53.5757470
  31.3395800  53.6020380  54.4490400  32.4503350  52.2833220  39.6563260
  31.6196310  52.3509870  40.1270490  32.6275180  53.1737340  39.3530120
  31.9059810  49.0280700  42.1597460  32.6678720  49.5977350  42.2657150
  31.9214180  48.4607900  42.9305770  15.4064150  47.5518630  46.3905120
  14.7512990  47.2830270  45.7464820  16.2442100  47.4423110  45.9407100
  32.9119780  49.8830800  47.0039390  33.2828610  49.0998120  46.5975360
  33.5521710  50.5719900  46.8256690  29.8953540  51.2667380  52.4169710
  29.0813380  51.6964540  52.6795500  30.3027740  51.8785790  51.8038760
  31.9578980  49.3215070  39.3169980  32.2327820  50.2293950  39.1889200
  31.7689720  49.2577600  40.2531970  28.3554590  42.3459920  40.6123610
  28.7739470  42.1590900  39.7720270  28.0490650  41.4938970  40.9226540
  31.8544320  47.2584060  44.3099410  31.4787920  46.4911990  43.8780700
  31.1247440  47.6406760  44.7974340  16.4440080  47.9371200  50.9308460
  16.8113120  47.8498600  51.8104480  15.8750900  47.1737750  50.8315320
  31.2443940  46.4055580  53.9438930  31.0130030  46.1768330  53.0436880
  31.5048490  47.3255130  53.8983820  15.9956080  44.8480290  54.8366880
  15.1012130  44.8147050  55.1760590  16.5353630  45.0467080  55.6018130
  29.6832010  41.6312010  56.7218630  30.5602190  41.6395410  57.1052630
  29.6952850  40.8942850  56.1110980  14.6202230  44.7617560  42.3330450
  13.7166310  45.0247760  42.1582110  15.1042850  45.0328730  41.5530410
  31.1295280  45.4841550  47.6106650  31.6532760  44.9904200  46.9796820
  31.7154700  45.6191910  48.3554220  31.3085000  45.5681420  51.1326200
  30.3587710  45.5344960  51.2471190  31.4898010  46.4781530  50.8975970
  17.1629440  43.8183100  40.2424830  17.8721140  43.3966320  39.7572110
  16.4469380  43.8858330  39.6108180  16.8103600  39.8722430  39.2827480
  17.5331730  40.4131370  39.6008700  17.0828120  39.5985850  38.4069020
  30.6195250  44.7414900  43.5499060  31.1154370  44.5085770  44.3347940
  30.4211320  43.9026740  43.1336700  16.4995790  39.1228620  49.1850100
  17.1471980  38.5726000  48.7445260  16.9197630  39.3771770  50.0065910
  32.0482410  43.3775850  46.0836740  31.9381690  43.2231890  47.0219010
  32.8090000  42.8496790  45.8412150  30.3948130  39.3169980  52.5419740
  31.0320350  39.9304120  52.9078930  30.5423020  39.3530640  51.5968970
  32.9372680  41.2083770  39.3242880  33.8621990  41.0764950  39.1161170
  32.9148470  41.2876590  40.2779330  33.0111170  41.9794430  41.9499590
  32.2162670  41.9139550  42.4792500  33.2154450  42.9145070  41.9384940
  29.9529590  56.0185980  45.9437980  30.5488660  55.6970550  45.2672400
  30.2107740  55.5457800  46.7351250  16.2527790  39.2784290  51.9275420
  15.9042610  39.7348110  52.6933600  15.9215490  38.3841420  52.0097850
  17.8592160  52.4503890  56.0928610  17.8161790  52.0796800  56.9743070
  17.9903170  53.3881460  56.2330430  21.5598190  54.0063480  51.6938330
  21.3189550  54.2738040  50.8068850  22.5000830  54.1769210  51.7489190
  23.7652610  40.4696170  55.4494840  23.7041500  41.0618000  56.1990250
  24.7052990  40.3622130  55.3045100  26.4027170  40.1266230  55.0887130
  27.0167580  40.4445520  54.4268210  26.9476730  39.6414820  55.7082990
  32.8202350  56.0257860  52.4948970  32.3260630  56.4226730  51.7776100
  32.2115640  55.4007070  52.8886250  16.9248430  38.8060490  55.2026190
  17.4731420  38.6248540  54.4392300  16.9903740  38.0154600  55.7382500
  17.6980190  55.3966140  53.2126390  17.1040510  55.2650840  53.9516430
  17.6904030  54.5604280  52.7468490  27.1435210  38.6898370  51.4156420
  26.2695050  39.0233480  51.2129350  27.0345960  38.2171550  52.2408290
  28.0507190  40.8969240  52.7998140  27.7220550  40.0821000  52.4199870
  28.9989490  40.8539050  52.6763830  30.5041800  56.6681280  49.7735710
  30.0444770  57.4197090  49.3993730  29.8754260  55.9487750  49.7150510
  17.3292420  52.7624520  52.1634430  16.6026480  52.1429810  52.0960380
  17.3901570  53.1565130  51.2932510  20.9337520  54.9769520  48.9483840
  21.4502540  54.3656880  48.4232100  21.5834900  55.4798300  49.4394850
  23.6733020  55.8678010  49.7752820  23.9610830  55.6132310  48.8985830
  24.1856240  55.3155370  50.3658390  24.8910030  39.6068210  50.3549330
  24.1081820  40.0813710  50.6346090  24.5972960  38.7023040  50.2462510
  29.4431100  40.3091310  48.3998420  29.8839190  40.2536410  47.5520020
  29.1738690  41.2249320  48.4708600  31.3069670  39.9406550  46.4107240
  31.2458070  38.9967770  46.2638260  32.0861700  40.0486640  46.9560700
  15.6122420  56.0798910  45.3731190  15.4444460  55.4469590  46.0713080
  14.7456930  56.2858310  45.0225380  16.2350440  39.9115690  42.8763050
  16.9929800  40.0244570  42.3027080  15.7727610  40.7484890  42.8306480
  22.7764250  42.0254960  45.8665360  21.9638760  41.6511850  45.5261240
  23.2805890  41.2700040  46.1686550  27.2789230  38.6897410  47.1048430
  27.8818600  39.2617620  47.5796950  26.5382220  39.2536850  46.8822330
  30.4223830  39.0918970  42.3788710  30.6174460  39.9902420  42.6456140
  29.6353700  38.8606050  42.8721660  17.2185120  54.7732140  42.8181330
  16.6932740  55.1540170  42.1143290  17.1429700  55.3982910  43.5391040
  18.6075590  40.4379740  41.4165020  19.1368350  39.6509540  41.2872970
  19.2403910  41.1170930  41.6500550  20.8013430  40.1754880  44.4710410
  20.1716170  39.4742190  44.6380540  20.2618570  40.9359010  44.2543570
  23.7405380  56.7894110  57.1421020  24.6672690  56.5538380  57.1856980
  23.7255810  57.6166110  56.6607050  31.9750440  56.3319680  44.1395270
  32.1502630  55.6457420  43.4956190  31.2772010  56.8566730  43.7471940
  20.9268990  39.4538860  56.9062900  20.6453260  39.9572460  56.1423720
  21.3088690  38.6560610  56.5405030  19.8178090  56.7214520  41.6930580
  20.5496910  56.4373800  41.1454470  20.0771760  56.4827800  42.5829960
  18.9792880  52.8379250  41.6976910  18.3501760  53.3064350  42.2462740
  19.0940710  51.9928470  42.1323100  27.5284450  38.8692440  57.4843370
  27.4149900  39.1887050  58.3794890  28.3454190  39.2704950  57.1880650
  30.3082940  56.0163970  56.9662060  31.1008260  55.5213200  56.7588020
  30.6016090  56.6954110  57.5737670  26.4342600  46.8884910  27.8478110
  26.3536650  45.9739520  27.5769820  26.0207020  47.3851980  27.1417820
  24.5660640  48.6663930  29.7287380  23.7902740  48.1864370  30.0185950
  25.2173570  47.9869580  29.5543540  18.5826470  48.9783740  30.6063140
  17.7511350  48.7232450  31.0059650  19.1907450  49.0494510  31.3421060
  28.5868070  53.0724120  28.5086510  28.1249600  52.3011360  28.8373680
  29.3993620  53.0990190  29.0138960  18.5627730  53.0123830  30.8021160
  18.8655770  52.1221570  30.6231380  19.3071320  53.5694050  30.5743410
  16.9918420  43.9385630  24.3905530  16.1035120  44.2801600  24.2885410
  17.2759610  43.7385950  23.4986360  14.9551430  46.5391280  30.2745230
  15.5267540  45.7713480  30.2748870  14.9552970  46.8380040  29.3651840
  24.8131380  55.3582130  28.1290500  24.1942820  55.8139630  27.5584940
  25.6683160  55.5133590  27.7280200  24.0069630  51.3421120  29.7357540
  23.9377910  50.4011060  29.5746670  24.7689490  51.4322530  30.3080110
  16.1976300  41.9475640  32.0614160  16.0179140  41.0501390  32.3416920
  15.7956380  42.4947510  32.7361110  25.0374800  44.1491500  29.9626470
  25.4139620  43.2763380  29.8500140  24.9394310  44.4850200  29.0716910
  19.1679810  42.5217130  25.4243910  19.2746560  43.4220860  25.7312670
  18.2572170  42.4735100  25.1338560  28.8198920  41.6441940  26.8954810
  29.6408540  41.1538510  26.9380290  28.8533000  42.2339600  27.6486650
  16.8162970  44.4436140  30.6696500  17.4973080  44.7074510  31.2883900
  16.5011020  43.6037010  31.0034510  21.0087540  45.4903500  29.7569090
  21.5165760  45.9884470  30.3974110  21.5400780  44.7138700  29.5808450
  33.1098470  43.6608690  33.4598440  32.4050640  44.0490400  32.9413550
  33.3756390  44.3558980  34.0619370  19.2923640  40.1302060  34.0232510
  19.2942080  40.6474450  33.2178410  18.4627950  39.6532240  34.0002440
  25.6794730  50.2421370  25.5222410  25.0612000  50.7070820  24.9585130
  26.1917980  50.9348850  25.9391920  20.5426490  49.7697240  32.2006010
  20.2095870  50.3966160  32.8427080  20.7193170  50.2959120  31.4207680
  29.0560400  43.5842320  29.6682350  28.3515970  43.8727210  30.2485460
  29.4172560  44.3942430  29.3081910  18.9738970  41.8412020  32.0302960
  19.3155780  42.6854070  31.7356830  18.0354780  41.9895760  32.1468300
  19.7545590  51.7378040  34.0155190  20.3719590  52.4129120  33.7339640
  18.8938710  52.1466020  33.9242690  15.0477930  50.9277900  22.8962040
  14.6705910  51.4165000  22.1646940  15.3051000  51.6003180  23.5268570
  30.6723180  53.2017450  31.9309830  29.9886700  53.8716560  31.9226500
  31.2117470  53.3998100  31.1654690  32.1247320  43.0297110  30.0591560
  31.1772230  43.0636090  30.1906990  32.4497310  43.8436060  30.4440920
  22.6566860  39.3294290  28.3547550  22.9641840  38.7741180  27.6383050
  21.7267560  39.4638750  28.1720540  28.2081920  55.0461580  30.6455010
  28.2209080  54.6423870  29.7777270  27.6557140  55.8208870  30.5416440
  29.5027340  51.7677800  25.7345180  29.3923670  50.8252130  25.8594600
  29.4995590  52.1293440  26.6207940  27.6067360  49.9491420  31.9737620
  28.0236150  49.7351530  31.1391080  28.3307180  50.2064210  32.5446240
  25.0447620  47.3943120  25.0907670  24.1176900  47.3280500  25.3196140
  25.1972440  48.3323250  24.9762910  25.0316700  43.6660120  22.0874830
  24.0920370  43.8274080  22.1727290  25.3499960  44.3845800  21.5410820
  31.5529460  48.3478640  32.0653860  30.7248090  48.4171730  31.5903990
  32.1479940  48.9332950  31.5969690  29.0744910  48.9563420  25.5942920
  28.4557330  48.6182970  24.9469220  29.0569360  48.3123180  26.3022110
  28.5171470  45.1347960  33.0108730  28.1042650  45.9601670  33.2648720
  27.7847420  44.5493000  32.8185090  20.6504260  47.9207860  27.8727400
  20.2461260  47.2085110  27.3773300  20.7367380  47.5761100  28.7615440
  21.1185960  51.6075420  30.0366610  20.8214250  51.0020890  29.3574390
  22.0685780  51.6452730  29.9255970  19.3632880  44.6951070  31.6526440
  19.9147470  44.8046410  30.8779690  19.8776390  45.0688670  32.3681670
  29.2071570  55.1807290  33.6989710  28.7302130  55.9879480  33.5062320
  28.5233360  54.5285620  33.8515920  20.2104390  51.3457110  36.6874410
  19.3132920  51.5697080  36.9347810  20.2357260  51.4692050  35.7385810
  27.2509610  48.1950230  22.6015670  27.6902890  47.3572660  22.4553490
  27.9638030  48.8279630  22.6879810  19.0375610  48.2170430  35.2631780
  18.8983380  49.0893230  35.6319180  18.1556970  47.8743240  35.1179720
  25.3604990  53.1346300  26.5696910  25.8000900  53.8770630  26.1552300
  25.2991880  53.3772870  27.4935870  20.8355960  54.1592130  37.4716930
  20.8071390  54.5635080  36.6045360  20.6720930  53.2302490  37.3088530
  30.8326750  39.4493040  20.9156710  30.5199410  39.5419870  21.8155780
  31.5939220  40.0274070  20.8654140  17.3508890  46.8152840  25.3734050
  17.2306490  47.5414930  24.7615320  17.0409780  46.0455750  24.8961960
  14.9894260  49.9867980  31.1802690  15.0674680  50.1216750  30.2358410
  15.6035940  49.2783870  31.3730810  16.2341890  51.6868170  27.5908870
  15.8269970  51.8282760  26.7362470  17.1254900  51.4028330  27.3880080
  32.1904030  52.1332080  35.9281110  32.3167090  51.8943960  35.0098290
  32.2325410  51.3016620  36.4003190  26.0520770  55.8360080  34.4975920
  26.5665440  55.7468090  35.2998350  25.2089850  56.1819780  34.7903830
  20.5063550  55.9013950  25.7031540  20.3306030  54.9849490  25.4899340
  19.6519290  56.2601240  25.9429340  27.7301300  53.6302980  22.4857920
  27.0366460  53.6280270  21.8260200  28.4724160  53.2062300  22.0552090
  27.2951230  55.2565690  26.5606410  27.7508180  54.4755070  26.8745030
  27.6343750  55.9672510  27.1047590  32.0428040  44.1864540  36.8930850
  31.4272310  44.6944210  36.3646310  31.7224460  43.2862870  36.8356790
  15.0453780  51.0282150  33.7197150  15.2084820  50.5587510  32.9016520
  15.5106230  50.5205710  34.3845990  19.8172550  40.1587910  28.7557720
  19.3740700  40.9397450  28.4242240  20.3757540  40.4817800  29.4628660
  24.1042360  43.0256430  34.3593040  23.6421730  43.2339450  35.1712980
  23.7020470  42.2115780  34.0563710  29.1046870  44.2465380  35.4889700
  28.2540460  43.9471130  35.8098770  28.9448660  44.4907390  34.5773520
  26.1996580  45.7467130  37.5888490  26.5249990  44.9130880  37.2490720
  26.9876910  46.2695650  37.7366820  22.9331370  39.7798610  23.6363550
  22.3085550  39.7758480  24.3616860  22.8461490  38.9129570  23.2399520
  21.8548450  40.7035240  30.6147320  22.1520780  41.6098070  30.5339340
  22.4034010  40.2154020  30.0006890  19.6086770  45.2821480  26.4838970
  19.3827690  45.0658650  27.3885590  18.8279300  45.7149940  26.1384940
  26.8384530  45.2884850  25.0829620  26.2393420  46.0120650  24.8993240
  27.3864140  45.2261630  24.3006070  22.0485980  46.1807060  37.1499240
  21.9529580  45.2401790  36.9999640  22.8917960  46.4022130  36.7547310
  25.4449400  43.9248390  27.1132900  25.8378970  44.2420590  26.3001590
  25.8066250  43.0460270  27.2277420  17.1796520  42.5920730  35.3033020
  16.7859910  43.4395940  35.5105800  16.4914920  41.9547100  35.4941660
  23.7541570  42.6755700  38.3729760  23.0639890  42.4827900  39.0075850
  24.4973870  42.9590340  38.9054060  14.4813570  40.5149190  29.3363100
  14.1926620  41.0852050  30.0488080  15.2259330  40.0353640  29.6994330
  14.6683800  44.4569310  20.5465820  14.5858470  45.4000070  20.6880810
  14.3166860  44.3144220  19.6678170  26.0304540  46.5154140  31.2083680
  25.2985660  47.0240950  31.5573780  25.6328880  45.6984120  30.9072460
  22.4681930  43.1908340  29.6136170  22.4717990  42.7498290  28.7640710
  23.3633050  43.5125670  29.7207990  18.3184310  43.0734830  28.5730380
  17.9784360  43.5510060  29.3297430  17.5561630  42.6199950  28.2131480
  22.5302080  44.1920420  22.6042930  22.6514900  44.1506900  23.5528750
  22.1450590  45.0544570  22.4489660  26.4930450  41.9687820  30.6206620
  26.5103190  42.4196470  31.4648470  26.2446030  41.0693460  30.8340060
  21.5423580  46.5021560  22.0026230  20.9740480  46.0539810  21.3762140
  22.2512580  46.8614340  21.4691380  29.9201200  39.3820000  36.4593000
  30.2446970  38.6509660  36.9850980  29.9557710  39.0633640  35.5573990
  16.6192760  50.4033580  35.8792960  16.2347550  49.7627250  36.4775920
  16.9304950  51.1069700  36.4487690  22.7689900  47.2510120  31.3601580
  23.1360030  46.7768690  32.1062920  22.5794960  48.1251690  31.7009920
  15.6330390  41.9953810  27.4895050  15.3477310  41.6309480  28.3273670
  15.5709250  41.2634270  26.8758190  20.5589270  46.2918760  33.6785790
  20.2546340  47.1710740  33.9036150  21.5135730  46.3518550  33.7143230
  19.0871060  50.4979750  24.2752640  18.3133320  49.9577370  24.1151360
  19.8165690  49.9786360  23.9370400  29.8459040  49.4945110  30.0679030
  30.5658160  49.9900400  29.6775140  29.6440860  48.8163000  29.4232900
  25.3068980  40.8883070  24.2108420  24.4933590  40.3896240  24.1353730
  25.1130930  41.7281320  23.7944770  25.2277840  49.5654170  35.9548030
  25.1615150  48.6449840  35.7005620  24.5982980  49.6629610  36.6692670
  28.0217370  45.2602720  22.5070580  28.9096990  45.5719950  22.3321920
  27.9922460  44.3874970  22.1151160  19.1308460  50.1660130  27.9131450
  19.6487130  49.3628390  27.8588340  18.6792480  50.1039270  28.7548280
  24.0177960  51.4326410  23.1858750  24.3593660  52.1768640  22.6902070
  23.1890670  51.7457530  23.5483580  16.6153000  47.1321500  34.8257150
  16.2567940  47.7975350  35.4130490  16.3207560  46.3005050  35.1969770
  19.8166120  47.5905740  37.7096700  19.5166260  47.7362920  36.8124520
  20.5877360  47.0311030  37.6170090  25.1594570  52.3874740  35.7051830
  25.1739110  51.4555700  35.4870740  24.4519670  52.4734500  36.3441600
  30.2931640  46.5714560  21.9750440  30.2095360  47.0028780  21.1246880
  31.0125830  47.0312910  22.4077260  31.3705780  49.0282080  35.0520410
  30.6453970  49.6210860  34.8549800  31.8981240  49.0205620  34.2533780
  26.9005370  50.7542250  28.5504260  27.2529190  50.1570380  27.8905630
  26.0167700  50.4286480  28.7212510  22.9868650  51.5139940  25.9574670
  23.6739780  52.0609150  26.3382260  22.2001070  52.0580670  25.9924280
  15.1261050  47.1312760  21.4491750  15.9955900  47.4137560  21.7327670
  14.6351370  47.9448630  21.3340560  22.2895860  48.5185970  25.5700030
  22.7458640  49.3291220  25.7960220  21.9384070  48.2009110  26.4018520
  24.5928470  54.0292310  32.7992330  25.2370690  54.2351690  33.4765750
  24.9557910  53.2680710  32.3463180  18.1907640  38.8623620  26.0422550
  18.0622270  38.8541520  26.9907470  17.3669660  39.2006710  25.6913560
  25.8660550  52.0324660  31.5169780  26.5082780  51.3317820  31.6301950
  26.3909900  52.8123100  31.3366670  29.7116270  52.3173280  21.2408920
  29.4853850  51.6003720  21.8333560  29.3212470  52.0685720  20.4030670
  27.6398170  52.8319560  34.7205840  27.9754410  53.4186250  35.3983760
  26.7198510  52.7012270  34.9503630  15.4932300  56.3440140  22.0153380
  15.8529940  56.9429480  21.3610650  15.3524640  56.8900030  22.7888410
  15.1901570  40.6214740  35.5029250  14.4760090  40.8211660  36.1081860
  15.6096610  39.8454310  35.8744050  29.2932520  50.2345220  22.9023080
  29.0054220  50.6957910  23.6900960  30.0884690  49.7742990  23.1707300
  15.4774160  54.6095000  36.4895780  15.5865280  53.6689740  36.3491170
  14.8254720  54.8749750  35.8409510  23.4686750  52.8810890  37.8893900
  23.1483620  52.1620130  38.4339590  22.7945110  53.5565960  37.9629960
  21.5100920  53.7271340  22.8327050  21.5011020  54.4601030  22.2171560
  20.5899280  53.4802920  22.9254010  17.1107560  48.9486230  23.5773810
  16.5035510  49.6885130  23.5869110  17.5856910  49.0385590  22.7512010
  26.6840350  43.1137050  33.2530700  27.0521170  42.2932260  33.5810270
  25.8238550  43.1738940  33.6686350  30.0502380  42.0693990  24.0618260
  29.4215540  42.1739660  23.3476490  29.5554300  42.2890770  24.8512140
  24.4960520  53.7899580  21.4952240  24.5972500  53.5863570  20.5654220
  23.5962260  53.5357860  21.7000020  22.0186410  44.3479940  25.4776140
  21.3102560  44.8166280  25.9189750  22.3030890  43.6901950  26.1121330
  23.6442340  45.7676640  33.4768670  24.1427590  46.2422460  34.1420520
  23.7865290  44.8440160  33.6838700  26.0501840  41.0730600  26.9171930
  25.9269620  41.0916730  25.9681440  26.9986400  41.1209540  27.0370330
  23.1378630  56.3085900  26.1899910  23.3920130  56.2707290  25.2679280
  22.1891110  56.1819230  26.1828160  20.2221430  42.6565020  22.8526850
  21.0711960  43.0935170  22.7867040  19.8552700  42.9685280  23.6798910
  30.8509200  41.9844600  34.3197060  30.3482800  42.7250000  34.6590870
  31.6665860  42.3728600  34.0033850  29.1431210  47.2277780  27.7658420
  28.2021350  47.2428010  27.9406110  29.4575280  46.4413740  28.2118720
  19.1212850  48.9097380  21.3262380  19.8876120  48.7978740  21.8887810
  19.1987540  48.2135350  20.6739150  17.8159610  46.3422450  22.0095270
  17.8963200  45.3949960  22.1212670  18.7079360  46.6729330  22.1155930
  31.1456790  54.3986630  29.4412680  31.2704210  55.2217800  29.9136490
  32.0122350  54.1877360  29.0936830  18.6174320  56.4917840  29.1129810
  19.3536800  55.9433300  29.3838380  19.0015240  57.3573850  28.9735800
  15.5019800  52.5591410  24.9871320  14.5759580  52.8012550  24.9776730
  15.9676230  53.3865670  24.8656070  17.6232600  55.6763910  38.3015390
  18.4245330  55.9975960  38.7150790  17.1084420  55.3159490  39.0235300
  21.7276630  55.6648150  20.9355380  22.5205240  55.9536980  20.4837170
  21.2080980  55.2340320  20.2567860  26.4597230  51.7843780  38.2490800
  25.8535390  51.8075380  37.5086550  26.1551340  51.0526820  38.7858050
  27.8897600  55.5124070  36.8600210  28.8419350  55.4282090  36.8100450
  27.7425820  56.1765780  37.5334000  15.3430410  48.1637370  37.2451440
  15.8469430  47.5844650  37.8167670  14.6037830  48.4477600  37.7827810
  22.2454030  50.8851560  20.7997730  22.1404670  50.2703910  21.5259110
  22.0778250  50.3617450  20.0160740  22.3968350  49.5708360  36.7786960
  21.6314020  50.1393360  36.6941630  22.5784310  49.2784570  35.8855190
  25.4856760  49.9471590  21.4039720  24.9366860  50.3940890  22.0482460
  26.1076020  49.4420840  21.9277390  29.5391700  51.3013690  37.3361980
  30.2801170  51.6389450  36.8329440  28.7764380  51.4705750  36.7831750
  17.3753490  46.3066960  38.1401510  17.4158830  46.0080830  39.0486740
  18.2298990  46.7074570  37.9809030  21.1531880  48.9062510  23.3005020
  21.5748300  48.7402380  24.1436410  21.2782720  48.0962740  22.8060160
  19.3159300  44.8859060  36.1076000  18.7855760  44.3950010  35.4799340
  19.9847370  45.3143260  35.5733930  23.6659520  47.9300120  20.5482120
  24.1865180  47.2149140  20.1823270  24.3127920  48.5685990  20.8482630
  28.2137360  49.3528520  35.8717190  28.6278380  49.5073600  36.7207610
  27.2788360  49.4783740  36.0342970  28.6859530  46.6924680  37.8756340
  29.2680300  45.9377000  37.7876820  28.8621300  47.2232120  37.0987820
  19.8031600  41.8521430  36.1873290  19.7088470  41.2342180  35.4624160
  19.2228990  42.5787720  35.9603200  22.5693040  40.4094670  33.2200680
  22.1210340  40.4318930  32.3746230  21.9358240  40.0113690  33.8170980
  22.9752590  49.3049000  33.8413120  23.3940700  50.1481730  33.6689360
  22.0561220  49.4421040  33.6119900  25.3116490  47.0365180  35.2250960
  25.4312700  46.4406320  35.9645800  26.1710490  47.0734870  34.8052260
  27.6504390  47.5902370  33.8013470  27.1239610  48.1144990  33.1978610
  27.9935730  48.2229760  34.4323200  20.0490780  44.9795740  20.2463180
  19.8479840  44.1163100  20.6076520  19.8782830  44.8929100  19.3084780
  20.8260010  55.6102010  34.9570850  20.2881100  56.3348070  34.6379550
  21.0793970  55.1332350  34.1668190  22.0785260  43.5786530  36.4826780
  22.6684950  43.2702380  37.1704600  21.2605500  43.1066280  36.6386680
  26.8978690  43.1952340  36.7159800  26.2094210  42.5333880  36.6509790
  27.6184710  42.7490610  37.1608260  27.5279090  39.7903970  22.7750060
  27.8081380  38.9471870  23.1309480  26.7544820  40.0227080  23.2888810
  18.8473580  42.0796360  20.2341060  19.1499480  42.0863790  19.3260210
  19.5868170  41.7294220  20.7308720  22.0658510  41.0230980  21.2197260
  21.7180510  40.3454970  20.6399710  22.2671280  40.5620490  22.0340650
  24.2307550  56.0111730  22.8383860  25.1258340  56.3496700  22.8602620
  24.2625180  55.2891140  22.2108140  17.8703710  51.3838780  21.0670860
  18.3078580  51.9268450  21.7228440  18.3551440  50.5585730  21.0767200
  15.0849510  54.1727810  28.5191120  15.4152520  53.3048870  28.2869760
  15.5140510  54.3786330  29.3496080  19.6811430  52.5036820  26.1793090
  19.3806970  52.3801790  27.0797000  19.5748920  51.6445410  25.7708820
  15.5739720  55.0398400  31.2572750  15.1370710  55.2199200  32.0896900
  16.1417400  55.7973020  31.1154470  32.4503350  52.2833220  20.8819770
  31.6196310  52.3509870  21.3527000  32.6275180  53.1737340  20.5786630
  31.9059810  49.0280700  23.3853970  32.6678720  49.5977350  23.4913660
  31.9214180  48.4607900  24.1562280  15.4064150  47.5518630  27.6161630
  14.7512990  47.2830270  26.9721330  16.2442100  47.4423110  27.1663610
  32.9119780  49.8830800  28.2295900  33.2828610  49.0998120  27.8231870
  33.5521710  50.5719900  28.0513200  29.8953540  51.2667380  33.6426220
  29.0813380  51.6964540  33.9052010  30.3027740  51.8785790  33.0295270
  31.9578980  49.3215070  20.5426490  32.2327820  50.2293950  20.4145710
  31.7689720  49.2577600  21.4788480  28.3554590  42.3459920  21.8380120
  28.7739470  42.1590900  20.9976780  28.0490650  41.4938970  22.1483050
  31.8544320  47.2584060  25.5355920  31.4787920  46.4911990  25.1037210
  31.1247440  47.6406760  26.0230850  16.4440080  47.9371200  32.1564970
  16.8113120  47.8498600  33.0360990  15.8750900  47.1737750  32.0571830
  31.2443940  46.4055580  35.1695440  31.0130030  46.1768330  34.2693390
  31.5048490  47.3255130  35.1240330  15.9956080  44.8480290  36.0623390
  15.1012130  44.8147050  36.4017100  16.5353630  45.0467080  36.8274640
  29.6832010  41.6312010  37.9475140  30.5602190  41.6395410  38.3309140
  29.6952850  40.8942850  37.3367490  14.6202230  44.7617560  23.5586960
  13.7166310  45.0247760  23.3838620  15.1042850  45.0328730  22.7786920
  31.1295280  45.4841550  28.8363160  31.6532760  44.9904200  28.2053330
  31.7154700  45.6191910  29.5810730  31.3085000  45.5681420  32.3582710
  30.3587710  45.5344960  32.4727700  31.4898010  46.4781530  32.1232480
  17.1629440  43.8183100  21.4681340  17.8721140  43.3966320  20.9828620
  16.4469380  43.8858330  20.8364690  16.8103600  39.8722430  20.5083990
  17.5331730  40.4131370  20.8265210  17.0828120  39.5985850  19.6325530
  30.6195250  44.7414900  24.7755570  31.1154370  44.5085770  25.5604450
  30.4211320  43.9026740  24.3593210  16.4995790  39.1228620  30.4106610
  17.1471980  38.5726000  29.9701770  16.9197630  39.3771770  31.2322420
  32.0482410  43.3775850  27.3093250  31.9381690  43.2231890  28.2475520
  32.8090000  42.8496790  27.0668660  30.3948130  39.3169980  33.7676250
  31.0320350  39.9304120  34.1335440  30.5423020  39.3530640  32.8225480
  32.9372680  41.2083770  20.5499390  33.8621990  41.0764950  20.3417680
  32.9148470  41.2876590  21.5035840  33.0111170  41.9794430  23.1756100
  32.2162670  41.9139550  23.7049010  33.2154450  42.9145070  23.1641450
  16.2527790  39.2784290  33.1531930  15.9042610  39.7348110  33.9190110
  15.9215490  38.3841420  33.2354360  17.8592160  52.4503890  37.3185120
  17.8161790  52.0796800  38.1999580  17.9903170  53.3881460  37.4586940
  21.5598190  54.0063480  32.9194840  21.3189550  54.2738040  32.0325360
  22.5000830  54.1769210  32.9745700  23.7652610  40.4696170  36.6751350
  23.7041500  41.0618000  37.4246760  24.7052990  40.3622130  36.5301610
  26.4027170  40.1266230  36.3143640  27.0167580  40.4445520  35.6524720
  26.9476730  39.6414820  36.9339500  16.9248430  38.8060490  36.4282700
  17.4731420  38.6248540  35.6648810  16.9903740  38.0154600  36.9639010
  17.6980190  55.3966140  34.4382900  17.1040510  55.2650840  35.1772940
  17.6904030  54.5604280  33.9725000  27.1435210  38.6898370  32.6412930
  26.2695050  39.0233480  32.4385860  27.0345960  38.2171550  33.4664800
  28.0507190  40.8969240  34.0254650  27.7220550  40.0821000  33.6456380
  28.9989490  40.8539050  33.9020340  30.5041800  56.6681280  30.9992220
  30.0444770  57.4197090  30.6250240  29.8754260  55.9487750  30.9407020
  17.3292420  52.7624520  33.3890940  16.6026480  52.1429810  33.3216890
  17.3901570  53.1565130  32.5189020  20.9337520  54.9769520  30.1740350
  21.4502540  54.3656880  29.6488610  21.5834900  55.4798300  30.6651360
  23.6733020  55.8678010  31.0009330  23.9610830  55.6132310  30.1242340
  24.1856240  55.3155370  31.5914900  24.8910030  39.6068210  31.5805840
  24.1081820  40.0813710  31.8602600  24.5972960  38.7023040  31.4719020
  29.4431100  40.3091310  29.6254930  29.8839190  40.2536410  28.7776530
  29.1738690  41.2249320  29.6965110  31.3069670  39.9406550  27.6363750
  31.2458070  38.9967770  27.4894770  32.0861700  40.0486640  28.1817210
  15.6122420  56.0798910  26.5987700  15.4444460  55.4469590  27.2969590
  14.7456930  56.2858310  26.2481890  16.2350440  39.9115690  24.1019560
  16.9929800  40.0244570  23.5283590  15.7727610  40.7484890  24.0562990
  22.7764250  42.0254960  27.0921870  21.9638760  41.6511850  26.7517750
  23.2805890  41.2700040  27.3943060  27.2789230  38.6897410  28.3304940
  27.8818600  39.2617620  28.8053460  26.5382220  39.2536850  28.1078840
  30.4223830  39.0918970  23.6045220  30.6174460  39.9902420  23.8712650
  29.6353700  38.8606050  24.0978170  17.2185120  54.7732140  24.0437840
  16.6932740  55.1540170  23.3399800  17.1429700  55.3982910  24.7647550
  18.6075590  40.4379740  22.6421530  19.1368350  39.6509540  22.5129480
  19.2403910  41.1170930  22.8757060  20.8013430  40.1754880  25.6966920
  20.1716170  39.4742190  25.8637050  20.2618570  40.9359010  25.4800080
  23.7405380  56.7894110  38.3677530  24.6672690  56.5538380  38.4113490
  23.7255810  57.6166110  37.8863560  20.9268990  39.4538860  38.1319410
  20.6453260  39.9572460  37.3680230  21.3088690  38.6560610  37.7661540
  19.8178090  56.7214520  22.9187090  20.5496910  56.4373800  22.3710980
  20.0771760  56.4827800  23.8086470  18.9792880  52.8379250  22.9233420
  18.3501760  53.3064350  23.4719250  19.0940710  51.9928470  23.3579610
  27.5284450  38.8692440  38.7099880  27.4149900  39.1887050  39.6051400
  28.3454190  39.2704950  38.4137160  26.4342600  46.8884910   9.0734620
  26.3536650  45.9739520   8.8026330  26.0207020  47.3851980   8.3674330
  24.5660640  48.6663930  10.9543890  23.7902740  48.1864370  11.2442460
  25.2173570  47.9869580  10.7800050  18.5826470  48.9783740  11.8319650
  17.7511350  48.7232450  12.2316160  19.1907450  49.0494510  12.5677570
  28.5868070  53.0724120   9.7343020  28.1249600  52.3011360  10.0630190
  29.3993620  53.0990190  10.2395470  18.5627730  53.0123830  12.0277670
  18.8655770  52.1221570  11.8487890  19.3071320  53.5694050  11.7999920
  16.9918420  43.9385630   5.6162040  16.1035120  44.2801600   5.5141920
  17.2759610  43.7385950   4.7242870  14.9551430  46.5391280  11.5001740
  15.5267540  45.7713480  11.5005380  14.9552970  46.8380040  10.5908350
  24.8131380  55.3582130   9.3547010  24.1942820  55.8139630   8.7841450
  25.6683160  55.5133590   8.9536710  24.0069630  51.3421120  10.9614050
  23.9377910  50.4011060  10.8003180  24.7689490  51.4322530  11.5336620
  16.1976300  41.9475640  13.2870670  16.0179140  41.0501390  13.5673430
  15.7956380  42.4947510  13.9617620  25.0374800  44.1491500  11.1882980
  25.4139620  43.2763380  11.0756650  24.9394310  44.4850200  10.2973420
  19.1679810  42.5217130   6.6500420  19.2746560  43.4220860   6.9569180
  18.2572170  42.4735100   6.3595070  28.8198920  41.6441940   8.1211320
  29.6408540  41.1538510   8.1636800  28.8533000  42.2339600   8.8743160
  16.8162970  44.4436140  11.8953010  17.4973080  44.7074510  12.5140410
  16.5011020  43.6037010  12.2291020  21.0087540  45.4903500  10.9825600
  21.5165760  45.9884470  11.6230620  21.5400780  44.7138700  10.8064960
  33.1098470  43.6608690  14.6854950  32.4050640  44.0490400  14.1670060
  33.3756390  44.3558980  15.2875880  19.2923640  40.1302060  15.2489020
  19.2942080  40.6474450  14.4434920  18.4627950  39.6532240  15.2258950
  25.6794730  50.2421370   6.7478920  25.0612000  50.7070820   6.1841640
  26.1917980  50.9348850   7.1648430  20.5426490  49.7697240  13.4262520
  20.2095870  50.3966160  14.0683590  20.7193170  50.2959120  12.6464190
  29.0560400  43.5842320  10.8938860  28.3515970  43.8727210  11.4741970
  29.4172560  44.3942430  10.5338420  18.9738970  41.8412020  13.2559470
  19.3155780  42.6854070  12.9613340  18.0354780  41.9895760  13.3724810
  19.7545590  51.7378040  15.2411700  20.3719590  52.4129120  14.9596150
  18.8938710  52.1466020  15.1499200  15.0477930  50.9277900   4.1218550
  14.6705910  51.4165000   3.3903450  15.3051000  51.6003180   4.7525080
  30.6723180  53.2017450  13.1566340  29.9886700  53.8716560  13.1483010
  31.2117470  53.3998100  12.3911200  32.1247320  43.0297110  11.2848070
  31.1772230  43.0636090  11.4163500  32.4497310  43.8436060  11.6697430
  22.6566860  39.3294290   9.5804060  22.9641840  38.7741180   8.8639560
  21.7267560  39.4638750   9.3977050  28.2081920  55.0461580  11.8711520
  28.2209080  54.6423870  11.0033780  27.6557140  55.8208870  11.7672950
  29.5027340  51.7677800   6.9601690  29.3923670  50.8252130   7.0851110
  29.4995590  52.1293440   7.8464450  27.6067360  49.9491420  13.1994130
  28.0236150  49.7351530  12.3647590  28.3307180  50.2064210  13.7702750
  25.0447620  47.3943120   6.3164180  24.1176900  47.3280500   6.5452650
  25.1972440  48.3323250   6.2019420  25.0316700  43.6660120   3.3131340
  24.0920370  43.8274080   3.3983800  25.3499960  44.3845800   2.7667330
  31.5529460  48.3478640  13.2910370  30.7248090  48.4171730  12.8160500
  32.1479940  48.9332950  12.8226200  29.0744910  48.9563420   6.8199430
  28.4557330  48.6182970   6.1725730  29.0569360  48.3123180   7.5278620
  28.5171470  45.1347960  14.2365240  28.1042650  45.9601670  14.4905230
  27.7847420  44.5493000  14.0441600  20.6504260  47.9207860   9.0983910
  20.2461260  47.2085110   8.6029810  20.7367380  47.5761100   9.9871950
  21.1185960  51.6075420  11.2623120  20.8214250  51.0020890  10.5830900
  22.0685780  51.6452730  11.1512480  19.3632880  44.6951070  12.8782950
  19.9147470  44.8046410  12.1036200  19.8776390  45.0688670  13.5938180
  29.2071570  55.1807290  14.9246220  28.7302130  55.9879480  14.7318830
  28.5233360  54.5285620  15.0772430  20.2104390  51.3457110  17.9130920
  19.3132920  51.5697080  18.1604320  20.2357260  51.4692050  16.9642320
  27.2509610  48.1950230   3.8272180  27.6902890  47.3572660   3.6810000
  27.9638030  48.8279630   3.9136320  19.0375610  48.2170430  16.4888290
  18.8983380  49.0893230  16.8575690  18.1556970  47.8743240  16.3436230
  25.3604990  53.1346300   7.7953420  25.8000900  53.8770630   7.3808810
  25.2991880  53.3772870   8.7192380  20.8355960  54.1592130  18.6973440
  20.8071390  54.5635080  17.8301870  20.6720930  53.2302490  18.5345040
  30.8326750  39.4493040   2.1413220  30.5199410  39.5419870   3.0412290
  31.5939220  40.0274070   2.0910650  17.3508890  46.8152840   6.5990560
  17.2306490  47.5414930   5.9871830  17.0409780  46.0455750   6.1218470
  14.9894260  49.9867980  12.4059200  15.0674680  50.1216750  11.4614920
  15.6035940  49.2783870  12.5987320  16.2341890  51.6868170   8.8165380
  15.8269970  51.8282760   7.9618980  17.1254900  51.4028330   8.6136590
  32.1904030  52.1332080  17.1537620  32.3167090  51.8943960  16.2354800
  32.2325410  51.3016620  17.6259700  26.0520770  55.8360080  15.7232430
  26.5665440  55.7468090  16.5254860  25.2089850  56.1819780  16.0160340
  28.0275170  56.1215420   5.1516430  27.8676310  55.8318360   6.0498260
  27.8621880  55.3455550   4.6161660  20.5063550  55.9013950   6.9288050
  20.3306030  54.9849490   6.7155850  19.6519290  56.2601240   7.1685850
  27.7301300  53.6302980   3.7114430  27.0366460  53.6280270   3.0516710
  28.4724160  53.2062300   3.2808600  27.2951230  55.2565690   7.7862920
  27.7508180  54.4755070   8.1001540  27.6343750  55.9672510   8.3304100
  32.0428040  44.1864540  18.1187360  31.4272310  44.6944210  17.5902820
  31.7224460  43.2862870  18.0613300  15.0453780  51.0282150  14.9453660
  15.2084820  50.5587510  14.1273030  15.5106230  50.5205710  15.6102500
  19.8172550  40.1587910   9.9814230  19.3740700  40.9397450   9.6498750
  20.3757540  40.4817800  10.6885170  24.1042360  43.0256430  15.5849550
  23.6421730  43.2339450  16.3969490  23.7020470  42.2115780  15.2820220
  29.1046870  44.2465380  16.7146210  28.2540460  43.9471130  17.0355280
  28.9448660  44.4907390  15.8030030  26.1996580  45.7467130  18.8145000
  26.5249990  44.9130880  18.4747230  26.9876910  46.2695650  18.9623330
  22.9331370  39.7798610   4.8620060  22.3085550  39.7758480   5.5873370
  22.8461490  38.9129570   4.4656030  21.8548450  40.7035240  11.8403830
  22.1520780  41.6098070  11.7595850  22.4034010  40.2154020  11.2263400
  19.6086770  45.2821480   7.7095480  19.3827690  45.0658650   8.6142100
  18.8279300  45.7149940   7.3641450  26.8384530  45.2884850   6.3086130
  26.2393420  46.0120650   6.1249750  27.3864140  45.2261630   5.5262580
  22.0485980  46.1807060  18.3755750  21.9529580  45.2401790  18.2256150
  22.8917960  46.4022130  17.9803820  25.4449400  43.9248390   8.3389410
  25.8378970  44.2420590   7.5258100  25.8066250  43.0460270   8.4533930
  17.1796520  42.5920730  16.5289530  16.7859910  43.4395940  16.7362310
  16.4914920  41.9547100  16.7198170  23.7541570  42.6755700  19.5986270
  23.0639890  42.4827900  20.2332360  24.4973870  42.9590340  20.1310570
  14.4813570  40.5149190  10.5619610  14.1926620  41.0852050  11.2744590
  15.2259330  40.0353640  10.9250840  26.0304540  46.5154140  12.4340190
  25.2985660  47.0240950  12.7830290  25.6328880  45.6984120  12.1328970
  22.4681930  43.1908340  10.8392680  22.4717990  42.7498290   9.9897220
  23.3633050  43.5125670  10.9464500  18.3184310  43.0734830   9.7986890
  17.9784360  43.5510060  10.5553940  17.5561630  42.6199950   9.4387990
  22.5302080  44.1920420   3.8299440  22.6514900  44.1506900   4.7785260
  22.1450590  45.0544570   3.6746170  26.4930450  41.9687820  11.8463130
  26.5103190  42.4196470  12.6904980  26.2446030  41.0693460  12.0596570
  21.5423580  46.5021560   3.2282740  20.9740480  46.0539810   2.6018650
  22.2512580  46.8614340   2.6947890  29.9201200  39.3820000  17.6849510
  30.2446970  38.6509660  18.2107490  29.9557710  39.0633640  16.7830500
  16.6192760  50.4033580  17.1049470  16.2347550  49.7627250  17.7032430
  16.9304950  51.1069700  17.6744200  22.7689900  47.2510120  12.5858090
  23.1360030  46.7768690  13.3319430  22.5794960  48.1251690  12.9266430
  15.6330390  41.9953810   8.7151560  15.3477310  41.6309480   9.5530180
  15.5709250  41.2634270   8.1014700  20.5589270  46.2918760  14.9042300
  20.2546340  47.1710740  15.1292660  21.5135730  46.3518550  14.9399740
  19.0871060  50.4979750   5.5009150  18.3133320  49.9577370   5.3407870
  19.8165690  49.9786360   5.1626910  29.8459040  49.4945110  11.2935540
  30.5658160  49.9900400  10.9031650  29.6440860  48.8163000  10.6489410
  25.3068980  40.8883070   5.4364930  24.4933590  40.3896240   5.3610240
  25.1130930  41.7281320   5.0201280  25.2277840  49.5654170  17.1804540
  25.1615150  48.6449840  16.9262130  24.5982980  49.6629610  17.8949180
  28.0217370  45.2602720   3.7327090  28.9096990  45.5719950   3.5578430
  27.9922460  44.3874970   3.3407670  19.1308460  50.1660130   9.1387960
  19.6487130  49.3628390   9.0844850  18.6792480  50.1039270   9.9804790
  24.0177960  51.4326410   4.4115260  24.3593660  52.1768640   3.9158580
  23.1890670  51.7457530   4.7740090  16.6153000  47.1321500  16.0513660
  16.2567940  47.7975350  16.6387000  16.3207560  46.3005050  16.4226280
  19.8166120  47.5905740  18.9353210  19.5166260  47.7362920  18.0381030
  20.5877360  47.0311030  18.8426600  25.1594570  52.3874740  16.9308340
  25.1739110  51.4555700  16.7127250  24.4519670  52.4734500  17.5698110
  30.2931640  46.5714560   3.2006950  30.2095360  47.0028780   2.3503390
  31.0125830  47.0312910   3.6333770  31.3705780  49.0282080  16.2776920
  30.6453970  49.6210860  16.0806310  31.8981240  49.0205620  15.4790290
  31.3218890  53.4256820   5.9289080  30.6795050  52.7712440   6.2032800
  30.9349550  53.8311910   5.1529750  26.9005370  50.7542250   9.7760770
  27.2529190  50.1570380   9.1162140  26.0167700  50.4286480   9.9469020
  22.9868650  51.5139940   7.1831180  23.6739780  52.0609150   7.5638770
  22.2001070  52.0580670   7.2180790  15.1261050  47.1312760   2.6748260
  15.9955900  47.4137560   2.9584180  14.6351370  47.9448630   2.5597070
  22.2895860  48.5185970   6.7956540  22.7458640  49.3291220   7.0216730
  21.9384070  48.2009110   7.6275030  24.5928470  54.0292310  14.0248840
  25.2370690  54.2351690  14.7022260  24.9557910  53.2680710  13.5719690
  18.1907640  38.8623620   7.2679060  18.0622270  38.8541520   8.2163980
  17.3669660  39.2006710   6.9170070  25.8660550  52.0324660  12.7426290
  26.5082780  51.3317820  12.8558460  26.3909900  52.8123100  12.5623180
  29.7116270  52.3173280   2.4665430  29.4853850  51.6003720   3.0590070
  29.3212470  52.0685720   1.6287180  27.6398170  52.8319560  15.9462350
  27.9754410  53.4186250  16.6240270  26.7198510  52.7012270  16.1760140
  15.4932300  56.3440140   3.2409890  15.8529940  56.9429480   2.5867160
  15.3524640  56.8900030   4.0144920  15.1901570  40.6214740  16.7285760
  14.4760090  40.8211660  17.3338370  15.6096610  39.8454310  17.1000560
  29.2932520  50.2345220   4.1279590  29.0054220  50.6957910   4.9157470
  30.0884690  49.7742990   4.3963810  15.4774160  54.6095000  17.7152290
  15.5865280  53.6689740  17.5747680  14.8254720  54.8749750  17.0666020
  23.4686750  52.8810890  19.1150410  23.1483620  52.1620130  19.6596100
  22.7945110  53.5565960  19.1886470  21.5100920  53.7271340   4.0583560
  21.5011020  54.4601030   3.4428070  20.5899280  53.4802920   4.1510520
  17.1107560  48.9486230   4.8030320  16.5035510  49.6885130   4.8125620
  17.5856910  49.0385590   3.9768520  26.6840350  43.1137050  14.4787210
  27.0521170  42.2932260  14.8066780  25.8238550  43.1738940  14.8942860
  30.0502380  42.0693990   5.2874770  29.4215540  42.1739660   4.5733000
  29.5554300  42.2890770   6.0768650  24.4960520  53.7899580   2.7208750
  24.5972500  53.5863570   1.7910730  23.5962260  53.5357860   2.9256530
  22.0186410  44.3479940   6.7032650  21.3102560  44.8166280   7.1446260
  22.3030890  43.6901950   7.3377840  23.6442340  45.7676640  14.7025180
  24.1427590  46.2422460  15.3677030  23.7865290  44.8440160  14.9095210
  26.0501840  41.0730600   8.1428440  25.9269620  41.0916730   7.1937950
  26.9986400  41.1209540   8.2626840  23.1378630  56.3085900   7.4156420
  23.3920130  56.2707290   6.4935790  22.1891110  56.1819230   7.4084670
  20.2221430  42.6565020   4.0783360  21.0711960  43.0935170   4.0123550
  19.8552700  42.9685280   4.9055420  30.8509200  41.9844600  15.5453570
  30.3482800  42.7250000  15.8847380  31.6665860  42.3728600  15.2290360
  29.1431210  47.2277780   8.9914930  28.2021350  47.2428010   9.1662620
  29.4575280  46.4413740   9.4375230  19.1212850  48.9097380   2.5518890
  19.8876120  48.7978740   3.1144320  19.1987540  48.2135350   1.8995660
  17.8159610  46.3422450   3.2351780  17.8963200  45.3949960   3.3469180
  18.7079360  46.6729330   3.3412440  31.1456790  54.3986630  10.6669190
  31.2704210  55.2217800  11.1393000  32.0122350  54.1877360  10.3193340
  18.6174320  56.4917840  10.3386320  19.3536800  55.9433300  10.6094890
  19.0015240  57.3573850  10.1992310  15.5019800  52.5591410   6.2127830
  14.5759580  52.8012550   6.2033240  15.9676230  53.3865670   6.0912580
  17.6232600  55.6763910  19.5271900  18.4245330  55.9975960  19.9407300
  17.1084420  55.3159490  20.2491810  26.4597230  51.7843780  19.4747310
  25.8535390  51.8075380  18.7343060  26.1551340  51.0526820  20.0114560
  27.8897600  55.5124070  18.0856720  28.8419350  55.4282090  18.0356960
  27.7425820  56.1765780  18.7590510  30.7806800  54.8918280   3.5848630
  30.4948310  54.4783420   2.7702810  30.5826350  55.8205990   3.4649150
  15.3430410  48.1637370  18.4707950  15.8469430  47.5844650  19.0424180
  14.6037830  48.4477600  19.0084320  22.3968350  49.5708360  18.0043470
  21.6314020  50.1393360  17.9198140  22.5784310  49.2784570  17.1111700
  25.4856760  49.9471590   2.6296230  24.9366860  50.3940890   3.2738970
  26.1076020  49.4420840   3.1533900  29.5391700  51.3013690  18.5618490
  30.2801170  51.6389450  18.0585950  28.7764380  51.4705750  18.0088260
  17.3753490  46.3066960  19.3658020  17.4158830  46.0080830  20.2743250
  18.2298990  46.7074570  19.2065540  21.1531880  48.9062510   4.5261530
  21.5748300  48.7402380   5.3692920  21.2782720  48.0962740   4.0316670
  19.3159300  44.8859060  17.3332510  18.7855760  44.3950010  16.7055850
  19.9847370  45.3143260  16.7990440  28.2137360  49.3528520  17.0973700
  28.6278380  49.5073600  17.9464120  27.2788360  49.4783740  17.2599480
  28.6859530  46.6924680  19.1012850  29.2680300  45.9377000  19.0133330
  28.8621300  47.2232120  18.3244330  19.8031600  41.8521430  17.4129800
  19.7088470  41.2342180  16.6880670  19.2228990  42.5787720  17.1859710
  22.5693040  40.4094670  14.4457190  22.1210340  40.4318930  13.6002740
  21.9358240  40.0113690  15.0427490  22.9752590  49.3049000  15.0669630
  23.3940700  50.1481730  14.8945870  22.0561220  49.4421040  14.8376410
  25.3116490  47.0365180  16.4507470  25.4312700  46.4406320  17.1902310
  26.1710490  47.0734870  16.0308770  27.6504390  47.5902370  15.0269980
  27.1239610  48.1144990  14.4235120  27.9935730  48.2229760  15.6579710
  20.8260010  55.6102010  16.1827360  20.2881100  56.3348070  15.8636060
  21.0793970  55.1332350  15.3924700  22.0785260  43.5786530  17.7083290
  22.6684950  43.2702380  18.3961110  21.2605500  43.1066280  17.8643190
  26.8978690  43.1952340  17.9416310  26.2094210  42.5333880  17.8766300
  27.6184710  42.7490610  18.3864770  27.5279090  39.7903970   4.0006570
  27.8081380  38.9471870   4.3565990  26.7544820  40.0227080   4.5145320
  23.6822220  56.8453220  16.4414010  23.6080920  57.7488360  16.7486380
  22.7801060  56.5265120  16.4136080  22.0658510  41.0230980   2.4453770
  21.7180510  40.3454970   1.8656220  22.2671280  40.5620490   3.2597160
  24.2307550  56.0111730   4.0640370  25.1258340  56.3496700   4.0859130
  24.2625180  55.2891140   3.4364650  17.8703710  51.3838780   2.2927370
  18.3078580  51.9268450   2.9484950  18.3551440  50.5585730   2.3023710
  15.0849510  54.1727810   9.7447630  15.4152520  53.3048870   9.5126270
  15.5140510  54.3786330  10.5752590  19.6811430  52.5036820   7.4049600
  19.3806970  52.3801790   8.3053510  19.5748920  51.6445410   6.9965330
  15.5739720  55.0398400  12.4829260  15.1370710  55.2199200  13.3153410
  16.1417400  55.7973020  12.3410980  31.2101900  54.5415400  16.7706570
  30.6103890  54.6007960  16.0270490  31.3395800  53.6020380  16.9003420
  32.4503350  52.2833220   2.1076280  31.6196310  52.3509870   2.5783510
  32.6275180  53.1737340   1.8043140  31.9059810  49.0280700   4.6110480
  32.6678720  49.5977350   4.7170170  31.9214180  48.4607900   5.3818790
  15.4064150  47.5518630   8.8418140  14.7512990  47.2830270   8.1977840
  16.2442100  47.4423110   8.3920120  32.9119780  49.8830800   9.4552410
  33.2828610  49.0998120   9.0488380  33.5521710  50.5719900   9.2769710
  29.8953540  51.2667380  14.8682730  29.0813380  51.6964540  15.1308520
  30.3027740  51.8785790  14.2551780  31.9578980  49.3215070   1.7683000
  32.2327820  50.2293950   1.6402220  31.7689720  49.2577600   2.7044990
  28.3554590  42.3459920   3.0636630  28.7739470  42.1590900   2.2233290
  28.0490650  41.4938970   3.3739560  31.8544320  47.2584060   6.7612430
  31.4787920  46.4911990   6.3293720  31.1247440  47.6406760   7.2487360
  16.4440080  47.9371200  13.3821480  16.8113120  47.8498600  14.2617500
  15.8750900  47.1737750  13.2828340  31.2443940  46.4055580  16.3951950
  31.0130030  46.1768330  15.4949900  31.5048490  47.3255130  16.3496840
  15.9956080  44.8480290  17.2879900  15.1012130  44.8147050  17.6273610
  16.5353630  45.0467080  18.0531150  29.6832010  41.6312010  19.1731650
  30.5602190  41.6395410  19.5565650  29.6952850  40.8942850  18.5624000
  14.6202230  44.7617560   4.7843470  13.7166310  45.0247760   4.6095130
  15.1042850  45.0328730   4.0043430  31.1295280  45.4841550  10.0619670
  31.6532760  44.9904200   9.4309840  31.7154700  45.6191910  10.8067240
  31.3085000  45.5681420  13.5839220  30.3587710  45.5344960  13.6984210
  31.4898010  46.4781530  13.3488990  17.1629440  43.8183100   2.6937850
  17.8721140  43.3966320   2.2085130  16.4469380  43.8858330   2.0621200
  30.6195250  44.7414900   6.0012080  31.1154370  44.5085770   6.7860960
  30.4211320  43.9026740   5.5849720  16.4995790  39.1228620  11.6363120
  17.1471980  38.5726000  11.1958280  16.9197630  39.3771770  12.4578930
  32.0482410  43.3775850   8.5349760  31.9381690  43.2231890   9.4732030
  32.8090000  42.8496790   8.2925170  30.3948130  39.3169980  14.9932760
  31.0320350  39.9304120  15.3591950  30.5423020  39.3530640  14.0481990
  32.9372680  41.2083770   1.7755900  33.8621990  41.0764950   1.5674190
  32.9148470  41.2876590   2.7292350  33.0111170  41.9794430   4.4012610
  32.2162670  41.9139550   4.9305520  33.2154450  42.9145070   4.3897960
  29.9529590  56.0185980   8.3951000  30.5488660  55.6970550   7.7185420
  30.2107740  55.5457800   9.1864270  16.2527790  39.2784290  14.3788440
  15.9042610  39.7348110  15.1446620  15.9215490  38.3841420  14.4610870
  17.8592160  52.4503890  18.5441630  17.8161790  52.0796800  19.4256090
  17.9903170  53.3881460  18.6843450  21.5598190  54.0063480  14.1451350
  21.3189550  54.2738040  13.2581870  22.5000830  54.1769210  14.2002210
  23.7652610  40.4696170  17.9007860  23.7041500  41.0618000  18.6503270
  24.7052990  40.3622130  17.7558120  26.4027170  40.1266230  17.5400150
  27.0167580  40.4445520  16.8781230  26.9476730  39.6414820  18.1596010
  32.8202350  56.0257860  14.9461990  32.3260630  56.4226730  14.2289120
  32.2115640  55.4007070  15.3399270  16.9248430  38.8060490  17.6539210
  17.4731420  38.6248540  16.8905320  16.9903740  38.0154600  18.1895520
  17.6980190  55.3966140  15.6639410  17.1040510  55.2650840  16.4029450
  17.6904030  54.5604280  15.1981510  27.1435210  38.6898370  13.8669440
  26.2695050  39.0233480  13.6642370  27.0345960  38.2171550  14.6921310
  28.0507190  40.8969240  15.2511160  27.7220550  40.0821000  14.8712890
  28.9989490  40.8539050  15.1276850  30.5041800  56.6681280  12.2248730
  30.0444770  57.4197090  11.8506750  29.8754260  55.9487750  12.1663530
  17.3292420  52.7624520  14.6147450  16.6026480  52.1429810  14.5473400
  17.3901570  53.1565130  13.7445530  20.9337520  54.9769520  11.3996860
  21.4502540  54.3656880  10.8745120  21.5834900  55.4798300  11.8907870
  23.6733020  55.8678010  12.2265840  23.9610830  55.6132310  11.3498850
  24.1856240  55.3155370  12.8171410  24.8910030  39.6068210  12.8062350
  24.1081820  40.0813710  13.0859110  24.5972960  38.7023040  12.6975530
  29.4431100  40.3091310  10.8511440  29.8839190  40.2536410  10.0033040
  29.1738690  41.2249320  10.9221620  31.3069670  39.9406550   8.8620260
  31.2458070  38.9967770   8.7151280  32.0861700  40.0486640   9.4073720
  15.6122420  56.0798910   7.8244210  15.4444460  55.4469590   8.5226100
  14.7456930  56.2858310   7.4738400  16.2350440  39.9115690   5.3276070
  16.9929800  40.0244570   4.7540100  15.7727610  40.7484890   5.2819500
  22.7764250  42.0254960   8.3178380  21.9638760  41.6511850   7.9774260
  23.2805890  41.2700040   8.6199570  27.2789230  38.6897410   9.5561450
  27.8818600  39.2617620  10.0309970  26.5382220  39.2536850   9.3335350
  30.4223830  39.0918970   4.8301730  30.6174460  39.9902420   5.0969160
  29.6353700  38.8606050   5.3234680  17.2185120  54.7732140   5.2694350
  16.6932740  55.1540170   4.5656310  17.1429700  55.3982910   5.9904060
  18.6075590  40.4379740   3.8678040  19.1368350  39.6509540   3.7385990
  19.2403910  41.1170930   4.1013570  20.8013430  40.1754880   6.9223430
  20.1716170  39.4742190   7.0893560  20.2618570  40.9359010   6.7056590
  23.7405380  56.7894110  19.5934040  24.6672690  56.5538380  19.6370000
  23.7255810  57.6166110  19.1120070  31.9750440  56.3319680   6.5908290
  32.1502630  55.6457420   5.9469210  31.2772010  56.8566730   6.1984960
  20.9268990  39.4538860  19.3575920  20.6453260  39.9572460  18.5936740
  21.3088690  38.6560610  18.9918050  19.8178090  56.7214520   4.1443600
  20.5496910  56.4373800   3.5967490  20.0771760  56.4827800   5.0342980
  18.9792880  52.8379250   4.1489930  18.3501760  53.3064350   4.6975760
  19.0940710  51.9928470   4.5836120  27.5284450  38.8692440  19.9356390
  27.4149900  39.1887050  20.8307910  28.3454190  39.2704950  19.6393670
  30.3082940  56.0163970  19.4175080  31.1008260  55.5213200  19.2101040
  30.6016090  56.6954110  20.0250690  26.4342600  28.1141420  65.3965090
  26.3536650  27.1996030  65.1256800  26.0207020  28.6108490  64.6904800
  24.5660640  29.8920440  67.2774360  23.7902740  29.4120880  67.5672930
  25.2173570  29.2126090  67.1030520  18.5826470  30.2040250  68.1550120
  17.7511350  29.9488960  68.5546630  19.1907450  30.2751020  68.8908040
  28.5868070  34.2980630  66.0573490  28.1249600  33.5267870  66.3860660
  29.3993620  34.3246700  66.5625940  18.5627730  34.2380340  68.3508140
  18.8655770  33.3478080  68.1718360  19.3071320  34.7950560  68.1230390
  16.9918420  25.1642140  61.9392510  16.1035120  25.5058110  61.8372390
  17.2759610  24.9642460  61.0473340  14.9551430  27.7647790  67.8232210
  15.5267540  26.9969990  67.8235850  14.9552970  28.0636550  66.9138820
  24.8131380  36.5838640  65.6777480  24.1942820  37.0396140  65.1071920
  25.6683160  36.7390100  65.2767180  24.0069630  32.5677630  67.2844520
  23.9377910  31.6267570  67.1233650  24.7689490  32.6579040  67.8567090
  16.1976300  23.1732150  69.6101140  16.0179140  22.2757900  69.8903900
  15.7956380  23.7204020  70.2848090  25.0374800  25.3748010  67.5113450
  25.4139620  24.5019890  67.3987120  24.9394310  25.7106710  66.6203890
  19.1679810  23.7473640  62.9730890  19.2746560  24.6477370  63.2799650
  18.2572170  23.6991610  62.6825540  28.8198920  22.8698450  64.4441790
  29.6408540  22.3795020  64.4867270  28.8533000  23.4596110  65.1973630
  16.8162970  25.6692650  68.2183480  17.4973080  25.9331020  68.8370880
  16.5011020  24.8293520  68.5521490  21.0087540  26.7160010  67.3056070
  21.5165760  27.2140980  67.9461090  21.5400780  25.9395210  67.1295430
  33.1098470  24.8865200  71.0085420  32.4050640  25.2746910  70.4900530
  33.3756390  25.5815490  71.6106350  19.2923640  21.3558570  71.5719490
  19.2942080  21.8730960  70.7665390  18.4627950  20.8788750  71.5489420
  25.6794730  31.4677880  63.0709390  25.0612000  31.9327330  62.5072110
  26.1917980  32.1605360  63.4878900  20.5426490  30.9953750  69.7492990
  20.2095870  31.6222670  70.3914060  20.7193170  31.5215630  68.9694660
  29.0560400  24.8098830  67.2169330  28.3515970  25.0983720  67.7972440
  29.4172560  25.6198940  66.8568890  18.9738970  23.0668530  69.5789940
  19.3155780  23.9110580  69.2843810  18.0354780  23.2152270  69.6955280
  19.7545590  32.9634550  71.5642170  20.3719590  33.6385630  71.2826620
  18.8938710  33.3722530  71.4729670  15.0477930  32.1534410  60.4449020
  14.6705910  32.6421510  59.7133920  15.3051000  32.8259690  61.0755550
  30.6723180  34.4273960  69.4796810  29.9886700  35.0973070  69.4713480
  31.2117470  34.6254610  68.7141670  32.1247320  24.2553620  67.6078540
  31.1772230  24.2892600  67.7393970  32.4497310  25.0692570  67.9927900
  22.6566860  20.5550800  65.9034530  22.9641840  19.9997690  65.1870030
  21.7267560  20.6895260  65.7207520  28.2081920  36.2718090  68.1941990
  28.2209080  35.8680380  67.3264250  27.6557140  37.0465380  68.0903420
  29.5027340  32.9934310  63.2832160  29.3923670  32.0508640  63.4081580
  29.4995590  33.3549950  64.1694920  27.6067360  31.1747930  69.5224600
  28.0236150  30.9608040  68.6878060  28.3307180  31.4320720  70.0933220
  25.0447620  28.6199630  62.6394650  24.1176900  28.5537010  62.8683120
  25.1972440  29.5579760  62.5249890  25.0316700  24.8916630  59.6361810
  24.0920370  25.0530590  59.7214270  25.3499960  25.6102310  59.0897800
  31.5529460  29.5735150  69.6140840  30.7248090  29.6428240  69.1390970
  32.1479940  30.1589460  69.1456670  29.0744910  30.1819930  63.1429900
  28.4557330  29.8439480  62.4956200  29.0569360  29.5379690  63.8509090
  28.5171470  26.3604470  70.5595710  28.1042650  27.1858180  70.8135700
  27.7847420  25.7749510  70.3672070  20.6504260  29.1464370  65.4214380
  20.2461260  28.4341620  64.9260280  20.7367380  28.8017610  66.3102420
  21.1185960  32.8331930  67.5853590  20.8214250  32.2277400  66.9061370
  22.0685780  32.8709240  67.4742950  19.3632880  25.9207580  69.2013420
  19.9147470  26.0302920  68.4266670  19.8776390  26.2945180  69.9168650
  29.2071570  36.4063800  71.2476690  28.7302130  37.2135990  71.0549300
  28.5233360  35.7542130  71.4002900  20.2104390  32.5713620  74.2361390
  19.3132920  32.7953590  74.4834790  20.2357260  32.6948560  73.2872790
  27.2509610  29.4206740  60.1502650  27.6902890  28.5829170  60.0040470
  27.9638030  30.0536140  60.2366790  19.0375610  29.4426940  72.8118760
  18.8983380  30.3149740  73.1806160  18.1556970  29.0999750  72.6666700
  25.3604990  34.3602810  64.1183890  25.8000900  35.1027140  63.7039280
  25.2991880  34.6029380  65.0422850  20.8355960  35.3848640  75.0203910
  20.8071390  35.7891590  74.1532340  20.6720930  34.4559000  74.8575510
  30.8326750  20.6749550  58.4643690  30.5199410  20.7676380  59.3642760
  31.5939220  21.2530580  58.4141120  17.3508890  28.0409350  62.9221030
  17.2306490  28.7671440  62.3102300  17.0409780  27.2712260  62.4448940
  14.9894260  31.2124490  68.7289670  15.0674680  31.3473260  67.7845390
  15.6035940  30.5040380  68.9217790  16.2341890  32.9124680  65.1395850
  15.8269970  33.0539270  64.2849450  17.1254900  32.6284840  64.9367060
  32.1904030  33.3588590  73.4768090  32.3167090  33.1200470  72.5585270
  32.2325410  32.5273130  73.9490170  26.0520770  37.0616590  72.0462900
  26.5665440  36.9724600  72.8485330  25.2089850  37.4076290  72.3390810
  28.0275170  37.3471930  61.4746900  27.8676310  37.0574870  62.3728730
  27.8621880  36.5712060  60.9392130  20.5063550  37.1270460  63.2518520
  20.3306030  36.2106000  63.0386320  19.6519290  37.4857750  63.4916320
  27.7301300  34.8559490  60.0344900  27.0366460  34.8536780  59.3747180
  28.4724160  34.4318810  59.6039070  27.2951230  36.4822200  64.1093390
  27.7508180  35.7011580  64.4232010  27.6343750  37.1929020  64.6534570
  32.0428040  25.4121050  74.4417830  31.4272310  25.9200720  73.9133290
  31.7224460  24.5119380  74.3843770  15.0453780  32.2538660  71.2684130
  15.2084820  31.7844020  70.4503500  15.5106230  31.7462220  71.9332970
  19.8172550  21.3844420  66.3044700  19.3740700  22.1653960  65.9729220
  20.3757540  21.7074310  67.0115640  24.1042360  24.2512940  71.9080020
  23.6421730  24.4595960  72.7199960  23.7020470  23.4372290  71.6050690
  29.1046870  25.4721890  73.0376680  28.2540460  25.1727640  73.3585750
  28.9448660  25.7163900  72.1260500  26.1996580  26.9723640  75.1375470
  26.5249990  26.1387390  74.7977700  26.9876910  27.4952160  75.2853800
  22.9331370  21.0055120  61.1850530  22.3085550  21.0014990  61.9103840
  22.8461490  20.1386080  60.7886500  21.8548450  21.9291750  68.1634300
  22.1520780  22.8354580  68.0826320  22.4034010  21.4410530  67.5493870
  19.6086770  26.5077990  64.0325950  19.3827690  26.2915160  64.9372570
  18.8279300  26.9406450  63.6871920  26.8384530  26.5141360  62.6316600
  26.2393420  27.2377160  62.4480220  27.3864140  26.4518140  61.8493050
  22.0485980  27.4063570  74.6986220  21.9529580  26.4658300  74.5486620
  22.8917960  27.6278640  74.3034290  25.4449400  25.1504900  64.6619880
  25.8378970  25.4677100  63.8488570  25.8066250  24.2716780  64.7764400
  17.1796520  23.8177240  72.8520000  16.7859910  24.6652450  73.0592780
  16.4914920  23.1803610  73.0428640  14.4813570  21.7405700  66.8850080
  14.1926620  22.3108560  67.5975060  15.2259330  21.2610150  67.2481310
  14.6683800  25.6825820  58.0952800  14.5858470  26.6256580  58.2367790
  14.3166860  25.5400730  57.2165150  26.0304540  27.7410650  68.7570660
  25.2985660  28.2497460  69.1060760  25.6328880  26.9240630  68.4559440
  22.4681930  24.4164850  67.1623150  22.4717990  23.9754800  66.3127690
  23.3633050  24.7382180  67.2694970  18.3184310  24.2991340  66.1217360
  17.9784360  24.7766570  66.8784410  17.5561630  23.8456460  65.7618460
  22.5302080  25.4176930  60.1529910  22.6514900  25.3763410  61.1015730
  22.1450590  26.2801080  59.9976640  26.4930450  23.1944330  68.1693600
  26.5103190  23.6452980  69.0135450  26.2446030  22.2949970  68.3827040
  21.5423580  27.7278070  59.5513210  20.9740480  27.2796320  58.9249120
  22.2512580  28.0870850  59.0178360  29.9201200  20.6076510  74.0079980
  30.2446970  19.8766170  74.5337960  29.9557710  20.2890150  73.1060970
  16.6192760  31.6290090  73.4279940  16.2347550  30.9883760  74.0262900
  16.9304950  32.3326210  73.9974670  22.7689900  28.4766630  68.9088560
  23.1360030  28.0025200  69.6549900  22.5794960  29.3508200  69.2496900
  15.6330390  23.2210320  65.0382030  15.3477310  22.8565990  65.8760650
  15.5709250  22.4890780  64.4245170  20.5589270  27.5175270  71.2272770
  20.2546340  28.3967250  71.4523130  21.5135730  27.5775060  71.2630210
  19.0871060  31.7236260  61.8239620  18.3133320  31.1833880  61.6638340
  19.8165690  31.2042870  61.4857380  29.8459040  30.7201620  67.6166010
  30.5658160  31.2156910  67.2262120  29.6440860  30.0419510  66.9719880
  25.3068980  22.1139580  61.7595400  24.4933590  21.6152750  61.6840710
  25.1130930  22.9537830  61.3431750  25.2277840  30.7910680  73.5035010
  25.1615150  29.8706350  73.2492600  24.5982980  30.8886120  74.2179650
  28.0217370  26.4859230  60.0557560  28.9096990  26.7976460  59.8808900
  27.9922460  25.6131480  59.6638140  19.1308460  31.3916640  65.4618430
  19.6487130  30.5884900  65.4075320  18.6792480  31.3295780  66.3035260
  24.0177960  32.6582920  60.7345730  24.3593660  33.4025150  60.2389050
  23.1890670  32.9714040  61.0970560  16.6153000  28.3578010  72.3744130
  16.2567940  29.0231860  72.9617470  16.3207560  27.5261560  72.7456750
  19.8166120  28.8162250  75.2583680  19.5166260  28.9619430  74.3611500
  20.5877360  28.2567540  75.1657070  25.1594570  33.6131250  73.2538810
  25.1739110  32.6812210  73.0357720  24.4519670  33.6991010  73.8928580
  30.2931640  27.7971070  59.5237420  30.2095360  28.2285290  58.6733860
  31.0125830  28.2569420  59.9564240  31.3705780  30.2538590  72.6007390
  30.6453970  30.8467370  72.4036780  31.8981240  30.2462130  71.8020760
  31.3218890  34.6513330  62.2519550  30.6795050  33.9968950  62.5263270
  30.9349550  35.0568420  61.4760220  26.9005370  31.9798760  66.0991240
  27.2529190  31.3826890  65.4392610  26.0167700  31.6542990  66.2699490
  22.9868650  32.7396450  63.5061650  23.6739780  33.2865660  63.8869240
  22.2001070  33.2837180  63.5411260  15.1261050  28.3569270  58.9978730
  15.9955900  28.6394070  59.2814650  14.6351370  29.1705140  58.8827540
  22.2895860  29.7442480  63.1187010  22.7458640  30.5547730  63.3447200
  21.9384070  29.4265620  63.9505500  24.5928470  35.2548820  70.3479310
  25.2370690  35.4608200  71.0252730  24.9557910  34.4937220  69.8950160
  18.1907640  20.0880130  63.5909530  18.0622270  20.0798030  64.5394450
  17.3669660  20.4263220  63.2400540  25.8660550  33.2581170  69.0656760
  26.5082780  32.5574330  69.1788930  26.3909900  34.0379610  68.8853650
  29.7116270  33.5429790  58.7895900  29.4853850  32.8260230  59.3820540
  29.3212470  33.2942230  57.9517650  27.6398170  34.0576070  72.2692820
  27.9754410  34.6442760  72.9470740  26.7198510  33.9268780  72.4990610
  15.4932300  37.5696650  59.5640360  15.8529940  38.1685990  58.9097630
  15.3524640  38.1156540  60.3375390  15.1901570  21.8471250  73.0516230
  14.4760090  22.0468170  73.6568840  15.6096610  21.0710820  73.4231030
  29.2932520  31.4601730  60.4510060  29.0054220  31.9214420  61.2387940
  30.0884690  30.9999500  60.7194280  15.4774160  35.8351510  74.0382760
  15.5865280  34.8946250  73.8978150  14.8254720  36.1006260  73.3896490
  23.4686750  34.1067400  75.4380880  23.1483620  33.3876640  75.9826570
  22.7945110  34.7822470  75.5116940  21.5100920  34.9527850  60.3814030
  21.5011020  35.6857540  59.7658540  20.5899280  34.7059430  60.4740990
  17.1107560  30.1742740  61.1260790  16.5035510  30.9141640  61.1356090
  17.5856910  30.2642100  60.2998990  26.6840350  24.3393560  70.8017680
  27.0521170  23.5188770  71.1297250  25.8238550  24.3995450  71.2173330
  30.0502380  23.2950500  61.6105240  29.4215540  23.3996170  60.8963470
  29.5554300  23.5147280  62.3999120  24.4960520  35.0156090  59.0439220
  24.5972500  34.8120080  58.1141200  23.5962260  34.7614370  59.2487000
  22.0186410  25.5736450  63.0263120  21.3102560  26.0422790  63.4676730
  22.3030890  24.9158460  63.6608310  23.6442340  26.9933150  71.0255650
  24.1427590  27.4678970  71.6907500  23.7865290  26.0696670  71.2325680
  26.0501840  22.2987110  64.4658910  25.9269620  22.3173240  63.5168420
  26.9986400  22.3466050  64.5857310  23.1378630  37.5342410  63.7386890
  23.3920130  37.4963800  62.8166260  22.1891110  37.4075740  63.7315140
  20.2221430  23.8821530  60.4013830  21.0711960  24.3191680  60.3354020
  19.8552700  24.1941790  61.2285890  30.8509200  23.2101110  71.8684040
  30.3482800  23.9506510  72.2077850  31.6665860  23.5985110  71.5520830
  29.1431210  28.4534290  65.3145400  28.2021350  28.4684520  65.4893090
  29.4575280  27.6670250  65.7605700  19.1212850  30.1353890  58.8749360
  19.8876120  30.0235250  59.4374790  19.1987540  29.4391860  58.2226130
  17.8159610  27.5678960  59.5582250  17.8963200  26.6206470  59.6699650
  18.7079360  27.8985840  59.6642910  31.1456790  35.6243140  66.9899660
  31.2704210  36.4474310  67.4623470  32.0122350  35.4133870  66.6423810
  18.6174320  37.7174350  66.6616790  19.3536800  37.1689810  66.9325360
  19.0015240  38.5830360  66.5222780  15.5019800  33.7847920  62.5358300
  14.5759580  34.0269060  62.5263710  15.9676230  34.6122180  62.4143050
  21.7276630  36.8904660  58.4842360  22.5205240  37.1793490  58.0324150
  21.2080980  36.4596830  57.8054840  27.8897600  36.7380580  74.4087190
  28.8419350  36.6538600  74.3587430  27.7425820  37.4022290  75.0820980
  30.7806800  36.1174790  59.9079100  30.4948310  35.7039930  59.0933280
  30.5826350  37.0462500  59.7879620  15.3430410  29.3893880  74.7938420
  15.8469430  28.8101160  75.3654650  14.6037830  29.6734110  75.3314790
  22.2454030  32.1108070  58.3484710  22.1404670  31.4960420  59.0746090
  22.0778250  31.5873960  57.5647720  22.3968350  30.7964870  74.3273940
  21.6314020  31.3649870  74.2428610  22.5784310  30.5041080  73.4342170
  25.4856760  31.1728100  58.9526700  24.9366860  31.6197400  59.5969440
  26.1076020  30.6677350  59.4764370  29.5391700  32.5270200  74.8848960
  30.2801170  32.8645960  74.3816420  28.7764380  32.6962260  74.3318730
  21.1531880  30.1319020  60.8492000  21.5748300  29.9658890  61.6923390
  21.2782720  29.3219250  60.3547140  19.3159300  26.1115570  73.6562980
  18.7855760  25.6206520  73.0286320  19.9847370  26.5399770  73.1220910
  23.6659520  29.1556630  58.0969100  24.1865180  28.4405650  57.7310250
  24.3127920  29.7942500  58.3969610  28.2137360  30.5785030  73.4204170
  28.6278380  30.7330110  74.2694590  27.2788360  30.7040250  73.5829950
  28.6859530  27.9181190  75.4243320  29.2680300  27.1633510  75.3363800
  28.8621300  28.4488630  74.6474800  19.8031600  23.0777940  73.7360270
  19.7088470  22.4598690  73.0111140  19.2228990  23.8044230  73.5090180
  22.5693040  21.6351180  70.7687660  22.1210340  21.6575440  69.9233210
  21.9358240  21.2370200  71.3657960  22.9752590  30.5305510  71.3900100
  23.3940700  31.3738240  71.2176340  22.0561220  30.6677550  71.1606880
  25.3116490  28.2621690  72.7737940  25.4312700  27.6662830  73.5132780
  26.1710490  28.2991380  72.3539240  27.6504390  28.8158880  71.3500450
  27.1239610  29.3401500  70.7465590  27.9935730  29.4486270  71.9810180
  20.0490780  26.2052250  57.7950160  19.8479840  25.3419610  58.1563500
  19.8782830  26.1185610  56.8571760  20.8260010  36.8358520  72.5057830
  20.2881100  37.5604580  72.1866530  21.0793970  36.3588860  71.7155170
  22.0785260  24.8043040  74.0313760  22.6684950  24.4958890  74.7191580
  21.2605500  24.3322790  74.1873660  26.8978690  24.4208850  74.2646780
  26.2094210  23.7590390  74.1996770  27.6184710  23.9747120  74.7095240
  27.5279090  21.0160480  60.3237040  27.8081380  20.1728380  60.6796460
  26.7544820  21.2483590  60.8375790  18.8473580  23.3052870  57.7828040
  19.1499480  23.3120300  56.8747190  19.5868170  22.9550730  58.2795700
  23.6822220  38.0709730  72.7644480  23.6080920  38.9744870  73.0716850
  22.7801060  37.7521630  72.7366550  22.0658510  22.2487490  58.7684240
  21.7180510  21.5711480  58.1886690  22.2671280  21.7877000  59.5827630
  24.2307550  37.2368240  60.3870840  25.1258340  37.5753210  60.4089600
  24.2625180  36.5147650  59.7595120  17.8703710  32.6095290  58.6157840
  18.3078580  33.1524960  59.2715420  18.3551440  31.7842240  58.6254180
  15.0849510  35.3984320  66.0678100  15.4152520  34.5305380  65.8356740
  15.5140510  35.6042840  66.8983060  19.6811430  33.7293330  63.7280070
  19.3806970  33.6058300  64.6283980  19.5748920  32.8701920  63.3195800
  15.5739720  36.2654910  68.8059730  15.1370710  36.4455710  69.6383880
  16.1417400  37.0229530  68.6641450  31.2101900  35.7671910  73.0937040
  30.6103890  35.8264470  72.3500960  31.3395800  34.8276890  73.2233890
  32.4503350  33.5089730  58.4306750  31.6196310  33.5766380  58.9013980
  32.6275180  34.3993850  58.1273610  31.9059810  30.2537210  60.9340950
  32.6678720  30.8233860  61.0400640  31.9214180  29.6864410  61.7049260
  15.4064150  28.7775140  65.1648610  14.7512990  28.5086780  64.5208310
  16.2442100  28.6679620  64.7150590  32.9119780  31.1087310  65.7782880
  33.2828610  30.3254630  65.3718850  33.5521710  31.7976410  65.6000180
  29.8953540  32.4923890  71.1913200  29.0813380  32.9221050  71.4538990
  30.3027740  33.1042300  70.5782250  31.9578980  30.5471580  58.0913470
  32.2327820  31.4550460  57.9632690  31.7689720  30.4834110  59.0275460
  28.3554590  23.5716430  59.3867100  28.7739470  23.3847410  58.5463760
  28.0490650  22.7195480  59.6970030  31.8544320  28.4840570  63.0842900
  31.4787920  27.7168500  62.6524190  31.1247440  28.8663270  63.5717830
  16.4440080  29.1627710  69.7051950  16.8113120  29.0755110  70.5847970
  15.8750900  28.3994260  69.6058810  31.2443940  27.6312090  72.7182420
  31.0130030  27.4024840  71.8180370  31.5048490  28.5511640  72.6727310
  15.9956080  26.0736800  73.6110370  15.1012130  26.0403560  73.9504080
  16.5353630  26.2723590  74.3761620  29.6832010  22.8568520  75.4962120
  30.5602190  22.8651920  75.8796120  29.6952850  22.1199360  74.8854470
  14.6202230  25.9874070  61.1073940  13.7166310  26.2504270  60.9325600
  15.1042850  26.2585240  60.3273900  31.1295280  26.7098060  66.3850140
  31.6532760  26.2160710  65.7540310  31.7154700  26.8448420  67.1297710
  31.3085000  26.7937930  69.9069690  30.3587710  26.7601470  70.0214680
  31.4898010  27.7038040  69.6719460  17.1629440  25.0439610  59.0168320
  17.8721140  24.6222830  58.5315600  16.4469380  25.1114840  58.3851670
  16.8103600  21.0978940  58.0570970  17.5331730  21.6387880  58.3752190
  17.0828120  20.8242360  57.1812510  30.6195250  25.9671410  62.3242550
  31.1154370  25.7342280  63.1091430  30.4211320  25.1283250  61.9080190
  16.4995790  20.3485130  67.9593590  17.1471980  19.7982510  67.5188750
  16.9197630  20.6028280  68.7809400  32.0482410  24.6032360  64.8580230
  31.9381690  24.4488400  65.7962500  32.8090000  24.0753300  64.6155640
  30.3948130  20.5426490  71.3163230  31.0320350  21.1560630  71.6822420
  30.5423020  20.5787150  70.3712460  32.9372680  22.4340280  58.0986370
  33.8621990  22.3021460  57.8904660  32.9148470  22.5133100  59.0522820
  33.0111170  23.2050940  60.7243080  32.2162670  23.1396060  61.2535990
  33.2154450  24.1401580  60.7128430  29.9529590  37.2442490  64.7181470
  30.5488660  36.9227060  64.0415890  30.2107740  36.7714310  65.5094740
  16.2527790  20.5040800  70.7018910  15.9042610  20.9604620  71.4677090
  15.9215490  19.6097930  70.7841340  17.8592160  33.6760400  74.8672100
  17.8161790  33.3053310  75.7486560  17.9903170  34.6137970  75.0073920
  21.5598190  35.2319990  70.4681820  21.3189550  35.4994550  69.5812340
  22.5000830  35.4025720  70.5232680  23.7652610  21.6952680  74.2238330
  23.7041500  22.2874510  74.9733740  24.7052990  21.5878640  74.0788590
  26.4027170  21.3522740  73.8630620  27.0167580  21.6702030  73.2011700
  26.9476730  20.8671330  74.4826480  32.8202350  37.2514370  71.2692460
  32.3260630  37.6483240  70.5519590  32.2115640  36.6263580  71.6629740
  16.9248430  20.0317000  73.9769680  17.4731420  19.8505050  73.2135790
  16.9903740  19.2411110  74.5125990  17.6980190  36.6222650  71.9869880
  17.1040510  36.4907350  72.7259920  17.6904030  35.7860790  71.5211980
  27.1435210  19.9154880  70.1899910  26.2695050  20.2489990  69.9872840
  27.0345960  19.4428060  71.0151780  28.0507190  22.1225750  71.5741630
  27.7220550  21.3077510  71.1943360  28.9989490  22.0795560  71.4507320
  30.5041800  37.8937790  68.5479200  30.0444770  38.6453600  68.1737220
  29.8754260  37.1744260  68.4894000  17.3292420  33.9881030  70.9377920
  16.6026480  33.3686320  70.8703870  17.3901570  34.3821640  70.0676000
  20.9337520  36.2026030  67.7227330  21.4502540  35.5913390  67.1975590
  21.5834900  36.7054810  68.2138340  23.6733020  37.0934520  68.5496310
  23.9610830  36.8388820  67.6729320  24.1856240  36.5411880  69.1401880
  24.8910030  20.8324720  69.1292820  24.1081820  21.3070220  69.4089580
  24.5972960  19.9279550  69.0206000  29.4431100  21.5347820  67.1741910
  29.8839190  21.4792920  66.3263510  29.1738690  22.4505830  67.2452090
  31.3069670  21.1663060  65.1850730  31.2458070  20.2224280  65.0381750
  32.0861700  21.2743150  65.7304190  15.6122420  37.3055420  64.1474680
  15.4444460  36.6726100  64.8456570  14.7456930  37.5114820  63.7968870
  16.2350440  21.1372200  61.6506540  16.9929800  21.2501080  61.0770570
  15.7727610  21.9741400  61.6049970  22.7764250  23.2511470  64.6408850
  21.9638760  22.8768360  64.3004730  23.2805890  22.4956550  64.9430040
  27.2789230  19.9153920  65.8791920  27.8818600  20.4874130  66.3540440
  26.5382220  20.4793360  65.6565820  30.4223830  20.3175480  61.1532200
  30.6174460  21.2158930  61.4199630  29.6353700  20.0862560  61.6465150
  17.2185120  35.9988650  61.5924820  16.6932740  36.3796680  60.8886780
  17.1429700  36.6239420  62.3134530  18.6075590  21.6636250  60.1908510
  19.1368350  20.8766050  60.0616460  19.2403910  22.3427440  60.4244040
  20.8013430  21.4011390  63.2453900  20.1716170  20.6998700  63.4124030
  20.2618570  22.1615520  63.0287060  23.7405380  38.0150620  75.9164510
  24.6672690  37.7794890  75.9600470  23.7255810  38.8422620  75.4350540
  31.9750440  37.5576190  62.9138760  32.1502630  36.8713930  62.2699680
  31.2772010  38.0823240  62.5215430  20.9268990  20.6795370  75.6806390
  20.6453260  21.1828970  74.9167210  21.3088690  19.8817120  75.3148520
  19.8178090  37.9471030  60.4674070  20.5496910  37.6630310  59.9197960
  20.0771760  37.7084310  61.3573450  18.9792880  34.0635760  60.4720400
  18.3501760  34.5320860  61.0206230  19.0940710  33.2184980  60.9066590
  26.4342600  28.1141420  46.6221600  26.3536650  27.1996030  46.3513310
  26.0207020  28.6108490  45.9161310  24.5660640  29.8920440  48.5030870
  23.7902740  29.4120880  48.7929440  25.2173570  29.2126090  48.3287030
  18.5826470  30.2040250  49.3806630  17.7511350  29.9488960  49.7803140
  19.1907450  30.2751020  50.1164550  28.5868070  34.2980630  47.2830000
  28.1249600  33.5267870  47.6117170  29.3993620  34.3246700  47.7882450
  18.5627730  34.2380340  49.5764650  18.8655770  33.3478080  49.3974870
  19.3071320  34.7950560  49.3486900  16.9918420  25.1642140  43.1649020
  16.1035120  25.5058110  43.0628900  17.2759610  24.9642460  42.2729850
  14.9551430  27.7647790  49.0488720  15.5267540  26.9969990  49.0492360
  14.9552970  28.0636550  48.1395330  24.8131380  36.5838640  46.9033990
  24.1942820  37.0396140  46.3328430  25.6683160  36.7390100  46.5023690
  24.0069630  32.5677630  48.5101030  23.9377910  31.6267570  48.3490160
  24.7689490  32.6579040  49.0823600  16.1976300  23.1732150  50.8357650
  16.0179140  22.2757900  51.1160410  15.7956380  23.7204020  51.5104600
  25.0374800  25.3748010  48.7369960  25.4139620  24.5019890  48.6243630
  24.9394310  25.7106710  47.8460400  19.1679810  23.7473640  44.1987400
  19.2746560  24.6477370  44.5056160  18.2572170  23.6991610  43.9082050
  28.8198920  22.8698450  45.6698300  29.6408540  22.3795020  45.7123780
  28.8533000  23.4596110  46.4230140  16.8162970  25.6692650  49.4439990
  17.4973080  25.9331020  50.0627390  16.5011020  24.8293520  49.7778000
  21.0087540  26.7160010  48.5312580  21.5165760  27.2140980  49.1717600
  21.5400780  25.9395210  48.3551940  33.1098470  24.8865200  52.2341930
  32.4050640  25.2746910  51.7157040  33.3756390  25.5815490  52.8362860
  19.2923640  21.3558570  52.7976000  19.2942080  21.8730960  51.9921900
  18.4627950  20.8788750  52.7745930  25.6794730  31.4677880  44.2965900
  25.0612000  31.9327330  43.7328620  26.1917980  32.1605360  44.7135410
  20.5426490  30.9953750  50.9749500  20.2095870  31.6222670  51.6170570
  20.7193170  31.5215630  50.1951170  29.0560400  24.8098830  48.4425840
  28.3515970  25.0983720  49.0228950  29.4172560  25.6198940  48.0825400
  18.9738970  23.0668530  50.8046450  19.3155780  23.9110580  50.5100320
  18.0354780  23.2152270  50.9211790  19.7545590  32.9634550  52.7898680
  20.3719590  33.6385630  52.5083130  18.8938710  33.3722530  52.6986180
  15.0477930  32.1534410  41.6705530  14.6705910  32.6421510  40.9390430
  15.3051000  32.8259690  42.3012060  30.6723180  34.4273960  50.7053320
  29.9886700  35.0973070  50.6969990  31.2117470  34.6254610  49.9398180
  32.1247320  24.2553620  48.8335050  31.1772230  24.2892600  48.9650480
  32.4497310  25.0692570  49.2184410  22.6566860  20.5550800  47.1291040
  22.9641840  19.9997690  46.4126540  21.7267560  20.6895260  46.9464030
  28.2081920  36.2718090  49.4198500  28.2209080  35.8680380  48.5520760
  27.6557140  37.0465380  49.3159930  29.5027340  32.9934310  44.5088670
  29.3923670  32.0508640  44.6338090  29.4995590  33.3549950  45.3951430
  27.6067360  31.1747930  50.7481110  28.0236150  30.9608040  49.9134570
  28.3307180  31.4320720  51.3189730  25.0447620  28.6199630  43.8651160
  24.1176900  28.5537010  44.0939630  25.1972440  29.5579760  43.7506400
  25.0316700  24.8916630  40.8618320  24.0920370  25.0530590  40.9470780
  25.3499960  25.6102310  40.3154310  31.5529460  29.5735150  50.8397350
  30.7248090  29.6428240  50.3647480  32.1479940  30.1589460  50.3713180
  29.0744910  30.1819930  44.3686410  28.4557330  29.8439480  43.7212710
  29.0569360  29.5379690  45.0765600  28.5171470  26.3604470  51.7852220
  28.1042650  27.1858180  52.0392210  27.7847420  25.7749510  51.5928580
  20.6504260  29.1464370  46.6470890  20.2461260  28.4341620  46.1516790
  20.7367380  28.8017610  47.5358930  21.1185960  32.8331930  48.8110100
  20.8214250  32.2277400  48.1317880  22.0685780  32.8709240  48.6999460
  19.3632880  25.9207580  50.4269930  19.9147470  26.0302920  49.6523180
  19.8776390  26.2945180  51.1425160  29.2071570  36.4063800  52.4733200
  28.7302130  37.2135990  52.2805810  28.5233360  35.7542130  52.6259410
  20.2104390  32.5713620  55.4617900  19.3132920  32.7953590  55.7091300
  20.2357260  32.6948560  54.5129300  27.2509610  29.4206740  41.3759160
  27.6902890  28.5829170  41.2296980  27.9638030  30.0536140  41.4623300
  19.0375610  29.4426940  54.0375270  18.8983380  30.3149740  54.4062670
  18.1556970  29.0999750  53.8923210  25.3604990  34.3602810  45.3440400
  25.8000900  35.1027140  44.9295790  25.2991880  34.6029380  46.2679360
  20.8355960  35.3848640  56.2460420  20.8071390  35.7891590  55.3788850
  20.6720930  34.4559000  56.0832020  30.8326750  20.6749550  39.6900200
  30.5199410  20.7676380  40.5899270  31.5939220  21.2530580  39.6397630
  17.3508890  28.0409350  44.1477540  17.2306490  28.7671440  43.5358810
  17.0409780  27.2712260  43.6705450  32.7870780  36.1675740  57.5424590
  33.2630500  36.6458630  58.2213670  33.4077940  36.0993230  56.8170090
  14.9894260  31.2124490  49.9546180  15.0674680  31.3473260  49.0101900
  15.6035940  30.5040380  50.1474300  16.2341890  32.9124680  46.3652360
  15.8269970  33.0539270  45.5105960  17.1254900  32.6284840  46.1623570
  32.1904030  33.3588590  54.7024600  32.3167090  33.1200470  53.7841780
  32.2325410  32.5273130  55.1746680  26.0520770  37.0616590  53.2719410
  26.5665440  36.9724600  54.0741840  25.2089850  37.4076290  53.5647320
  28.0275170  37.3471930  42.7003410  27.8676310  37.0574870  43.5985240
  27.8621880  36.5712060  42.1648640  20.5063550  37.1270460  44.4775030
  20.3306030  36.2106000  44.2642830  19.6519290  37.4857750  44.7172830
  27.7301300  34.8559490  41.2601410  27.0366460  34.8536780  40.6003690
  28.4724160  34.4318810  40.8295580  27.2951230  36.4822200  45.3349900
  27.7508180  35.7011580  45.6488520  27.6343750  37.1929020  45.8791080
  32.0428040  25.4121050  55.6674340  31.4272310  25.9200720  55.1389800
  31.7224460  24.5119380  55.6100280  15.0453780  32.2538660  52.4940640
  15.2084820  31.7844020  51.6760010  15.5106230  31.7462220  53.1589480
  19.8172550  21.3844420  47.5301210  19.3740700  22.1653960  47.1985730
  20.3757540  21.7074310  48.2372150  24.1042360  24.2512940  53.1336530
  23.6421730  24.4595960  53.9456470  23.7020470  23.4372290  52.8307200
  29.1046870  25.4721890  54.2633190  28.2540460  25.1727640  54.5842260
  28.9448660  25.7163900  53.3517010  26.1996580  26.9723640  56.3631980
  26.5249990  26.1387390  56.0234210  26.9876910  27.4952160  56.5110310
  22.9331370  21.0055120  42.4107040  22.3085550  21.0014990  43.1360350
  22.8461490  20.1386080  42.0143010  21.8548450  21.9291750  49.3890810
  22.1520780  22.8354580  49.3082830  22.4034010  21.4410530  48.7750380
  19.6086770  26.5077990  45.2582460  19.3827690  26.2915160  46.1629080
  18.8279300  26.9406450  44.9128430  26.8384530  26.5141360  43.8573110
  26.2393420  27.2377160  43.6736730  27.3864140  26.4518140  43.0749560
  22.0485980  27.4063570  55.9242730  21.9529580  26.4658300  55.7743130
  22.8917960  27.6278640  55.5290800  25.4449400  25.1504900  45.8876390
  25.8378970  25.4677100  45.0745080  25.8066250  24.2716780  46.0020910
  17.1796520  23.8177240  54.0776510  16.7859910  24.6652450  54.2849290
  16.4914920  23.1803610  54.2685150  23.7541570  23.9012210  57.1473250
  23.0639890  23.7084410  57.7819340  24.4973870  24.1846850  57.6797550
  14.4813570  21.7405700  48.1106590  14.1926620  22.3108560  48.8231570
  15.2259330  21.2610150  48.4737820  14.6683800  25.6825820  39.3209310
  14.5858470  26.6256580  39.4624300  14.3166860  25.5400730  38.4421660
  26.0304540  27.7410650  49.9827170  25.2985660  28.2497460  50.3317270
  25.6328880  26.9240630  49.6815950  22.4681930  24.4164850  48.3879660
  22.4717990  23.9754800  47.5384200  23.3633050  24.7382180  48.4951480
  18.3184310  24.2991340  47.3473870  17.9784360  24.7766570  48.1040920
  17.5561630  23.8456460  46.9874970  22.5302080  25.4176930  41.3786420
  22.6514900  25.3763410  42.3272240  22.1450590  26.2801080  41.2233150
  26.4930450  23.1944330  49.3950110  26.5103190  23.6452980  50.2391960
  26.2446030  22.2949970  49.6083550  21.5423580  27.7278070  40.7769720
  20.9740480  27.2796320  40.1505630  22.2512580  28.0870850  40.2434870
  29.9201200  20.6076510  55.2336490  30.2446970  19.8766170  55.7594470
  29.9557710  20.2890150  54.3317480  16.6192760  31.6290090  54.6536450
  16.2347550  30.9883760  55.2519410  16.9304950  32.3326210  55.2231180
  22.7689900  28.4766630  50.1345070  23.1360030  28.0025200  50.8806410
  22.5794960  29.3508200  50.4753410  15.6330390  23.2210320  46.2638540
  15.3477310  22.8565990  47.1017160  15.5709250  22.4890780  45.6501680
  20.5589270  27.5175270  52.4529280  20.2546340  28.3967250  52.6779640
  21.5135730  27.5775060  52.4886720  19.0871060  31.7236260  43.0496130
  18.3133320  31.1833880  42.8894850  19.8165690  31.2042870  42.7113890
  29.8459040  30.7201620  48.8422520  30.5658160  31.2156910  48.4518630
  29.6440860  30.0419510  48.1976390  25.3068980  22.1139580  42.9851910
  24.4933590  21.6152750  42.9097220  25.1130930  22.9537830  42.5688260
  25.2277840  30.7910680  54.7291520  25.1615150  29.8706350  54.4749110
  24.5982980  30.8886120  55.4436160  28.0217370  26.4859230  41.2814070
  28.9096990  26.7976460  41.1065410  27.9922460  25.6131480  40.8894650
  19.1308460  31.3916640  46.6874940  19.6487130  30.5884900  46.6331830
  18.6792480  31.3295780  47.5291770  24.0177960  32.6582920  41.9602240
  24.3593660  33.4025150  41.4645560  23.1890670  32.9714040  42.3227070
  16.6153000  28.3578010  53.6000640  16.2567940  29.0231860  54.1873980
  16.3207560  27.5261560  53.9713260  19.8166120  28.8162250  56.4840190
  19.5166260  28.9619430  55.5868010  20.5877360  28.2567540  56.3913580
  25.1594570  33.6131250  54.4795320  25.1739110  32.6812210  54.2614230
  24.4519670  33.6991010  55.1185090  30.2931640  27.7971070  40.7493930
  30.2095360  28.2285290  39.8990370  31.0125830  28.2569420  41.1820750
  31.3705780  30.2538590  53.8263900  30.6453970  30.8467370  53.6293290
  31.8981240  30.2462130  53.0277270  31.3218890  34.6513330  43.4776060
  30.6795050  33.9968950  43.7519780  30.9349550  35.0568420  42.7016730
  26.9005370  31.9798760  47.3247750  27.2529190  31.3826890  46.6649120
  26.0167700  31.6542990  47.4956000  22.9868650  32.7396450  44.7318160
  23.6739780  33.2865660  45.1125750  22.2001070  33.2837180  44.7667770
  15.1261050  28.3569270  40.2235240  15.9955900  28.6394070  40.5071160
  14.6351370  29.1705140  40.1084050  22.2895860  29.7442480  44.3443520
  22.7458640  30.5547730  44.5703710  21.9384070  29.4265620  45.1762010
  24.5928470  35.2548820  51.5735820  25.2370690  35.4608200  52.2509240
  24.9557910  34.4937220  51.1206670  18.1907640  20.0880130  44.8166040
  18.0622270  20.0798030  45.7650960  17.3669660  20.4263220  44.4657050
  25.8660550  33.2581170  50.2913270  26.5082780  32.5574330  50.4045440
  26.3909900  34.0379610  50.1110160  29.7116270  33.5429790  40.0152410
  29.4853850  32.8260230  40.6077050  29.3212470  33.2942230  39.1774160
  27.6398170  34.0576070  53.4949330  27.9754410  34.6442760  54.1727250
  26.7198510  33.9268780  53.7247120  15.4932300  37.5696650  40.7896870
  15.8529940  38.1685990  40.1354140  15.3524640  38.1156540  41.5631900
  15.1901570  21.8471250  54.2772740  14.4760090  22.0468170  54.8825350
  15.6096610  21.0710820  54.6487540  29.2932520  31.4601730  41.6766570
  29.0054220  31.9214420  42.4644450  30.0884690  30.9999500  41.9450790
  15.4774160  35.8351510  55.2639270  15.5865280  34.8946250  55.1234660
  14.8254720  36.1006260  54.6153000  23.4686750  34.1067400  56.6637390
  23.1483620  33.3876640  57.2083080  22.7945110  34.7822470  56.7373450
  21.5100920  34.9527850  41.6070540  21.5011020  35.6857540  40.9915050
  20.5899280  34.7059430  41.6997500  17.1107560  30.1742740  42.3517300
  16.5035510  30.9141640  42.3612600  17.5856910  30.2642100  41.5255500
  26.6840350  24.3393560  52.0274190  27.0521170  23.5188770  52.3553760
  25.8238550  24.3995450  52.4429840  30.0502380  23.2950500  42.8361750
  29.4215540  23.3996170  42.1219980  29.5554300  23.5147280  43.6255630
  24.4960520  35.0156090  40.2695730  24.5972500  34.8120080  39.3397710
  23.5962260  34.7614370  40.4743510  22.0186410  25.5736450  44.2519630
  21.3102560  26.0422790  44.6933240  22.3030890  24.9158460  44.8864820
  23.6442340  26.9933150  52.2512160  24.1427590  27.4678970  52.9164010
  23.7865290  26.0696670  52.4582190  26.0501840  22.2987110  45.6915420
  25.9269620  22.3173240  44.7424930  26.9986400  22.3466050  45.8113820
  23.1378630  37.5342410  44.9643400  23.3920130  37.4963800  44.0422770
  22.1891110  37.4075740  44.9571650  20.2221430  23.8821530  41.6270340
  21.0711960  24.3191680  41.5610530  19.8552700  24.1941790  42.4542400
  30.8509200  23.2101110  53.0940550  30.3482800  23.9506510  53.4334360
  31.6665860  23.5985110  52.7777340  29.1431210  28.4534290  46.5401910
  28.2021350  28.4684520  46.7149600  29.4575280  27.6670250  46.9862210
  19.1212850  30.1353890  40.1005870  19.8876120  30.0235250  40.6631300
  19.1987540  29.4391860  39.4482640  17.8159610  27.5678960  40.7838760
  17.8963200  26.6206470  40.8956160  18.7079360  27.8985840  40.8899420
  31.1456790  35.6243140  48.2156170  31.2704210  36.4474310  48.6879980
  32.0122350  35.4133870  47.8680320  18.6174320  37.7174350  47.8873300
  19.3536800  37.1689810  48.1581870  19.0015240  38.5830360  47.7479290
  15.5019800  33.7847920  43.7614810  14.5759580  34.0269060  43.7520220
  15.9676230  34.6122180  43.6399560  17.6232600  36.9020420  57.0758880
  18.4245330  37.2232470  57.4894280  17.1084420  36.5416000  57.7978790
  21.7276630  36.8904660  39.7098870  22.5205240  37.1793490  39.2580660
  21.2080980  36.4596830  39.0311350  26.4597230  33.0100290  57.0234290
  25.8535390  33.0331890  56.2830040  26.1551340  32.2783330  57.5601540
  27.8897600  36.7380580  55.6343700  28.8419350  36.6538600  55.5843940
  27.7425820  37.4022290  56.3077490  30.7806800  36.1174790  41.1335610
  30.4948310  35.7039930  40.3189790  30.5826350  37.0462500  41.0136130
  15.3430410  29.3893880  56.0194930  15.8469430  28.8101160  56.5911160
  14.6037830  29.6734110  56.5571300  22.2454030  32.1108070  39.5741220
  22.1404670  31.4960420  40.3002600  22.0778250  31.5873960  38.7904230
  22.3968350  30.7964870  55.5530450  21.6314020  31.3649870  55.4685120
  22.5784310  30.5041080  54.6598680  25.4856760  31.1728100  40.1783210
  24.9366860  31.6197400  40.8225950  26.1076020  30.6677350  40.7020880
  29.5391700  32.5270200  56.1105470  30.2801170  32.8645960  55.6072930
  28.7764380  32.6962260  55.5575240  17.3753490  27.5323470  56.9145000
  17.4158830  27.2337340  57.8230230  18.2298990  27.9331080  56.7552520
  21.1531880  30.1319020  42.0748510  21.5748300  29.9658890  42.9179900
  21.2782720  29.3219250  41.5803650  19.3159300  26.1115570  54.8819490
  18.7855760  25.6206520  54.2542830  19.9847370  26.5399770  54.3477420
  23.6659520  29.1556630  39.3225610  24.1865180  28.4405650  38.9566760
  24.3127920  29.7942500  39.6226120  28.2137360  30.5785030  54.6460680
  28.6278380  30.7330110  55.4951100  27.2788360  30.7040250  54.8086460
  28.6859530  27.9181190  56.6499830  29.2680300  27.1633510  56.5620310
  28.8621300  28.4488630  55.8731310  19.8031600  23.0777940  54.9616780
  19.7088470  22.4598690  54.2367650  19.2228990  23.8044230  54.7346690
  22.5693040  21.6351180  51.9944170  22.1210340  21.6575440  51.1489720
  21.9358240  21.2370200  52.5914470  22.9752590  30.5305510  52.6156610
  23.3940700  31.3738240  52.4432850  22.0561220  30.6677550  52.3863390
  25.3116490  28.2621690  53.9994450  25.4312700  27.6662830  54.7389290
  26.1710490  28.2991380  53.5795750  27.6504390  28.8158880  52.5756960
  27.1239610  29.3401500  51.9722100  27.9935730  29.4486270  53.2066690
  20.0490780  26.2052250  39.0206670  19.8479840  25.3419610  39.3820010
  19.8782830  26.1185610  38.0828270  20.8260010  36.8358520  53.7314340
  20.2881100  37.5604580  53.4123040  21.0793970  36.3588860  52.9411680
  22.0785260  24.8043040  55.2570270  22.6684950  24.4958890  55.9448090
  21.2605500  24.3322790  55.4130170  26.8978690  24.4208850  55.4903290
  26.2094210  23.7590390  55.4253280  27.6184710  23.9747120  55.9351750
  27.5279090  21.0160480  41.5493550  27.8081380  20.1728380  41.9052970
  26.7544820  21.2483590  42.0632300  18.8473580  23.3052870  39.0084550
  19.1499480  23.3120300  38.1003700  19.5868170  22.9550730  39.5052210
  23.6822220  38.0709730  53.9900990  23.6080920  38.9744870  54.2973360
  22.7801060  37.7521630  53.9623060  22.0658510  22.2487490  39.9940750
  21.7180510  21.5711480  39.4143200  22.2671280  21.7877000  40.8084140
  24.2307550  37.2368240  41.6127350  25.1258340  37.5753210  41.6346110
  24.2625180  36.5147650  40.9851630  17.8703710  32.6095290  39.8414350
  18.3078580  33.1524960  40.4971930  18.3551440  31.7842240  39.8510690
  15.0849510  35.3984320  47.2934610  15.4152520  34.5305380  47.0613250
  15.5140510  35.6042840  48.1239570  19.6811430  33.7293330  44.9536580
  19.3806970  33.6058300  45.8540490  19.5748920  32.8701920  44.5452310
  15.5739720  36.2654910  50.0316240  15.1370710  36.4455710  50.8640390
  16.1417400  37.0229530  49.8897960  31.2101900  35.7671910  54.3193550
  30.6103890  35.8264470  53.5757470  31.3395800  34.8276890  54.4490400
  32.4503350  33.5089730  39.6563260  31.6196310  33.5766380  40.1270490
  32.6275180  34.3993850  39.3530120  31.9059810  30.2537210  42.1597460
  32.6678720  30.8233860  42.2657150  31.9214180  29.6864410  42.9305770
  15.4064150  28.7775140  46.3905120  14.7512990  28.5086780  45.7464820
  16.2442100  28.6679620  45.9407100  32.9119780  31.1087310  47.0039390
  33.2828610  30.3254630  46.5975360  33.5521710  31.7976410  46.8256690
  29.8953540  32.4923890  52.4169710  29.0813380  32.9221050  52.6795500
  30.3027740  33.1042300  51.8038760  31.9578980  30.5471580  39.3169980
  32.2327820  31.4550460  39.1889200  31.7689720  30.4834110  40.2531970
  28.3554590  23.5716430  40.6123610  28.7739470  23.3847410  39.7720270
  28.0490650  22.7195480  40.9226540  31.8544320  28.4840570  44.3099410
  31.4787920  27.7168500  43.8780700  31.1247440  28.8663270  44.7974340
  16.4440080  29.1627710  50.9308460  16.8113120  29.0755110  51.8104480
  15.8750900  28.3994260  50.8315320  31.2443940  27.6312090  53.9438930
  31.0130030  27.4024840  53.0436880  31.5048490  28.5511640  53.8983820
  15.9956080  26.0736800  54.8366880  15.1012130  26.0403560  55.1760590
  16.5353630  26.2723590  55.6018130  29.6832010  22.8568520  56.7218630
  30.5602190  22.8651920  57.1052630  29.6952850  22.1199360  56.1110980
  14.6202230  25.9874070  42.3330450  13.7166310  26.2504270  42.1582110
  15.1042850  26.2585240  41.5530410  31.1295280  26.7098060  47.6106650
  31.6532760  26.2160710  46.9796820  31.7154700  26.8448420  48.3554220
  31.3085000  26.7937930  51.1326200  30.3587710  26.7601470  51.2471190
  31.4898010  27.7038040  50.8975970  17.1629440  25.0439610  40.2424830
  17.8721140  24.6222830  39.7572110  16.4469380  25.1114840  39.6108180
  16.8103600  21.0978940  39.2827480  17.5331730  21.6387880  39.6008700
  17.0828120  20.8242360  38.4069020  30.6195250  25.9671410  43.5499060
  31.1154370  25.7342280  44.3347940  30.4211320  25.1283250  43.1336700
  16.4995790  20.3485130  49.1850100  17.1471980  19.7982510  48.7445260
  16.9197630  20.6028280  50.0065910  32.0482410  24.6032360  46.0836740
  31.9381690  24.4488400  47.0219010  32.8090000  24.0753300  45.8412150
  30.3948130  20.5426490  52.5419740  31.0320350  21.1560630  52.9078930
  30.5423020  20.5787150  51.5968970  32.9372680  22.4340280  39.3242880
  33.8621990  22.3021460  39.1161170  32.9148470  22.5133100  40.2779330
  33.0111170  23.2050940  41.9499590  32.2162670  23.1396060  42.4792500
  33.2154450  24.1401580  41.9384940  29.9529590  37.2442490  45.9437980
  30.5488660  36.9227060  45.2672400  30.2107740  36.7714310  46.7351250
  16.2527790  20.5040800  51.9275420  15.9042610  20.9604620  52.6933600
  15.9215490  19.6097930  52.0097850  17.8592160  33.6760400  56.0928610
  17.8161790  33.3053310  56.9743070  17.9903170  34.6137970  56.2330430
  21.5598190  35.2319990  51.6938330  21.3189550  35.4994550  50.8068850
  22.5000830  35.4025720  51.7489190  23.7652610  21.6952680  55.4494840
  23.7041500  22.2874510  56.1990250  24.7052990  21.5878640  55.3045100
  26.4027170  21.3522740  55.0887130  27.0167580  21.6702030  54.4268210
  26.9476730  20.8671330  55.7082990  32.8202350  37.2514370  52.4948970
  32.3260630  37.6483240  51.7776100  32.2115640  36.6263580  52.8886250
  16.9248430  20.0317000  55.2026190  17.4731420  19.8505050  54.4392300
  16.9903740  19.2411110  55.7382500  17.6980190  36.6222650  53.2126390
  17.1040510  36.4907350  53.9516430  17.6904030  35.7860790  52.7468490
  27.1435210  19.9154880  51.4156420  26.2695050  20.2489990  51.2129350
  27.0345960  19.4428060  52.2408290  28.0507190  22.1225750  52.7998140
  27.7220550  21.3077510  52.4199870  28.9989490  22.0795560  52.6763830
  30.5041800  37.8937790  49.7735710  30.0444770  38.6453600  49.3993730
  29.8754260  37.1744260  49.7150510  17.3292420  33.9881030  52.1634430
  16.6026480  33.3686320  52.0960380  17.3901570  34.3821640  51.2932510
  20.9337520  36.2026030  48.9483840  21.4502540  35.5913390  48.4232100
  21.5834900  36.7054810  49.4394850  23.6733020  37.0934520  49.7752820
  23.9610830  36.8388820  48.8985830  24.1856240  36.5411880  50.3658390
  24.8910030  20.8324720  50.3549330  24.1081820  21.3070220  50.6346090
  24.5972960  19.9279550  50.2462510  29.4431100  21.5347820  48.3998420
  29.8839190  21.4792920  47.5520020  29.1738690  22.4505830  48.4708600
  31.3069670  21.1663060  46.4107240  31.2458070  20.2224280  46.2638260
  32.0861700  21.2743150  46.9560700  15.6122420  37.3055420  45.3731190
  15.4444460  36.6726100  46.0713080  14.7456930  37.5114820  45.0225380
  16.2350440  21.1372200  42.8763050  16.9929800  21.2501080  42.3027080
  15.7727610  21.9741400  42.8306480  22.7764250  23.2511470  45.8665360
  21.9638760  22.8768360  45.5261240  23.2805890  22.4956550  46.1686550
  27.2789230  19.9153920  47.1048430  27.8818600  20.4874130  47.5796950
  26.5382220  20.4793360  46.8822330  30.4223830  20.3175480  42.3788710
  30.6174460  21.2158930  42.6456140  29.6353700  20.0862560  42.8721660
  17.2185120  35.9988650  42.8181330  16.6932740  36.3796680  42.1143290
  17.1429700  36.6239420  43.5391040  18.6075590  21.6636250  41.4165020
  19.1368350  20.8766050  41.2872970  19.2403910  22.3427440  41.6500550
  20.8013430  21.4011390  44.4710410  20.1716170  20.6998700  44.6380540
  20.2618570  22.1615520  44.2543570  23.7405380  38.0150620  57.1421020
  24.6672690  37.7794890  57.1856980  23.7255810  38.8422620  56.6607050
  31.9750440  37.5576190  44.1395270  32.1502630  36.8713930  43.4956190
  31.2772010  38.0823240  43.7471940  20.9268990  20.6795370  56.9062900
  20.6453260  21.1828970  56.1423720  21.3088690  19.8817120  56.5405030
  19.8178090  37.9471030  41.6930580  20.5496910  37.6630310  41.1454470
  20.0771760  37.7084310  42.5829960  18.9792880  34.0635760  41.6976910
  18.3501760  34.5320860  42.2462740  19.0940710  33.2184980  42.1323100
  27.5284450  20.0948950  57.4843370  27.4149900  20.4143560  58.3794890
  28.3454190  20.4961460  57.1880650  30.3082940  37.2420480  56.9662060
  31.1008260  36.7469710  56.7588020  30.6016090  37.9210620  57.5737670
  26.4342600  28.1141420  27.8478110  26.3536650  27.1996030  27.5769820
  26.0207020  28.6108490  27.1417820  24.5660640  29.8920440  29.7287380
  23.7902740  29.4120880  30.0185950  25.2173570  29.2126090  29.5543540
  18.5826470  30.2040250  30.6063140  17.7511350  29.9488960  31.0059650
  19.1907450  30.2751020  31.3421060  28.5868070  34.2980630  28.5086510
  28.1249600  33.5267870  28.8373680  29.3993620  34.3246700  29.0138960
  18.5627730  34.2380340  30.8021160  18.8655770  33.3478080  30.6231380
  19.3071320  34.7950560  30.5743410  16.9918420  25.1642140  24.3905530
  16.1035120  25.5058110  24.2885410  17.2759610  24.9642460  23.4986360
  14.9551430  27.7647790  30.2745230  15.5267540  26.9969990  30.2748870
  14.9552970  28.0636550  29.3651840  24.8131380  36.5838640  28.1290500
  24.1942820  37.0396140  27.5584940  25.6683160  36.7390100  27.7280200
  24.0069630  32.5677630  29.7357540  23.9377910  31.6267570  29.5746670
  24.7689490  32.6579040  30.3080110  16.1976300  23.1732150  32.0614160
  16.0179140  22.2757900  32.3416920  15.7956380  23.7204020  32.7361110
  25.0374800  25.3748010  29.9626470  25.4139620  24.5019890  29.8500140
  24.9394310  25.7106710  29.0716910  19.1679810  23.7473640  25.4243910
  19.2746560  24.6477370  25.7312670  18.2572170  23.6991610  25.1338560
  28.8198920  22.8698450  26.8954810  29.6408540  22.3795020  26.9380290
  28.8533000  23.4596110  27.6486650  16.8162970  25.6692650  30.6696500
  17.4973080  25.9331020  31.2883900  16.5011020  24.8293520  31.0034510
  21.0087540  26.7160010  29.7569090  21.5165760  27.2140980  30.3974110
  21.5400780  25.9395210  29.5808450  33.1098470  24.8865200  33.4598440
  32.4050640  25.2746910  32.9413550  33.3756390  25.5815490  34.0619370
  19.2923640  21.3558570  34.0232510  19.2942080  21.8730960  33.2178410
  18.4627950  20.8788750  34.0002440  25.6794730  31.4677880  25.5222410
  25.0612000  31.9327330  24.9585130  26.1917980  32.1605360  25.9391920
  20.5426490  30.9953750  32.2006010  20.2095870  31.6222670  32.8427080
  20.7193170  31.5215630  31.4207680  29.0560400  24.8098830  29.6682350
  28.3515970  25.0983720  30.2485460  29.4172560  25.6198940  29.3081910
  18.9738970  23.0668530  32.0302960  19.3155780  23.9110580  31.7356830
  18.0354780  23.2152270  32.1468300  19.7545590  32.9634550  34.0155190
  20.3719590  33.6385630  33.7339640  18.8938710  33.3722530  33.9242690
  15.0477930  32.1534410  22.8962040  14.6705910  32.6421510  22.1646940
  15.3051000  32.8259690  23.5268570  30.6723180  34.4273960  31.9309830
  29.9886700  35.0973070  31.9226500  31.2117470  34.6254610  31.1654690
  32.1247320  24.2553620  30.0591560  31.1772230  24.2892600  30.1906990
  32.4497310  25.0692570  30.4440920  22.6566860  20.5550800  28.3547550
  22.9641840  19.9997690  27.6383050  21.7267560  20.6895260  28.1720540
  28.2081920  36.2718090  30.6455010  28.2209080  35.8680380  29.7777270
  27.6557140  37.0465380  30.5416440  29.5027340  32.9934310  25.7345180
  29.3923670  32.0508640  25.8594600  29.4995590  33.3549950  26.6207940
  27.6067360  31.1747930  31.9737620  28.0236150  30.9608040  31.1391080
  28.3307180  31.4320720  32.5446240  25.0447620  28.6199630  25.0907670
  24.1176900  28.5537010  25.3196140  25.1972440  29.5579760  24.9762910
  25.0316700  24.8916630  22.0874830  24.0920370  25.0530590  22.1727290
  25.3499960  25.6102310  21.5410820  31.5529460  29.5735150  32.0653860
  30.7248090  29.6428240  31.5903990  32.1479940  30.1589460  31.5969690
  29.0744910  30.1819930  25.5942920  28.4557330  29.8439480  24.9469220
  29.0569360  29.5379690  26.3022110  28.5171470  26.3604470  33.0108730
  28.1042650  27.1858180  33.2648720  27.7847420  25.7749510  32.8185090
  20.6504260  29.1464370  27.8727400  20.2461260  28.4341620  27.3773300
  20.7367380  28.8017610  28.7615440  21.1185960  32.8331930  30.0366610
  20.8214250  32.2277400  29.3574390  22.0685780  32.8709240  29.9255970
  19.3632880  25.9207580  31.6526440  19.9147470  26.0302920  30.8779690
  19.8776390  26.2945180  32.3681670  29.2071570  36.4063800  33.6989710
  28.7302130  37.2135990  33.5062320  28.5233360  35.7542130  33.8515920
  20.2104390  32.5713620  36.6874410  19.3132920  32.7953590  36.9347810
  20.2357260  32.6948560  35.7385810  27.2509610  29.4206740  22.6015670
  27.6902890  28.5829170  22.4553490  27.9638030  30.0536140  22.6879810
  19.0375610  29.4426940  35.2631780  18.8983380  30.3149740  35.6319180
  18.1556970  29.0999750  35.1179720  25.3604990  34.3602810  26.5696910
  25.8000900  35.1027140  26.1552300  25.2991880  34.6029380  27.4935870
  20.8355960  35.3848640  37.4716930  20.8071390  35.7891590  36.6045360
  20.6720930  34.4559000  37.3088530  30.8326750  20.6749550  20.9156710
  30.5199410  20.7676380  21.8155780  31.5939220  21.2530580  20.8654140
  17.3508890  28.0409350  25.3734050  17.2306490  28.7671440  24.7615320
  17.0409780  27.2712260  24.8961960  32.7870780  36.1675740  38.7681100
  33.2630500  36.6458630  39.4470180  33.4077940  36.0993230  38.0426600
  14.9894260  31.2124490  31.1802690  15.0674680  31.3473260  30.2358410
  15.6035940  30.5040380  31.3730810  16.2341890  32.9124680  27.5908870
  15.8269970  33.0539270  26.7362470  17.1254900  32.6284840  27.3880080
  32.1904030  33.3588590  35.9281110  32.3167090  33.1200470  35.0098290
  32.2325410  32.5273130  36.4003190  26.0520770  37.0616590  34.4975920
  26.5665440  36.9724600  35.2998350  25.2089850  37.4076290  34.7903830
  28.0275170  37.3471930  23.9259920  27.8676310  37.0574870  24.8241750
  27.8621880  36.5712060  23.3905150  20.5063550  37.1270460  25.7031540
  20.3306030  36.2106000  25.4899340  19.6519290  37.4857750  25.9429340
  27.7301300  34.8559490  22.4857920  27.0366460  34.8536780  21.8260200
  28.4724160  34.4318810  22.0552090  27.2951230  36.4822200  26.5606410
  27.7508180  35.7011580  26.8745030  27.6343750  37.1929020  27.1047590
  32.0428040  25.4121050  36.8930850  31.4272310  25.9200720  36.3646310
  31.7224460  24.5119380  36.8356790  15.0453780  32.2538660  33.7197150
  15.2084820  31.7844020  32.9016520  15.5106230  31.7462220  34.3845990
  19.8172550  21.3844420  28.7557720  19.3740700  22.1653960  28.4242240
  20.3757540  21.7074310  29.4628660  24.1042360  24.2512940  34.3593040
  23.6421730  24.4595960  35.1712980  23.7020470  23.4372290  34.0563710
  29.1046870  25.4721890  35.4889700  28.2540460  25.1727640  35.8098770
  28.9448660  25.7163900  34.5773520  26.1996580  26.9723640  37.5888490
  26.5249990  26.1387390  37.2490720  26.9876910  27.4952160  37.7366820
  22.9331370  21.0055120  23.6363550  22.3085550  21.0014990  24.3616860
  22.8461490  20.1386080  23.2399520  21.8548450  21.9291750  30.6147320
  22.1520780  22.8354580  30.5339340  22.4034010  21.4410530  30.0006890
  19.6086770  26.5077990  26.4838970  19.3827690  26.2915160  27.3885590
  18.8279300  26.9406450  26.1384940  26.8384530  26.5141360  25.0829620
  26.2393420  27.2377160  24.8993240  27.3864140  26.4518140  24.3006070
  22.0485980  27.4063570  37.1499240  21.9529580  26.4658300  36.9999640
  22.8917960  27.6278640  36.7547310  25.4449400  25.1504900  27.1132900
  25.8378970  25.4677100  26.3001590  25.8066250  24.2716780  27.2277420
  17.1796520  23.8177240  35.3033020  16.7859910  24.6652450  35.5105800
  16.4914920  23.1803610  35.4941660  23.7541570  23.9012210  38.3729760
  23.0639890  23.7084410  39.0075850  24.4973870  24.1846850  38.9054060
  14.4813570  21.7405700  29.3363100  14.1926620  22.3108560  30.0488080
  15.2259330  21.2610150  29.6994330  14.6683800  25.6825820  20.5465820
  14.5858470  26.6256580  20.6880810  14.3166860  25.5400730  19.6678170
  26.0304540  27.7410650  31.2083680  25.2985660  28.2497460  31.5573780
  25.6328880  26.9240630  30.9072460  22.4681930  24.4164850  29.6136170
  22.4717990  23.9754800  28.7640710  23.3633050  24.7382180  29.7207990
  18.3184310  24.2991340  28.5730380  17.9784360  24.7766570  29.3297430
  17.5561630  23.8456460  28.2131480  22.5302080  25.4176930  22.6042930
  22.6514900  25.3763410  23.5528750  22.1450590  26.2801080  22.4489660
  26.4930450  23.1944330  30.6206620  26.5103190  23.6452980  31.4648470
  26.2446030  22.2949970  30.8340060  21.5423580  27.7278070  22.0026230
  20.9740480  27.2796320  21.3762140  22.2512580  28.0870850  21.4691380
  29.9201200  20.6076510  36.4593000  30.2446970  19.8766170  36.9850980
  29.9557710  20.2890150  35.5573990  16.6192760  31.6290090  35.8792960
  16.2347550  30.9883760  36.4775920  16.9304950  32.3326210  36.4487690
  22.7689900  28.4766630  31.3601580  23.1360030  28.0025200  32.1062920
  22.5794960  29.3508200  31.7009920  15.6330390  23.2210320  27.4895050
  15.3477310  22.8565990  28.3273670  15.5709250  22.4890780  26.8758190
  20.5589270  27.5175270  33.6785790  20.2546340  28.3967250  33.9036150
  21.5135730  27.5775060  33.7143230  19.0871060  31.7236260  24.2752640
  18.3133320  31.1833880  24.1151360  19.8165690  31.2042870  23.9370400
  29.8459040  30.7201620  30.0679030  30.5658160  31.2156910  29.6775140
  29.6440860  30.0419510  29.4232900  25.3068980  22.1139580  24.2108420
  24.4933590  21.6152750  24.1353730  25.1130930  22.9537830  23.7944770
  25.2277840  30.7910680  35.9548030  25.1615150  29.8706350  35.7005620
  24.5982980  30.8886120  36.6692670  28.0217370  26.4859230  22.5070580
  28.9096990  26.7976460  22.3321920  27.9922460  25.6131480  22.1151160
  19.1308460  31.3916640  27.9131450  19.6487130  30.5884900  27.8588340
  18.6792480  31.3295780  28.7548280  24.0177960  32.6582920  23.1858750
  24.3593660  33.4025150  22.6902070  23.1890670  32.9714040  23.5483580
  16.6153000  28.3578010  34.8257150  16.2567940  29.0231860  35.4130490
  16.3207560  27.5261560  35.1969770  19.8166120  28.8162250  37.7096700
  19.5166260  28.9619430  36.8124520  20.5877360  28.2567540  37.6170090
  25.1594570  33.6131250  35.7051830  25.1739110  32.6812210  35.4870740
  24.4519670  33.6991010  36.3441600  30.2931640  27.7971070  21.9750440
  30.2095360  28.2285290  21.1246880  31.0125830  28.2569420  22.4077260
  31.3705780  30.2538590  35.0520410  30.6453970  30.8467370  34.8549800
  31.8981240  30.2462130  34.2533780  31.3218890  34.6513330  24.7032570
  30.6795050  33.9968950  24.9776290  30.9349550  35.0568420  23.9273240
  26.9005370  31.9798760  28.5504260  27.2529190  31.3826890  27.8905630
  26.0167700  31.6542990  28.7212510  22.9868650  32.7396450  25.9574670
  23.6739780  33.2865660  26.3382260  22.2001070  33.2837180  25.9924280
  15.1261050  28.3569270  21.4491750  15.9955900  28.6394070  21.7327670
  14.6351370  29.1705140  21.3340560  22.2895860  29.7442480  25.5700030
  22.7458640  30.5547730  25.7960220  21.9384070  29.4265620  26.4018520
  24.5928470  35.2548820  32.7992330  25.2370690  35.4608200  33.4765750
  24.9557910  34.4937220  32.3463180  18.1907640  20.0880130  26.0422550
  18.0622270  20.0798030  26.9907470  17.3669660  20.4263220  25.6913560
  25.8660550  33.2581170  31.5169780  26.5082780  32.5574330  31.6301950
  26.3909900  34.0379610  31.3366670  29.7116270  33.5429790  21.2408920
  29.4853850  32.8260230  21.8333560  29.3212470  33.2942230  20.4030670
  27.6398170  34.0576070  34.7205840  27.9754410  34.6442760  35.3983760
  26.7198510  33.9268780  34.9503630  15.4932300  37.5696650  22.0153380
  15.8529940  38.1685990  21.3610650  15.3524640  38.1156540  22.7888410
  15.1901570  21.8471250  35.5029250  14.4760090  22.0468170  36.1081860
  15.6096610  21.0710820  35.8744050  29.2932520  31.4601730  22.9023080
  29.0054220  31.9214420  23.6900960  30.0884690  30.9999500  23.1707300
  15.4774160  35.8351510  36.4895780  15.5865280  34.8946250  36.3491170
  14.8254720  36.1006260  35.8409510  23.4686750  34.1067400  37.8893900
  23.1483620  33.3876640  38.4339590  22.7945110  34.7822470  37.9629960
  21.5100920  34.9527850  22.8327050  21.5011020  35.6857540  22.2171560
  20.5899280  34.7059430  22.9254010  17.1107560  30.1742740  23.5773810
  16.5035510  30.9141640  23.5869110  17.5856910  30.2642100  22.7512010
  26.6840350  24.3393560  33.2530700  27.0521170  23.5188770  33.5810270
  25.8238550  24.3995450  33.6686350  30.0502380  23.2950500  24.0618260
  29.4215540  23.3996170  23.3476490  29.5554300  23.5147280  24.8512140
  24.4960520  35.0156090  21.4952240  24.5972500  34.8120080  20.5654220
  23.5962260  34.7614370  21.7000020  22.0186410  25.5736450  25.4776140
  21.3102560  26.0422790  25.9189750  22.3030890  24.9158460  26.1121330
  23.6442340  26.9933150  33.4768670  24.1427590  27.4678970  34.1420520
  23.7865290  26.0696670  33.6838700  26.0501840  22.2987110  26.9171930
  25.9269620  22.3173240  25.9681440  26.9986400  22.3466050  27.0370330
  23.1378630  37.5342410  26.1899910  23.3920130  37.4963800  25.2679280
  22.1891110  37.4075740  26.1828160  20.2221430  23.8821530  22.8526850
  21.0711960  24.3191680  22.7867040  19.8552700  24.1941790  23.6798910
  30.8509200  23.2101110  34.3197060  30.3482800  23.9506510  34.6590870
  31.6665860  23.5985110  34.0033850  29.1431210  28.4534290  27.7658420
  28.2021350  28.4684520  27.9406110  29.4575280  27.6670250  28.2118720
  19.1212850  30.1353890  21.3262380  19.8876120  30.0235250  21.8887810
  19.1987540  29.4391860  20.6739150  17.8159610  27.5678960  22.0095270
  17.8963200  26.6206470  22.1212670  18.7079360  27.8985840  22.1155930
  31.1456790  35.6243140  29.4412680  31.2704210  36.4474310  29.9136490
  32.0122350  35.4133870  29.0936830  18.6174320  37.7174350  29.1129810
  19.3536800  37.1689810  29.3838380  19.0015240  38.5830360  28.9735800
  15.5019800  33.7847920  24.9871320  14.5759580  34.0269060  24.9776730
  15.9676230  34.6122180  24.8656070  17.6232600  36.9020420  38.3015390
  18.4245330  37.2232470  38.7150790  17.1084420  36.5416000  39.0235300
  21.7276630  36.8904660  20.9355380  22.5205240  37.1793490  20.4837170
  21.2080980  36.4596830  20.2567860  26.4597230  33.0100290  38.2490800
  25.8535390  33.0331890  37.5086550  26.1551340  32.2783330  38.7858050
  27.8897600  36.7380580  36.8600210  28.8419350  36.6538600  36.8100450
  27.7425820  37.4022290  37.5334000  30.7806800  36.1174790  22.3592120
  30.4948310  35.7039930  21.5446300  30.5826350  37.0462500  22.2392640
  15.3430410  29.3893880  37.2451440  15.8469430  28.8101160  37.8167670
  14.6037830  29.6734110  37.7827810  22.2454030  32.1108070  20.7997730
  22.1404670  31.4960420  21.5259110  22.0778250  31.5873960  20.0160740
  22.3968350  30.7964870  36.7786960  21.6314020  31.3649870  36.6941630
  22.5784310  30.5041080  35.8855190  25.4856760  31.1728100  21.4039720
  24.9366860  31.6197400  22.0482460  26.1076020  30.6677350  21.9277390
  29.5391700  32.5270200  37.3361980  30.2801170  32.8645960  36.8329440
  28.7764380  32.6962260  36.7831750  17.3753490  27.5323470  38.1401510
  17.4158830  27.2337340  39.0486740  18.2298990  27.9331080  37.9809030
  21.1531880  30.1319020  23.3005020  21.5748300  29.9658890  24.1436410
  21.2782720  29.3219250  22.8060160  19.3159300  26.1115570  36.1076000
  18.7855760  25.6206520  35.4799340  19.9847370  26.5399770  35.5733930
  23.6659520  29.1556630  20.5482120  24.1865180  28.4405650  20.1823270
  24.3127920  29.7942500  20.8482630  28.2137360  30.5785030  35.8717190
  28.6278380  30.7330110  36.7207610  27.2788360  30.7040250  36.0342970
  28.6859530  27.9181190  37.8756340  29.2680300  27.1633510  37.7876820
  28.8621300  28.4488630  37.0987820  19.8031600  23.0777940  36.1873290
  19.7088470  22.4598690  35.4624160  19.2228990  23.8044230  35.9603200
  22.5693040  21.6351180  33.2200680  22.1210340  21.6575440  32.3746230
  21.9358240  21.2370200  33.8170980  22.9752590  30.5305510  33.8413120
  23.3940700  31.3738240  33.6689360  22.0561220  30.6677550  33.6119900
  25.3116490  28.2621690  35.2250960  25.4312700  27.6662830  35.9645800
  26.1710490  28.2991380  34.8052260  27.6504390  28.8158880  33.8013470
  27.1239610  29.3401500  33.1978610  27.9935730  29.4486270  34.4323200
  20.0490780  26.2052250  20.2463180  19.8479840  25.3419610  20.6076520
  19.8782830  26.1185610  19.3084780  20.8260010  36.8358520  34.9570850
  20.2881100  37.5604580  34.6379550  21.0793970  36.3588860  34.1668190
  22.0785260  24.8043040  36.4826780  22.6684950  24.4958890  37.1704600
  21.2605500  24.3322790  36.6386680  26.8978690  24.4208850  36.7159800
  26.2094210  23.7590390  36.6509790  27.6184710  23.9747120  37.1608260
  27.5279090  21.0160480  22.7750060  27.8081380  20.1728380  23.1309480
  26.7544820  21.2483590  23.2888810  18.8473580  23.3052870  20.2341060
  19.1499480  23.3120300  19.3260210  19.5868170  22.9550730  20.7308720
  23.6822220  38.0709730  35.2157500  23.6080920  38.9744870  35.5229870
  22.7801060  37.7521630  35.1879570  22.0658510  22.2487490  21.2197260
  21.7180510  21.5711480  20.6399710  22.2671280  21.7877000  22.0340650
  24.2307550  37.2368240  22.8383860  25.1258340  37.5753210  22.8602620
  24.2625180  36.5147650  22.2108140  17.8703710  32.6095290  21.0670860
  18.3078580  33.1524960  21.7228440  18.3551440  31.7842240  21.0767200
  15.0849510  35.3984320  28.5191120  15.4152520  34.5305380  28.2869760
  15.5140510  35.6042840  29.3496080  19.6811430  33.7293330  26.1793090
  19.3806970  33.6058300  27.0797000  19.5748920  32.8701920  25.7708820
  15.5739720  36.2654910  31.2572750  15.1370710  36.4455710  32.0896900
  16.1417400  37.0229530  31.1154470  31.2101900  35.7671910  35.5450060
  30.6103890  35.8264470  34.8013980  31.3395800  34.8276890  35.6746910
  32.4503350  33.5089730  20.8819770  31.6196310  33.5766380  21.3527000
  32.6275180  34.3993850  20.5786630  31.9059810  30.2537210  23.3853970
  32.6678720  30.8233860  23.4913660  31.9214180  29.6864410  24.1562280
  15.4064150  28.7775140  27.6161630  14.7512990  28.5086780  26.9721330
  16.2442100  28.6679620  27.1663610  32.9119780  31.1087310  28.2295900
  33.2828610  30.3254630  27.8231870  33.5521710  31.7976410  28.0513200
  29.8953540  32.4923890  33.6426220  29.0813380  32.9221050  33.9052010
  30.3027740  33.1042300  33.0295270  31.9578980  30.5471580  20.5426490
  32.2327820  31.4550460  20.4145710  31.7689720  30.4834110  21.4788480
  28.3554590  23.5716430  21.8380120  28.7739470  23.3847410  20.9976780
  28.0490650  22.7195480  22.1483050  31.8544320  28.4840570  25.5355920
  31.4787920  27.7168500  25.1037210  31.1247440  28.8663270  26.0230850
  16.4440080  29.1627710  32.1564970  16.8113120  29.0755110  33.0360990
  15.8750900  28.3994260  32.0571830  31.2443940  27.6312090  35.1695440
  31.0130030  27.4024840  34.2693390  31.5048490  28.5511640  35.1240330
  15.9956080  26.0736800  36.0623390  15.1012130  26.0403560  36.4017100
  16.5353630  26.2723590  36.8274640  29.6832010  22.8568520  37.9475140
  30.5602190  22.8651920  38.3309140  29.6952850  22.1199360  37.3367490
  14.6202230  25.9874070  23.5586960  13.7166310  26.2504270  23.3838620
  15.1042850  26.2585240  22.7786920  31.1295280  26.7098060  28.8363160
  31.6532760  26.2160710  28.2053330  31.7154700  26.8448420  29.5810730
  31.3085000  26.7937930  32.3582710  30.3587710  26.7601470  32.4727700
  31.4898010  27.7038040  32.1232480  17.1629440  25.0439610  21.4681340
  17.8721140  24.6222830  20.9828620  16.4469380  25.1114840  20.8364690
  16.8103600  21.0978940  20.5083990  17.5331730  21.6387880  20.8265210
  17.0828120  20.8242360  19.6325530  30.6195250  25.9671410  24.7755570
  31.1154370  25.7342280  25.5604450  30.4211320  25.1283250  24.3593210
  16.4995790  20.3485130  30.4106610  17.1471980  19.7982510  29.9701770
  16.9197630  20.6028280  31.2322420  32.0482410  24.6032360  27.3093250
  31.9381690  24.4488400  28.2475520  32.8090000  24.0753300  27.0668660
  30.3948130  20.5426490  33.7676250  31.0320350  21.1560630  34.1335440
  30.5423020  20.5787150  32.8225480  32.9372680  22.4340280  20.5499390
  33.8621990  22.3021460  20.3417680  32.9148470  22.5133100  21.5035840
  33.0111170  23.2050940  23.1756100  32.2162670  23.1396060  23.7049010
  33.2154450  24.1401580  23.1641450  29.9529590  37.2442490  27.1694490
  30.5488660  36.9227060  26.4928910  30.2107740  36.7714310  27.9607760
  16.2527790  20.5040800  33.1531930  15.9042610  20.9604620  33.9190110
  15.9215490  19.6097930  33.2354360  17.8592160  33.6760400  37.3185120
  17.8161790  33.3053310  38.1999580  17.9903170  34.6137970  37.4586940
  21.5598190  35.2319990  32.9194840  21.3189550  35.4994550  32.0325360
  22.5000830  35.4025720  32.9745700  23.7652610  21.6952680  36.6751350
  23.7041500  22.2874510  37.4246760  24.7052990  21.5878640  36.5301610
  26.4027170  21.3522740  36.3143640  27.0167580  21.6702030  35.6524720
  26.9476730  20.8671330  36.9339500  32.8202350  37.2514370  33.7205480
  32.3260630  37.6483240  33.0032610  32.2115640  36.6263580  34.1142760
  16.9248430  20.0317000  36.4282700  17.4731420  19.8505050  35.6648810
  16.9903740  19.2411110  36.9639010  17.6980190  36.6222650  34.4382900
  17.1040510  36.4907350  35.1772940  17.6904030  35.7860790  33.9725000
  27.1435210  19.9154880  32.6412930  26.2695050  20.2489990  32.4385860
  27.0345960  19.4428060  33.4664800  28.0507190  22.1225750  34.0254650
  27.7220550  21.3077510  33.6456380  28.9989490  22.0795560  33.9020340
  30.5041800  37.8937790  30.9992220  30.0444770  38.6453600  30.6250240
  29.8754260  37.1744260  30.9407020  17.3292420  33.9881030  33.3890940
  16.6026480  33.3686320  33.3216890  17.3901570  34.3821640  32.5189020
  20.9337520  36.2026030  30.1740350  21.4502540  35.5913390  29.6488610
  21.5834900  36.7054810  30.6651360  23.6733020  37.0934520  31.0009330
  23.9610830  36.8388820  30.1242340  24.1856240  36.5411880  31.5914900
  24.8910030  20.8324720  31.5805840  24.1081820  21.3070220  31.8602600
  24.5972960  19.9279550  31.4719020  29.4431100  21.5347820  29.6254930
  29.8839190  21.4792920  28.7776530  29.1738690  22.4505830  29.6965110
  31.3069670  21.1663060  27.6363750  31.2458070  20.2224280  27.4894770
  32.0861700  21.2743150  28.1817210  15.6122420  37.3055420  26.5987700
  15.4444460  36.6726100  27.2969590  14.7456930  37.5114820  26.2481890
  16.2350440  21.1372200  24.1019560  16.9929800  21.2501080  23.5283590
  15.7727610  21.9741400  24.0562990  22.7764250  23.2511470  27.0921870
  21.9638760  22.8768360  26.7517750  23.2805890  22.4956550  27.3943060
  27.2789230  19.9153920  28.3304940  27.8818600  20.4874130  28.8053460
  26.5382220  20.4793360  28.1078840  30.4223830  20.3175480  23.6045220
  30.6174460  21.2158930  23.8712650  29.6353700  20.0862560  24.0978170
  17.2185120  35.9988650  24.0437840  16.6932740  36.3796680  23.3399800
  17.1429700  36.6239420  24.7647550  18.6075590  21.6636250  22.6421530
  19.1368350  20.8766050  22.5129480  19.2403910  22.3427440  22.8757060
  20.8013430  21.4011390  25.6966920  20.1716170  20.6998700  25.8637050
  20.2618570  22.1615520  25.4800080  23.7405380  38.0150620  38.3677530
  24.6672690  37.7794890  38.4113490  23.7255810  38.8422620  37.8863560
  31.9750440  37.5576190  25.3651780  32.1502630  36.8713930  24.7212700
  31.2772010  38.0823240  24.9728450  20.9268990  20.6795370  38.1319410
  20.6453260  21.1828970  37.3680230  21.3088690  19.8817120  37.7661540
  19.8178090  37.9471030  22.9187090  20.5496910  37.6630310  22.3710980
  20.0771760  37.7084310  23.8086470  18.9792880  34.0635760  22.9233420
  18.3501760  34.5320860  23.4719250  19.0940710  33.2184980  23.3579610
  27.5284450  20.0948950  38.7099880  27.4149900  20.4143560  39.6051400
  28.3454190  20.4961460  38.4137160  30.3082940  37.2420480  38.1918570
  31.1008260  36.7469710  37.9844530  30.6016090  37.9210620  38.7994180
  26.4342600  28.1141420   9.0734620  26.3536650  27.1996030   8.8026330
  26.0207020  28.6108490   8.3674330  24.5660640  29.8920440  10.9543890
  23.7902740  29.4120880  11.2442460  25.2173570  29.2126090  10.7800050
  18.5826470  30.2040250  11.8319650  17.7511350  29.9488960  12.2316160
  19.1907450  30.2751020  12.5677570  28.5868070  34.2980630   9.7343020
  28.1249600  33.5267870  10.0630190  29.3993620  34.3246700  10.2395470
  18.5627730  34.2380340  12.0277670  18.8655770  33.3478080  11.8487890
  19.3071320  34.7950560  11.7999920  16.9918420  25.1642140   5.6162040
  16.1035120  25.5058110   5.5141920  17.2759610  24.9642460   4.7242870
  14.9551430  27.7647790  11.5001740  15.5267540  26.9969990  11.5005380
  14.9552970  28.0636550  10.5908350  24.8131380  36.5838640   9.3547010
  24.1942820  37.0396140   8.7841450  25.6683160  36.7390100   8.9536710
  24.0069630  32.5677630  10.9614050  23.9377910  31.6267570  10.8003180
  24.7689490  32.6579040  11.5336620  16.1976300  23.1732150  13.2870670
  16.0179140  22.2757900  13.5673430  15.7956380  23.7204020  13.9617620
  25.0374800  25.3748010  11.1882980  25.4139620  24.5019890  11.0756650
  24.9394310  25.7106710  10.2973420  19.1679810  23.7473640   6.6500420
  19.2746560  24.6477370   6.9569180  18.2572170  23.6991610   6.3595070
  28.8198920  22.8698450   8.1211320  29.6408540  22.3795020   8.1636800
  28.8533000  23.4596110   8.8743160  16.8162970  25.6692650  11.8953010
  17.4973080  25.9331020  12.5140410  16.5011020  24.8293520  12.2291020
  21.0087540  26.7160010  10.9825600  21.5165760  27.2140980  11.6230620
  21.5400780  25.9395210  10.8064960  33.1098470  24.8865200  14.6854950
  32.4050640  25.2746910  14.1670060  33.3756390  25.5815490  15.2875880
  19.2923640  21.3558570  15.2489020  19.2942080  21.8730960  14.4434920
  18.4627950  20.8788750  15.2258950  25.6794730  31.4677880   6.7478920
  25.0612000  31.9327330   6.1841640  26.1917980  32.1605360   7.1648430
  20.5426490  30.9953750  13.4262520  20.2095870  31.6222670  14.0683590
  20.7193170  31.5215630  12.6464190  29.0560400  24.8098830  10.8938860
  28.3515970  25.0983720  11.4741970  29.4172560  25.6198940  10.5338420
  18.9738970  23.0668530  13.2559470  19.3155780  23.9110580  12.9613340
  18.0354780  23.2152270  13.3724810  19.7545590  32.9634550  15.2411700
  20.3719590  33.6385630  14.9596150  18.8938710  33.3722530  15.1499200
  15.0477930  32.1534410   4.1218550  14.6705910  32.6421510   3.3903450
  15.3051000  32.8259690   4.7525080  30.6723180  34.4273960  13.1566340
  29.9886700  35.0973070  13.1483010  31.2117470  34.6254610  12.3911200
  32.1247320  24.2553620  11.2848070  31.1772230  24.2892600  11.4163500
  32.4497310  25.0692570  11.6697430  22.6566860  20.5550800   9.5804060
  22.9641840  19.9997690   8.8639560  21.7267560  20.6895260   9.3977050
  28.2081920  36.2718090  11.8711520  28.2209080  35.8680380  11.0033780
  27.6557140  37.0465380  11.7672950  29.5027340  32.9934310   6.9601690
  29.3923670  32.0508640   7.0851110  29.4995590  33.3549950   7.8464450
  27.6067360  31.1747930  13.1994130  28.0236150  30.9608040  12.3647590
  28.3307180  31.4320720  13.7702750  25.0447620  28.6199630   6.3164180
  24.1176900  28.5537010   6.5452650  25.1972440  29.5579760   6.2019420
  25.0316700  24.8916630   3.3131340  24.0920370  25.0530590   3.3983800
  25.3499960  25.6102310   2.7667330  31.5529460  29.5735150  13.2910370
  30.7248090  29.6428240  12.8160500  32.1479940  30.1589460  12.8226200
  29.0744910  30.1819930   6.8199430  28.4557330  29.8439480   6.1725730
  29.0569360  29.5379690   7.5278620  28.5171470  26.3604470  14.2365240
  28.1042650  27.1858180  14.4905230  27.7847420  25.7749510  14.0441600
  20.6504260  29.1464370   9.0983910  20.2461260  28.4341620   8.6029810
  20.7367380  28.8017610   9.9871950  21.1185960  32.8331930  11.2623120
  20.8214250  32.2277400  10.5830900  22.0685780  32.8709240  11.1512480
  19.3632880  25.9207580  12.8782950  19.9147470  26.0302920  12.1036200
  19.8776390  26.2945180  13.5938180  29.2071570  36.4063800  14.9246220
  28.7302130  37.2135990  14.7318830  28.5233360  35.7542130  15.0772430
  20.2104390  32.5713620  17.9130920  19.3132920  32.7953590  18.1604320
  20.2357260  32.6948560  16.9642320  27.2509610  29.4206740   3.8272180
  27.6902890  28.5829170   3.6810000  27.9638030  30.0536140   3.9136320
  19.0375610  29.4426940  16.4888290  18.8983380  30.3149740  16.8575690
  18.1556970  29.0999750  16.3436230  25.3604990  34.3602810   7.7953420
  25.8000900  35.1027140   7.3808810  25.2991880  34.6029380   8.7192380
  20.8355960  35.3848640  18.6973440  20.8071390  35.7891590  17.8301870
  20.6720930  34.4559000  18.5345040  30.8326750  20.6749550   2.1413220
  30.5199410  20.7676380   3.0412290  31.5939220  21.2530580   2.0910650
  17.3508890  28.0409350   6.5990560  17.2306490  28.7671440   5.9871830
  17.0409780  27.2712260   6.1218470  32.7870780  36.1675740  19.9937610
  33.2630500  36.6458630  20.6726690  33.4077940  36.0993230  19.2683110
  14.9894260  31.2124490  12.4059200  15.0674680  31.3473260  11.4614920
  15.6035940  30.5040380  12.5987320  16.2341890  32.9124680   8.8165380
  15.8269970  33.0539270   7.9618980  17.1254900  32.6284840   8.6136590
  32.1904030  33.3588590  17.1537620  32.3167090  33.1200470  16.2354800
  32.2325410  32.5273130  17.6259700  26.0520770  37.0616590  15.7232430
  26.5665440  36.9724600  16.5254860  25.2089850  37.4076290  16.0160340
  28.0275170  37.3471930   5.1516430  27.8676310  37.0574870   6.0498260
  27.8621880  36.5712060   4.6161660  20.5063550  37.1270460   6.9288050
  20.3306030  36.2106000   6.7155850  19.6519290  37.4857750   7.1685850
  27.7301300  34.8559490   3.7114430  27.0366460  34.8536780   3.0516710
  28.4724160  34.4318810   3.2808600  27.2951230  36.4822200   7.7862920
  27.7508180  35.7011580   8.1001540  27.6343750  37.1929020   8.3304100
  32.0428040  25.4121050  18.1187360  31.4272310  25.9200720  17.5902820
  31.7224460  24.5119380  18.0613300  15.0453780  32.2538660  14.9453660
  15.2084820  31.7844020  14.1273030  15.5106230  31.7462220  15.6102500
  19.8172550  21.3844420   9.9814230  19.3740700  22.1653960   9.6498750
  20.3757540  21.7074310  10.6885170  24.1042360  24.2512940  15.5849550
  23.6421730  24.4595960  16.3969490  23.7020470  23.4372290  15.2820220
  29.1046870  25.4721890  16.7146210  28.2540460  25.1727640  17.0355280
  28.9448660  25.7163900  15.8030030  26.1996580  26.9723640  18.8145000
  26.5249990  26.1387390  18.4747230  26.9876910  27.4952160  18.9623330
  22.9331370  21.0055120   4.8620060  22.3085550  21.0014990   5.5873370
  22.8461490  20.1386080   4.4656030  21.8548450  21.9291750  11.8403830
  22.1520780  22.8354580  11.7595850  22.4034010  21.4410530  11.2263400
  19.6086770  26.5077990   7.7095480  19.3827690  26.2915160   8.6142100
  18.8279300  26.9406450   7.3641450  26.8384530  26.5141360   6.3086130
  26.2393420  27.2377160   6.1249750  27.3864140  26.4518140   5.5262580
  22.0485980  27.4063570  18.3755750  21.9529580  26.4658300  18.2256150
  22.8917960  27.6278640  17.9803820  25.4449400  25.1504900   8.3389410
  25.8378970  25.4677100   7.5258100  25.8066250  24.2716780   8.4533930
  17.1796520  23.8177240  16.5289530  16.7859910  24.6652450  16.7362310
  16.4914920  23.1803610  16.7198170  23.7541570  23.9012210  19.5986270
  23.0639890  23.7084410  20.2332360  24.4973870  24.1846850  20.1310570
  14.4813570  21.7405700  10.5619610  14.1926620  22.3108560  11.2744590
  15.2259330  21.2610150  10.9250840  26.0304540  27.7410650  12.4340190
  25.2985660  28.2497460  12.7830290  25.6328880  26.9240630  12.1328970
  22.4681930  24.4164850  10.8392680  22.4717990  23.9754800   9.9897220
  23.3633050  24.7382180  10.9464500  18.3184310  24.2991340   9.7986890
  17.9784360  24.7766570  10.5553940  17.5561630  23.8456460   9.4387990
  22.5302080  25.4176930   3.8299440  22.6514900  25.3763410   4.7785260
  22.1450590  26.2801080   3.6746170  26.4930450  23.1944330  11.8463130
  26.5103190  23.6452980  12.6904980  26.2446030  22.2949970  12.0596570
  21.5423580  27.7278070   3.2282740  20.9740480  27.2796320   2.6018650
  22.2512580  28.0870850   2.6947890  29.9201200  20.6076510  17.6849510
  30.2446970  19.8766170  18.2107490  29.9557710  20.2890150  16.7830500
  16.6192760  31.6290090  17.1049470  16.2347550  30.9883760  17.7032430
  16.9304950  32.3326210  17.6744200  22.7689900  28.4766630  12.5858090
  23.1360030  28.0025200  13.3319430  22.5794960  29.3508200  12.9266430
  15.6330390  23.2210320   8.7151560  15.3477310  22.8565990   9.5530180
  15.5709250  22.4890780   8.1014700  20.5589270  27.5175270  14.9042300
  20.2546340  28.3967250  15.1292660  21.5135730  27.5775060  14.9399740
  19.0871060  31.7236260   5.5009150  18.3133320  31.1833880   5.3407870
  19.8165690  31.2042870   5.1626910  29.8459040  30.7201620  11.2935540
  30.5658160  31.2156910  10.9031650  29.6440860  30.0419510  10.6489410
  25.3068980  22.1139580   5.4364930  24.4933590  21.6152750   5.3610240
  25.1130930  22.9537830   5.0201280  25.2277840  30.7910680  17.1804540
  25.1615150  29.8706350  16.9262130  24.5982980  30.8886120  17.8949180
  28.0217370  26.4859230   3.7327090  28.9096990  26.7976460   3.5578430
  27.9922460  25.6131480   3.3407670  19.1308460  31.3916640   9.1387960
  19.6487130  30.5884900   9.0844850  18.6792480  31.3295780   9.9804790
  24.0177960  32.6582920   4.4115260  24.3593660  33.4025150   3.9158580
  23.1890670  32.9714040   4.7740090  16.6153000  28.3578010  16.0513660
  16.2567940  29.0231860  16.6387000  16.3207560  27.5261560  16.4226280
  19.8166120  28.8162250  18.9353210  19.5166260  28.9619430  18.0381030
  20.5877360  28.2567540  18.8426600  25.1594570  33.6131250  16.9308340
  25.1739110  32.6812210  16.7127250  24.4519670  33.6991010  17.5698110
  30.2931640  27.7971070   3.2006950  30.2095360  28.2285290   2.3503390
  31.0125830  28.2569420   3.6333770  31.3705780  30.2538590  16.2776920
  30.6453970  30.8467370  16.0806310  31.8981240  30.2462130  15.4790290
  31.3218890  34.6513330   5.9289080  30.6795050  33.9968950   6.2032800
  30.9349550  35.0568420   5.1529750  26.9005370  31.9798760   9.7760770
  27.2529190  31.3826890   9.1162140  26.0167700  31.6542990   9.9469020
  22.9868650  32.7396450   7.1831180  23.6739780  33.2865660   7.5638770
  22.2001070  33.2837180   7.2180790  15.1261050  28.3569270   2.6748260
  15.9955900  28.6394070   2.9584180  14.6351370  29.1705140   2.5597070
  22.2895860  29.7442480   6.7956540  22.7458640  30.5547730   7.0216730
  21.9384070  29.4265620   7.6275030  24.5928470  35.2548820  14.0248840
  25.2370690  35.4608200  14.7022260  24.9557910  34.4937220  13.5719690
  18.1907640  20.0880130   7.2679060  18.0622270  20.0798030   8.2163980
  17.3669660  20.4263220   6.9170070  25.8660550  33.2581170  12.7426290
  26.5082780  32.5574330  12.8558460  26.3909900  34.0379610  12.5623180
  29.7116270  33.5429790   2.4665430  29.4853850  32.8260230   3.0590070
  29.3212470  33.2942230   1.6287180  27.6398170  34.0576070  15.9462350
  27.9754410  34.6442760  16.6240270  26.7198510  33.9268780  16.1760140
  15.4932300  37.5696650   3.2409890  15.8529940  38.1685990   2.5867160
  15.3524640  38.1156540   4.0144920  15.1901570  21.8471250  16.7285760
  14.4760090  22.0468170  17.3338370  15.6096610  21.0710820  17.1000560
  29.2932520  31.4601730   4.1279590  29.0054220  31.9214420   4.9157470
  30.0884690  30.9999500   4.3963810  15.4774160  35.8351510  17.7152290
  15.5865280  34.8946250  17.5747680  14.8254720  36.1006260  17.0666020
  23.4686750  34.1067400  19.1150410  23.1483620  33.3876640  19.6596100
  22.7945110  34.7822470  19.1886470  21.5100920  34.9527850   4.0583560
  21.5011020  35.6857540   3.4428070  20.5899280  34.7059430   4.1510520
  17.1107560  30.1742740   4.8030320  16.5035510  30.9141640   4.8125620
  17.5856910  30.2642100   3.9768520  26.6840350  24.3393560  14.4787210
  27.0521170  23.5188770  14.8066780  25.8238550  24.3995450  14.8942860
  30.0502380  23.2950500   5.2874770  29.4215540  23.3996170   4.5733000
  29.5554300  23.5147280   6.0768650  24.4960520  35.0156090   2.7208750
  24.5972500  34.8120080   1.7910730  23.5962260  34.7614370   2.9256530
  22.0186410  25.5736450   6.7032650  21.3102560  26.0422790   7.1446260
  22.3030890  24.9158460   7.3377840  23.6442340  26.9933150  14.7025180
  24.1427590  27.4678970  15.3677030  23.7865290  26.0696670  14.9095210
  26.0501840  22.2987110   8.1428440  25.9269620  22.3173240   7.1937950
  26.9986400  22.3466050   8.2626840  23.1378630  37.5342410   7.4156420
  23.3920130  37.4963800   6.4935790  22.1891110  37.4075740   7.4084670
  20.2221430  23.8821530   4.0783360  21.0711960  24.3191680   4.0123550
  19.8552700  24.1941790   4.9055420  30.8509200  23.2101110  15.5453570
  30.3482800  23.9506510  15.8847380  31.6665860  23.5985110  15.2290360
  29.1431210  28.4534290   8.9914930  28.2021350  28.4684520   9.1662620
  29.4575280  27.6670250   9.4375230  19.1212850  30.1353890   2.5518890
  19.8876120  30.0235250   3.1144320  19.1987540  29.4391860   1.8995660
  17.8159610  27.5678960   3.2351780  17.8963200  26.6206470   3.3469180
  18.7079360  27.8985840   3.3412440  31.1456790  35.6243140  10.6669190
  31.2704210  36.4474310  11.1393000  32.0122350  35.4133870  10.3193340
  18.6174320  37.7174350  10.3386320  19.3536800  37.1689810  10.6094890
  19.0015240  38.5830360  10.1992310  15.5019800  33.7847920   6.2127830
  14.5759580  34.0269060   6.2033240  15.9676230  34.6122180   6.0912580
  17.6232600  36.9020420  19.5271900  18.4245330  37.2232470  19.9407300
  17.1084420  36.5416000  20.2491810  26.4597230  33.0100290  19.4747310
  25.8535390  33.0331890  18.7343060  26.1551340  32.2783330  20.0114560
  27.8897600  36.7380580  18.0856720  28.8419350  36.6538600  18.0356960
  27.7425820  37.4022290  18.7590510  30.7806800  36.1174790   3.5848630
  30.4948310  35.7039930   2.7702810  30.5826350  37.0462500   3.4649150
  15.3430410  29.3893880  18.4707950  15.8469430  28.8101160  19.0424180
  14.6037830  29.6734110  19.0084320  22.3968350  30.7964870  18.0043470
  21.6314020  31.3649870  17.9198140  22.5784310  30.5041080  17.1111700
  25.4856760  31.1728100   2.6296230  24.9366860  31.6197400   3.2738970
  26.1076020  30.6677350   3.1533900  29.5391700  32.5270200  18.5618490
  30.2801170  32.8645960  18.0585950  28.7764380  32.6962260  18.0088260
  17.3753490  27.5323470  19.3658020  17.4158830  27.2337340  20.2743250
  18.2298990  27.9331080  19.2065540  21.1531880  30.1319020   4.5261530
  21.5748300  29.9658890   5.3692920  21.2782720  29.3219250   4.0316670
  19.3159300  26.1115570  17.3332510  18.7855760  25.6206520  16.7055850
  19.9847370  26.5399770  16.7990440  28.2137360  30.5785030  17.0973700
  28.6278380  30.7330110  17.9464120  27.2788360  30.7040250  17.2599480
  28.6859530  27.9181190  19.1012850  29.2680300  27.1633510  19.0133330
  28.8621300  28.4488630  18.3244330  19.8031600  23.0777940  17.4129800
  19.7088470  22.4598690  16.6880670  19.2228990  23.8044230  17.1859710
  22.5693040  21.6351180  14.4457190  22.1210340  21.6575440  13.6002740
  21.9358240  21.2370200  15.0427490  22.9752590  30.5305510  15.0669630
  23.3940700  31.3738240  14.8945870  22.0561220  30.6677550  14.8376410
  25.3116490  28.2621690  16.4507470  25.4312700  27.6662830  17.1902310
  26.1710490  28.2991380  16.0308770  27.6504390  28.8158880  15.0269980
  27.1239610  29.3401500  14.4235120  27.9935730  29.4486270  15.6579710
  20.8260010  36.8358520  16.1827360  20.2881100  37.5604580  15.8636060
  21.0793970  36.3588860  15.3924700  22.0785260  24.8043040  17.7083290
  22.6684950  24.4958890  18.3961110  21.2605500  24.3322790  17.8643190
  26.8978690  24.4208850  17.9416310  26.2094210  23.7590390  17.8766300
  27.6184710  23.9747120  18.3864770  27.5279090  21.0160480   4.0006570
  27.8081380  20.1728380   4.3565990  26.7544820  21.2483590   4.5145320
  23.6822220  38.0709730  16.4414010  23.6080920  38.9744870  16.7486380
  22.7801060  37.7521630  16.4136080  22.0658510  22.2487490   2.4453770
  21.7180510  21.5711480   1.8656220  22.2671280  21.7877000   3.2597160
  24.2307550  37.2368240   4.0640370  25.1258340  37.5753210   4.0859130
  24.2625180  36.5147650   3.4364650  17.8703710  32.6095290   2.2927370
  18.3078580  33.1524960   2.9484950  18.3551440  31.7842240   2.3023710
  15.0849510  35.3984320   9.7447630  15.4152520  34.5305380   9.5126270
  15.5140510  35.6042840  10.5752590  19.6811430  33.7293330   7.4049600
  19.3806970  33.6058300   8.3053510  19.5748920  32.8701920   6.9965330
  15.5739720  36.2654910  12.4829260  15.1370710  36.4455710  13.3153410
  16.1417400  37.0229530  12.3410980  31.2101900  35.7671910  16.7706570
  30.6103890  35.8264470  16.0270490  31.3395800  34.8276890  16.9003420
  32.4503350  33.5089730   2.1076280  31.6196310  33.5766380   2.5783510
  32.6275180  34.3993850   1.8043140  31.9059810  30.2537210   4.6110480
  32.6678720  30.8233860   4.7170170  31.9214180  29.6864410   5.3818790
  15.4064150  28.7775140   8.8418140  14.7512990  28.5086780   8.1977840
  16.2442100  28.6679620   8.3920120  32.9119780  31.1087310   9.4552410
  33.2828610  30.3254630   9.0488380  33.5521710  31.7976410   9.2769710
  29.8953540  32.4923890  14.8682730  29.0813380  32.9221050  15.1308520
  30.3027740  33.1042300  14.2551780  31.9578980  30.5471580   1.7683000
  32.2327820  31.4550460   1.6402220  31.7689720  30.4834110   2.7044990
  28.3554590  23.5716430   3.0636630  28.7739470  23.3847410   2.2233290
  28.0490650  22.7195480   3.3739560  31.8544320  28.4840570   6.7612430
  31.4787920  27.7168500   6.3293720  31.1247440  28.8663270   7.2487360
  16.4440080  29.1627710  13.3821480  16.8113120  29.0755110  14.2617500
  15.8750900  28.3994260  13.2828340  31.2443940  27.6312090  16.3951950
  31.0130030  27.4024840  15.4949900  31.5048490  28.5511640  16.3496840
  15.9956080  26.0736800  17.2879900  15.1012130  26.0403560  17.6273610
  16.5353630  26.2723590  18.0531150  29.6832010  22.8568520  19.1731650
  30.5602190  22.8651920  19.5565650  29.6952850  22.1199360  18.5624000
  14.6202230  25.9874070   4.7843470  13.7166310  26.2504270   4.6095130
  15.1042850  26.2585240   4.0043430  31.1295280  26.7098060  10.0619670
  31.6532760  26.2160710   9.4309840  31.7154700  26.8448420  10.8067240
  31.3085000  26.7937930  13.5839220  30.3587710  26.7601470  13.6984210
  31.4898010  27.7038040  13.3488990  17.1629440  25.0439610   2.6937850
  17.8721140  24.6222830   2.2085130  16.4469380  25.1114840   2.0621200
  30.6195250  25.9671410   6.0012080  31.1154370  25.7342280   6.7860960
  30.4211320  25.1283250   5.5849720  16.4995790  20.3485130  11.6363120
  17.1471980  19.7982510  11.1958280  16.9197630  20.6028280  12.4578930
  32.0482410  24.6032360   8.5349760  31.9381690  24.4488400   9.4732030
  32.8090000  24.0753300   8.2925170  30.3948130  20.5426490  14.9932760
  31.0320350  21.1560630  15.3591950  30.5423020  20.5787150  14.0481990
  32.9372680  22.4340280   1.7755900  33.8621990  22.3021460   1.5674190
  32.9148470  22.5133100   2.7292350  33.0111170  23.2050940   4.4012610
  32.2162670  23.1396060   4.9305520  33.2154450  24.1401580   4.3897960
  29.9529590  37.2442490   8.3951000  30.5488660  36.9227060   7.7185420
  30.2107740  36.7714310   9.1864270  16.2527790  20.5040800  14.3788440
  15.9042610  20.9604620  15.1446620  15.9215490  19.6097930  14.4610870
  17.8592160  33.6760400  18.5441630  17.8161790  33.3053310  19.4256090
  17.9903170  34.6137970  18.6843450  21.5598190  35.2319990  14.1451350
  21.3189550  35.4994550  13.2581870  22.5000830  35.4025720  14.2002210
  23.7652610  21.6952680  17.9007860  23.7041500  22.2874510  18.6503270
  24.7052990  21.5878640  17.7558120  26.4027170  21.3522740  17.5400150
  27.0167580  21.6702030  16.8781230  26.9476730  20.8671330  18.1596010
  32.8202350  37.2514370  14.9461990  32.3260630  37.6483240  14.2289120
  32.2115640  36.6263580  15.3399270  16.9248430  20.0317000  17.6539210
  17.4731420  19.8505050  16.8905320  16.9903740  19.2411110  18.1895520
  17.6980190  36.6222650  15.6639410  17.1040510  36.4907350  16.4029450
  17.6904030  35.7860790  15.1981510  27.1435210  19.9154880  13.8669440
  26.2695050  20.2489990  13.6642370  27.0345960  19.4428060  14.6921310
  28.0507190  22.1225750  15.2511160  27.7220550  21.3077510  14.8712890
  28.9989490  22.0795560  15.1276850  30.5041800  37.8937790  12.2248730
  30.0444770  38.6453600  11.8506750  29.8754260  37.1744260  12.1663530
  17.3292420  33.9881030  14.6147450  16.6026480  33.3686320  14.5473400
  17.3901570  34.3821640  13.7445530  20.9337520  36.2026030  11.3996860
  21.4502540  35.5913390  10.8745120  21.5834900  36.7054810  11.8907870
  23.6733020  37.0934520  12.2265840  23.9610830  36.8388820  11.3498850
  24.1856240  36.5411880  12.8171410  24.8910030  20.8324720  12.8062350
  24.1081820  21.3070220  13.0859110  24.5972960  19.9279550  12.6975530
  29.4431100  21.5347820  10.8511440  29.8839190  21.4792920  10.0033040
  29.1738690  22.4505830  10.9221620  31.3069670  21.1663060   8.8620260
  31.2458070  20.2224280   8.7151280  32.0861700  21.2743150   9.4073720
  15.6122420  37.3055420   7.8244210  15.4444460  36.6726100   8.5226100
  14.7456930  37.5114820   7.4738400  16.2350440  21.1372200   5.3276070
  16.9929800  21.2501080   4.7540100  15.7727610  21.9741400   5.2819500
  22.7764250  23.2511470   8.3178380  21.9638760  22.8768360   7.9774260
  23.2805890  22.4956550   8.6199570  27.2789230  19.9153920   9.5561450
  27.8818600  20.4874130  10.0309970  26.5382220  20.4793360   9.3335350
  30.4223830  20.3175480   4.8301730  30.6174460  21.2158930   5.0969160
  29.6353700  20.0862560   5.3234680  17.2185120  35.9988650   5.2694350
  16.6932740  36.3796680   4.5656310  17.1429700  36.6239420   5.9904060
  18.6075590  21.6636250   3.8678040  19.1368350  20.8766050   3.7385990
  19.2403910  22.3427440   4.1013570  20.8013430  21.4011390   6.9223430
  20.1716170  20.6998700   7.0893560  20.2618570  22.1615520   6.7056590
  23.7405380  38.0150620  19.5934040  24.6672690  37.7794890  19.6370000
  23.7255810  38.8422620  19.1120070  31.9750440  37.5576190   6.5908290
  32.1502630  36.8713930   5.9469210  31.2772010  38.0823240   6.1984960
  20.9268990  20.6795370  19.3575920  20.6453260  21.1828970  18.5936740
  21.3088690  19.8817120  18.9918050  19.8178090  37.9471030   4.1443600
  20.5496910  37.6630310   3.5967490  20.0771760  37.7084310   5.0342980
  18.9792880  34.0635760   4.1489930  18.3501760  34.5320860   4.6975760
  19.0940710  33.2184980   4.5836120  27.5284450  20.0948950  19.9356390
  27.4149900  20.4143560  20.8307910  28.3454190  20.4961460  19.6393670
  30.3082940  37.2420480  19.4175080  31.1008260  36.7469710  19.2101040
  30.6016090  37.9210620  20.0250690  26.4342600   9.3397930  65.3965090
  26.3536650   8.4252540  65.1256800  26.0207020   9.8365000  64.6904800
  24.5660640  11.1176950  67.2774360  23.7902740  10.6377390  67.5672930
  25.2173570  10.4382600  67.1030520  18.5826470  11.4296760  68.1550120
  17.7511350  11.1745470  68.5546630  19.1907450  11.5007530  68.8908040
  28.5868070  15.5237140  66.0573490  28.1249600  14.7524380  66.3860660
  29.3993620  15.5503210  66.5625940  18.5627730  15.4636850  68.3508140
  18.8655770  14.5734590  68.1718360  19.3071320  16.0207070  68.1230390
  16.9918420   6.3898650  61.9392510  16.1035120   6.7314620  61.8372390
  17.2759610   6.1898970  61.0473340  14.9551430   8.9904300  67.8232210
  15.5267540   8.2226500  67.8235850  14.9552970   9.2893060  66.9138820
  24.8131380  17.8095150  65.6777480  24.1942820  18.2652650  65.1071920
  25.6683160  17.9646610  65.2767180  24.0069630  13.7934140  67.2844520
  23.9377910  12.8524080  67.1233650  24.7689490  13.8835550  67.8567090
  16.1976300   4.3988660  69.6101140  16.0179140   3.5014410  69.8903900
  15.7956380   4.9460530  70.2848090  25.0374800   6.6004520  67.5113450
  25.4139620   5.7276400  67.3987120  24.9394310   6.9363220  66.6203890
  19.1679810   4.9730150  62.9730890  19.2746560   5.8733880  63.2799650
  18.2572170   4.9248120  62.6825540  28.8198920   4.0954960  64.4441790
  29.6408540   3.6051530  64.4867270  28.8533000   4.6852620  65.1973630
  16.8162970   6.8949160  68.2183480  17.4973080   7.1587530  68.8370880
  16.5011020   6.0550030  68.5521490  21.0087540   7.9416520  67.3056070
  21.5165760   8.4397490  67.9461090  21.5400780   7.1651720  67.1295430
  33.1098470   6.1121710  71.0085420  32.4050640   6.5003420  70.4900530
  33.3756390   6.8072000  71.6106350  19.2923640   2.5815080  71.5719490
  19.2942080   3.0987470  70.7665390  18.4627950   2.1045260  71.5489420
  25.6794730  12.6934390  63.0709390  25.0612000  13.1583840  62.5072110
  26.1917980  13.3861870  63.4878900  20.5426490  12.2210260  69.7492990
  20.2095870  12.8479180  70.3914060  20.7193170  12.7472140  68.9694660
  29.0560400   6.0355340  67.2169330  28.3515970   6.3240230  67.7972440
  29.4172560   6.8455450  66.8568890  18.9738970   4.2925040  69.5789940
  19.3155780   5.1367090  69.2843810  18.0354780   4.4408780  69.6955280
  19.7545590  14.1891060  71.5642170  20.3719590  14.8642140  71.2826620
  18.8938710  14.5979040  71.4729670  15.0477930  13.3790920  60.4449020
  14.6705910  13.8678020  59.7133920  15.3051000  14.0516200  61.0755550
  30.6723180  15.6530470  69.4796810  29.9886700  16.3229580  69.4713480
  31.2117470  15.8511120  68.7141670  32.1247320   5.4810130  67.6078540
  31.1772230   5.5149110  67.7393970  32.4497310   6.2949080  67.9927900
  28.2081920  17.4974600  68.1941990  28.2209080  17.0936890  67.3264250
  27.6557140  18.2721890  68.0903420  29.5027340  14.2190820  63.2832160
  29.3923670  13.2765150  63.4081580  29.4995590  14.5806460  64.1694920
  27.6067360  12.4004440  69.5224600  28.0236150  12.1864550  68.6878060
  28.3307180  12.6577230  70.0933220  25.0447620   9.8456140  62.6394650
  24.1176900   9.7793520  62.8683120  25.1972440  10.7836270  62.5249890
  25.0316700   6.1173140  59.6361810  24.0920370   6.2787100  59.7214270
  25.3499960   6.8358820  59.0897800  31.5529460  10.7991660  69.6140840
  30.7248090  10.8684750  69.1390970  32.1479940  11.3845970  69.1456670
  29.0744910  11.4076440  63.1429900  28.4557330  11.0695990  62.4956200
  29.0569360  10.7636200  63.8509090  28.5171470   7.5860980  70.5595710
  28.1042650   8.4114690  70.8135700  27.7847420   7.0006020  70.3672070
  20.6504260  10.3720880  65.4214380  20.2461260   9.6598130  64.9260280
  20.7367380  10.0274120  66.3102420  21.1185960  14.0588440  67.5853590
  20.8214250  13.4533910  66.9061370  22.0685780  14.0965750  67.4742950
  19.3632880   7.1464090  69.2013420  19.9147470   7.2559430  68.4266670
  19.8776390   7.5201690  69.9168650  29.2071570  17.6320310  71.2476690
  28.7302130  18.4392500  71.0549300  28.5233360  16.9798640  71.4002900
  20.2104390  13.7970130  74.2361390  19.3132920  14.0210100  74.4834790
  20.2357260  13.9205070  73.2872790  27.2509610  10.6463250  60.1502650
  27.6902890   9.8085680  60.0040470  27.9638030  11.2792650  60.2366790
  19.0375610  10.6683450  72.8118760  18.8983380  11.5406250  73.1806160
  18.1556970  10.3256260  72.6666700  25.3604990  15.5859320  64.1183890
  25.8000900  16.3283650  63.7039280  25.2991880  15.8285890  65.0422850
  20.8355960  16.6105150  75.0203910  20.8071390  17.0148100  74.1532340
  20.6720930  15.6815510  74.8575510  30.8326750   1.9006060  58.4643690
  30.5199410   1.9932890  59.3642760  31.5939220   2.4787090  58.4141120
  17.3508890   9.2665860  62.9221030  17.2306490   9.9927950  62.3102300
  17.0409780   8.4968770  62.4448940  14.9894260  12.4381000  68.7289670
  15.0674680  12.5729770  67.7845390  15.6035940  11.7296890  68.9217790
  16.2341890  14.1381190  65.1395850  15.8269970  14.2795780  64.2849450
  17.1254900  13.8541350  64.9367060  32.1904030  14.5845100  73.4768090
  32.3167090  14.3456980  72.5585270  32.2325410  13.7529640  73.9490170
  26.0520770  18.2873100  72.0462900  26.5665440  18.1981110  72.8485330
  25.2089850  18.6332800  72.3390810  28.0275170  18.5728440  61.4746900
  27.8676310  18.2831380  62.3728730  27.8621880  17.7968570  60.9392130
  20.5063550  18.3526970  63.2518520  20.3306030  17.4362510  63.0386320
  19.6519290  18.7114260  63.4916320  27.7301300  16.0816000  60.0344900
  27.0366460  16.0793290  59.3747180  28.4724160  15.6575320  59.6039070
  27.2951230  17.7078710  64.1093390  27.7508180  16.9268090  64.4232010
  27.6343750  18.4185530  64.6534570  32.0428040   6.6377560  74.4417830
  31.4272310   7.1457230  73.9133290  31.7224460   5.7375890  74.3843770
  15.0453780  13.4795170  71.2684130  15.2084820  13.0100530  70.4503500
  15.5106230  12.9718730  71.9332970  19.8172550   2.6100930  66.3044700
  19.3740700   3.3910470  65.9729220  20.3757540   2.9330820  67.0115640
  24.1042360   5.4769450  71.9080020  23.6421730   5.6852470  72.7199960
  23.7020470   4.6628800  71.6050690  29.1046870   6.6978400  73.0376680
  28.2540460   6.3984150  73.3585750  28.9448660   6.9420410  72.1260500
  26.1996580   8.1980150  75.1375470  26.5249990   7.3643900  74.7977700
  26.9876910   8.7208670  75.2853800  21.8548450   3.1548260  68.1634300
  22.1520780   4.0611090  68.0826320  22.4034010   2.6667040  67.5493870
  19.6086770   7.7334500  64.0325950  19.3827690   7.5171670  64.9372570
  18.8279300   8.1662960  63.6871920  26.8384530   7.7397870  62.6316600
  26.2393420   8.4633670  62.4480220  27.3864140   7.6774650  61.8493050
  22.0485980   8.6320080  74.6986220  21.9529580   7.6914810  74.5486620
  22.8917960   8.8535150  74.3034290  25.4449400   6.3761410  64.6619880
  25.8378970   6.6933610  63.8488570  25.8066250   5.4973290  64.7764400
  17.1796520   5.0433750  72.8520000  16.7859910   5.8908960  73.0592780
  16.4914920   4.4060120  73.0428640  14.4813570   2.9662210  66.8850080
  14.1926620   3.5365070  67.5975060  15.2259330   2.4866660  67.2481310
  14.6683800   6.9082330  58.0952800  14.5858470   7.8513090  58.2367790
  14.3166860   6.7657240  57.2165150  26.0304540   8.9667160  68.7570660
  25.2985660   9.4753970  69.1060760  25.6328880   8.1497140  68.4559440
  22.4681930   5.6421360  67.1623150  22.4717990   5.2011310  66.3127690
  23.3633050   5.9638690  67.2694970  18.3184310   5.5247850  66.1217360
  17.9784360   6.0023080  66.8784410  17.5561630   5.0712970  65.7618460
  22.5302080   6.6433440  60.1529910  22.6514900   6.6019920  61.1015730
  22.1450590   7.5057590  59.9976640  26.4930450   4.4200840  68.1693600
  26.5103190   4.8709490  69.0135450  26.2446030   3.5206480  68.3827040
  21.5423580   8.9534580  59.5513210  20.9740480   8.5052830  58.9249120
  22.2512580   9.3127360  59.0178360  16.6192760  12.8546600  73.4279940
  16.2347550  12.2140270  74.0262900  16.9304950  13.5582720  73.9974670
  22.7689900   9.7023140  68.9088560  23.1360030   9.2281710  69.6549900
  22.5794960  10.5764710  69.2496900  15.6330390   4.4466830  65.0382030
  15.3477310   4.0822500  65.8760650  15.5709250   3.7147290  64.4245170
  20.5589270   8.7431780  71.2272770  20.2546340   9.6223760  71.4523130
  21.5135730   8.8031570  71.2630210  19.0871060  12.9492770  61.8239620
  18.3133320  12.4090390  61.6638340  19.8165690  12.4299380  61.4857380
  29.8459040  11.9458130  67.6166010  30.5658160  12.4413420  67.2262120
  29.6440860  11.2676020  66.9719880  25.3068980   3.3396090  61.7595400
  24.4933590   2.8409260  61.6840710  25.1130930   4.1794340  61.3431750
  25.2277840  12.0167190  73.5035010  25.1615150  11.0962860  73.2492600
  24.5982980  12.1142630  74.2179650  28.0217370   7.7115740  60.0557560
  28.9096990   8.0232970  59.8808900  27.9922460   6.8387990  59.6638140
  19.1308460  12.6173150  65.4618430  19.6487130  11.8141410  65.4075320
  18.6792480  12.5552290  66.3035260  24.0177960  13.8839430  60.7345730
  24.3593660  14.6281660  60.2389050  23.1890670  14.1970550  61.0970560
  16.6153000   9.5834520  72.3744130  16.2567940  10.2488370  72.9617470
  16.3207560   8.7518070  72.7456750  19.8166120  10.0418760  75.2583680
  19.5166260  10.1875940  74.3611500  20.5877360   9.4824050  75.1657070
  25.1594570  14.8387760  73.2538810  25.1739110  13.9068720  73.0357720
  24.4519670  14.9247520  73.8928580  30.2931640   9.0227580  59.5237420
  30.2095360   9.4541800  58.6733860  31.0125830   9.4825930  59.9564240
  31.3705780  11.4795100  72.6007390  30.6453970  12.0723880  72.4036780
  31.8981240  11.4718640  71.8020760  31.3218890  15.8769840  62.2519550
  30.6795050  15.2225460  62.5263270  30.9349550  16.2824930  61.4760220
  26.9005370  13.2055270  66.0991240  27.2529190  12.6083400  65.4392610
  26.0167700  12.8799500  66.2699490  22.9868650  13.9652960  63.5061650
  23.6739780  14.5122170  63.8869240  22.2001070  14.5093690  63.5411260
  15.1261050   9.5825780  58.9978730  15.9955900   9.8650580  59.2814650
  14.6351370  10.3961650  58.8827540  22.2895860  10.9698990  63.1187010
  22.7458640  11.7804240  63.3447200  21.9384070  10.6522130  63.9505500
  24.5928470  16.4805330  70.3479310  25.2370690  16.6864710  71.0252730
  24.9557910  15.7193730  69.8950160  25.8660550  14.4837680  69.0656760
  26.5082780  13.7830840  69.1788930  26.3909900  15.2636120  68.8853650
  29.7116270  14.7686300  58.7895900  29.4853850  14.0516740  59.3820540
  29.3212470  14.5198740  57.9517650  27.6398170  15.2832580  72.2692820
  27.9754410  15.8699270  72.9470740  26.7198510  15.1525290  72.4990610
  15.4932300  18.7953160  59.5640360  15.8529940  19.3942500  58.9097630
  15.3524640  19.3413050  60.3375390  15.1901570   3.0727760  73.0516230
  14.4760090   3.2724680  73.6568840  15.6096610   2.2967330  73.4231030
  29.2932520  12.6858240  60.4510060  29.0054220  13.1470930  61.2387940
  30.0884690  12.2256010  60.7194280  15.4774160  17.0608020  74.0382760
  15.5865280  16.1202760  73.8978150  14.8254720  17.3262770  73.3896490
  23.4686750  15.3323910  75.4380880  23.1483620  14.6133150  75.9826570
  22.7945110  16.0078980  75.5116940  21.5100920  16.1784360  60.3814030
  21.5011020  16.9114050  59.7658540  20.5899280  15.9315940  60.4740990
  17.1107560  11.3999250  61.1260790  16.5035510  12.1398150  61.1356090
  17.5856910  11.4898610  60.2998990  26.6840350   5.5650070  70.8017680
  27.0521170   4.7445280  71.1297250  25.8238550   5.6251960  71.2173330
  30.0502380   4.5207010  61.6105240  29.4215540   4.6252680  60.8963470
  29.5554300   4.7403790  62.3999120  24.4960520  16.2412600  59.0439220
  24.5972500  16.0376590  58.1141200  23.5962260  15.9870880  59.2487000
  22.0186410   6.7992960  63.0263120  21.3102560   7.2679300  63.4676730
  22.3030890   6.1414970  63.6608310  23.6442340   8.2189660  71.0255650
  24.1427590   8.6935480  71.6907500  23.7865290   7.2953180  71.2325680
  26.0501840   3.5243620  64.4658910  25.9269620   3.5429750  63.5168420
  26.9986400   3.5722560  64.5857310  23.1378630  18.7598920  63.7386890
  23.3920130  18.7220310  62.8166260  22.1891110  18.6332250  63.7315140
  20.2221430   5.1078040  60.4013830  21.0711960   5.5448190  60.3354020
  19.8552700   5.4198300  61.2285890  30.8509200   4.4357620  71.8684040
  30.3482800   5.1763020  72.2077850  31.6665860   4.8241620  71.5520830
  29.1431210   9.6790800  65.3145400  28.2021350   9.6941030  65.4893090
  29.4575280   8.8926760  65.7605700  19.1212850  11.3610400  58.8749360
  19.8876120  11.2491760  59.4374790  19.1987540  10.6648370  58.2226130
  17.8159610   8.7935470  59.5582250  17.8963200   7.8462980  59.6699650
  18.7079360   9.1242350  59.6642910  31.1456790  16.8499650  66.9899660
  31.2704210  17.6730820  67.4623470  32.0122350  16.6390380  66.6423810
  18.6174320  18.9430860  66.6616790  19.3536800  18.3946320  66.9325360
  19.0015240  19.8086870  66.5222780  15.5019800  15.0104430  62.5358300
  14.5759580  15.2525570  62.5263710  15.9676230  15.8378690  62.4143050
  21.7276630  18.1161170  58.4842360  22.5205240  18.4050000  58.0324150
  21.2080980  17.6853340  57.8054840  27.8897600  17.9637090  74.4087190
  28.8419350  17.8795110  74.3587430  27.7425820  18.6278800  75.0820980
  30.7806800  17.3431300  59.9079100  30.4948310  16.9296440  59.0933280
  30.5826350  18.2719010  59.7879620  15.3430410  10.6150390  74.7938420
  15.8469430  10.0357670  75.3654650  14.6037830  10.8990620  75.3314790
  22.2454030  13.3364580  58.3484710  22.1404670  12.7216930  59.0746090
  22.0778250  12.8130470  57.5647720  22.3968350  12.0221380  74.3273940
  21.6314020  12.5906380  74.2428610  22.5784310  11.7297590  73.4342170
  25.4856760  12.3984610  58.9526700  24.9366860  12.8453910  59.5969440
  26.1076020  11.8933860  59.4764370  29.5391700  13.7526710  74.8848960
  30.2801170  14.0902470  74.3816420  28.7764380  13.9218770  74.3318730
  21.1531880  11.3575530  60.8492000  21.5748300  11.1915400  61.6923390
  21.2782720  10.5475760  60.3547140  19.3159300   7.3372080  73.6562980
  18.7855760   6.8463030  73.0286320  19.9847370   7.7656280  73.1220910
  23.6659520  10.3813140  58.0969100  24.1865180   9.6662160  57.7310250
  24.3127920  11.0199010  58.3969610  28.2137360  11.8041540  73.4204170
  28.6278380  11.9586620  74.2694590  27.2788360  11.9296760  73.5829950
  28.6859530   9.1437700  75.4243320  29.2680300   8.3890020  75.3363800
  28.8621300   9.6745140  74.6474800  19.8031600   4.3034450  73.7360270
  19.7088470   3.6855200  73.0111140  19.2228990   5.0300740  73.5090180
  22.5693040   2.8607690  70.7687660  22.1210340   2.8831950  69.9233210
  21.9358240   2.4626710  71.3657960  22.9752590  11.7562020  71.3900100
  23.3940700  12.5994750  71.2176340  22.0561220  11.8934060  71.1606880
  25.3116490   9.4878200  72.7737940  25.4312700   8.8919340  73.5132780
  26.1710490   9.5247890  72.3539240  27.6504390  10.0415390  71.3500450
  27.1239610  10.5658010  70.7465590  27.9935730  10.6742780  71.9810180
  20.0490780   7.4308760  57.7950160  19.8479840   6.5676120  58.1563500
  19.8782830   7.3442120  56.8571760  20.8260010  18.0615030  72.5057830
  20.2881100  18.7861090  72.1866530  21.0793970  17.5845370  71.7155170
  22.0785260   6.0299550  74.0313760  22.6684950   5.7215400  74.7191580
  21.2605500   5.5579300  74.1873660  26.8978690   5.6465360  74.2646780
  26.2094210   4.9846900  74.1996770  27.6184710   5.2003630  74.7095240
  18.8473580   4.5309380  57.7828040  19.1499480   4.5376810  56.8747190
  19.5868170   4.1807240  58.2795700  23.6822220  19.2966240  72.7644480
  23.6080920  20.2001380  73.0716850  22.7801060  18.9778140  72.7366550
  22.0658510   3.4744000  58.7684240  21.7180510   2.7967990  58.1886690
  22.2671280   3.0133510  59.5827630  24.2307550  18.4624750  60.3870840
  25.1258340  18.8009720  60.4089600  24.2625180  17.7404160  59.7595120
  17.8703710  13.8351800  58.6157840  18.3078580  14.3781470  59.2715420
  18.3551440  13.0098750  58.6254180  15.0849510  16.6240830  66.0678100
  15.4152520  15.7561890  65.8356740  15.5140510  16.8299350  66.8983060
  19.6811430  14.9549840  63.7280070  19.3806970  14.8314810  64.6283980
  19.5748920  14.0958430  63.3195800  15.5739720  17.4911420  68.8059730
  15.1370710  17.6712220  69.6383880  16.1417400  18.2486040  68.6641450
  31.2101900  16.9928420  73.0937040  30.6103890  17.0520980  72.3500960
  31.3395800  16.0533400  73.2233890  32.4503350  14.7346240  58.4306750
  31.6196310  14.8022890  58.9013980  32.6275180  15.6250360  58.1273610
  31.9059810  11.4793720  60.9340950  32.6678720  12.0490370  61.0400640
  31.9214180  10.9120920  61.7049260  15.4064150  10.0031650  65.1648610
  14.7512990   9.7343290  64.5208310  16.2442100   9.8936130  64.7150590
  32.9119780  12.3343820  65.7782880  33.2828610  11.5511140  65.3718850
  33.5521710  13.0232920  65.6000180  29.8953540  13.7180400  71.1913200
  29.0813380  14.1477560  71.4538990  30.3027740  14.3298810  70.5782250
  31.9578980  11.7728090  58.0913470  32.2327820  12.6806970  57.9632690
  31.7689720  11.7090620  59.0275460  28.3554590   4.7972940  59.3867100
  28.7739470   4.6103920  58.5463760  28.0490650   3.9451990  59.6970030
  31.8544320   9.7097080  63.0842900  31.4787920   8.9425010  62.6524190
  31.1247440  10.0919780  63.5717830  16.4440080  10.3884220  69.7051950
  16.8113120  10.3011620  70.5847970  15.8750900   9.6250770  69.6058810
  31.2443940   8.8568600  72.7182420  31.0130030   8.6281350  71.8180370
  31.5048490   9.7768150  72.6727310  15.9956080   7.2993310  73.6110370
  15.1012130   7.2660070  73.9504080  16.5353630   7.4980100  74.3761620
  29.6832010   4.0825030  75.4962120  30.5602190   4.0908430  75.8796120
  29.6952850   3.3455870  74.8854470  14.6202230   7.2130580  61.1073940
  13.7166310   7.4760780  60.9325600  15.1042850   7.4841750  60.3273900
  31.1295280   7.9354570  66.3850140  31.6532760   7.4417220  65.7540310
  31.7154700   8.0704930  67.1297710  31.3085000   8.0194440  69.9069690
  30.3587710   7.9857980  70.0214680  31.4898010   8.9294550  69.6719460
  17.1629440   6.2696120  59.0168320  17.8721140   5.8479340  58.5315600
  16.4469380   6.3371350  58.3851670  16.8103600   2.3235450  58.0570970
  17.5331730   2.8644390  58.3752190  17.0828120   2.0498870  57.1812510
  30.6195250   7.1927920  62.3242550  31.1154370   6.9598790  63.1091430
  30.4211320   6.3539760  61.9080190  32.0482410   5.8288870  64.8580230
  31.9381690   5.6744910  65.7962500  32.8090000   5.3009810  64.6155640
  30.3948130   1.7683000  71.3163230  31.0320350   2.3817140  71.6822420
  30.5423020   1.8043660  70.3712460  32.9372680   3.6596790  58.0986370
  33.8621990   3.5277970  57.8904660  32.9148470   3.7389610  59.0522820
  33.0111170   4.4307450  60.7243080  32.2162670   4.3652570  61.2535990
  33.2154450   5.3658090  60.7128430  29.9529590  18.4699000  64.7181470
  30.5488660  18.1483570  64.0415890  30.2107740  17.9970820  65.5094740
  17.8592160  14.9016910  74.8672100  17.8161790  14.5309820  75.7486560
  17.9903170  15.8394480  75.0073920  21.5598190  16.4576500  70.4681820
  21.3189550  16.7251060  69.5812340  22.5000830  16.6282230  70.5232680
  23.7652610   2.9209190  74.2238330  23.7041500   3.5131020  74.9733740
  24.7052990   2.8135150  74.0788590  26.4027170   2.5779250  73.8630620
  27.0167580   2.8958540  73.2011700  26.9476730   2.0927840  74.4826480
  32.8202350  18.4770880  71.2692460  32.3260630  18.8739750  70.5519590
  32.2115640  17.8520090  71.6629740  17.6980190  17.8479160  71.9869880
  17.1040510  17.7163860  72.7259920  17.6904030  17.0117300  71.5211980
  28.0507190   3.3482260  71.5741630  27.7220550   2.5334020  71.1943360
  28.9989490   3.3052070  71.4507320  30.5041800  19.1194300  68.5479200
  30.0444770  19.8710110  68.1737220  29.8754260  18.4000770  68.4894000
  17.3292420  15.2137540  70.9377920  16.6026480  14.5942830  70.8703870
  17.3901570  15.6078150  70.0676000  20.9337520  17.4282540  67.7227330
  21.4502540  16.8169900  67.1975590  21.5834900  17.9311320  68.2138340
  23.6733020  18.3191030  68.5496310  23.9610830  18.0645330  67.6729320
  24.1856240  17.7668390  69.1401880  29.4431100   2.7604330  67.1741910
  29.8839190   2.7049430  66.3263510  29.1738690   3.6762340  67.2452090
  15.6122420  18.5311930  64.1474680  15.4444460  17.8982610  64.8456570
  14.7456930  18.7371330  63.7968870  16.2350440   2.3628710  61.6506540
  16.9929800   2.4757590  61.0770570  15.7727610   3.1997910  61.6049970
  22.7764250   4.4767980  64.6408850  21.9638760   4.1024870  64.3004730
  23.2805890   3.7213060  64.9430040  17.2185120  17.2245160  61.5924820
  16.6932740  17.6053190  60.8886780  17.1429700  17.8495930  62.3134530
  18.6075590   2.8892760  60.1908510  19.1368350   2.1022560  60.0616460
  19.2403910   3.5683950  60.4244040  20.8013430   2.6267900  63.2453900
  20.1716170   1.9255210  63.4124030  20.2618570   3.3872030  63.0287060
  23.7405380  19.2407130  75.9164510  24.6672690  19.0051400  75.9600470
  23.7255810  20.0679130  75.4350540  31.9750440  18.7832700  62.9138760
  32.1502630  18.0970440  62.2699680  31.2772010  19.3079750  62.5215430
  19.8178090  19.1727540  60.4674070  20.5496910  18.8886820  59.9197960
  20.0771760  18.9340820  61.3573450  18.9792880  15.2892270  60.4720400
  18.3501760  15.7577370  61.0206230  19.0940710  14.4441490  60.9066590
  26.4342600   9.3397930  46.6221600  26.3536650   8.4252540  46.3513310
  26.0207020   9.8365000  45.9161310  24.5660640  11.1176950  48.5030870
  23.7902740  10.6377390  48.7929440  25.2173570  10.4382600  48.3287030
  18.5826470  11.4296760  49.3806630  17.7511350  11.1745470  49.7803140
  19.1907450  11.5007530  50.1164550  28.5868070  15.5237140  47.2830000
  28.1249600  14.7524380  47.6117170  29.3993620  15.5503210  47.7882450
  18.5627730  15.4636850  49.5764650  18.8655770  14.5734590  49.3974870
  19.3071320  16.0207070  49.3486900  16.9918420   6.3898650  43.1649020
  16.1035120   6.7314620  43.0628900  17.2759610   6.1898970  42.2729850
  14.9551430   8.9904300  49.0488720  15.5267540   8.2226500  49.0492360
  14.9552970   9.2893060  48.1395330  24.8131380  17.8095150  46.9033990
  24.1942820  18.2652650  46.3328430  25.6683160  17.9646610  46.5023690
  24.0069630  13.7934140  48.5101030  23.9377910  12.8524080  48.3490160
  24.7689490  13.8835550  49.0823600  16.1976300   4.3988660  50.8357650
  16.0179140   3.5014410  51.1160410  15.7956380   4.9460530  51.5104600
  25.0374800   6.6004520  48.7369960  25.4139620   5.7276400  48.6243630
  24.9394310   6.9363220  47.8460400  19.1679810   4.9730150  44.1987400
  19.2746560   5.8733880  44.5056160  18.2572170   4.9248120  43.9082050
  28.8198920   4.0954960  45.6698300  29.6408540   3.6051530  45.7123780
  28.8533000   4.6852620  46.4230140  16.8162970   6.8949160  49.4439990
  17.4973080   7.1587530  50.0627390  16.5011020   6.0550030  49.7778000
  21.0087540   7.9416520  48.5312580  21.5165760   8.4397490  49.1717600
  21.5400780   7.1651720  48.3551940  33.1098470   6.1121710  52.2341930
  32.4050640   6.5003420  51.7157040  33.3756390   6.8072000  52.8362860
  19.2923640   2.5815080  52.7976000  19.2942080   3.0987470  51.9921900
  18.4627950   2.1045260  52.7745930  25.6794730  12.6934390  44.2965900
  25.0612000  13.1583840  43.7328620  26.1917980  13.3861870  44.7135410
  20.5426490  12.2210260  50.9749500  20.2095870  12.8479180  51.6170570
  20.7193170  12.7472140  50.1951170  29.0560400   6.0355340  48.4425840
  28.3515970   6.3240230  49.0228950  29.4172560   6.8455450  48.0825400
  18.9738970   4.2925040  50.8046450  19.3155780   5.1367090  50.5100320
  18.0354780   4.4408780  50.9211790  19.7545590  14.1891060  52.7898680
  20.3719590  14.8642140  52.5083130  18.8938710  14.5979040  52.6986180
  15.0477930  13.3790920  41.6705530  14.6705910  13.8678020  40.9390430
  15.3051000  14.0516200  42.3012060  30.6723180  15.6530470  50.7053320
  29.9886700  16.3229580  50.6969990  31.2117470  15.8511120  49.9398180
  32.1247320   5.4810130  48.8335050  31.1772230   5.5149110  48.9650480
  32.4497310   6.2949080  49.2184410  28.2081920  17.4974600  49.4198500
  28.2209080  17.0936890  48.5520760  27.6557140  18.2721890  49.3159930
  29.5027340  14.2190820  44.5088670  29.3923670  13.2765150  44.6338090
  29.4995590  14.5806460  45.3951430  27.6067360  12.4004440  50.7481110
  28.0236150  12.1864550  49.9134570  28.3307180  12.6577230  51.3189730
  25.0447620   9.8456140  43.8651160  24.1176900   9.7793520  44.0939630
  25.1972440  10.7836270  43.7506400  25.0316700   6.1173140  40.8618320
  24.0920370   6.2787100  40.9470780  25.3499960   6.8358820  40.3154310
  31.5529460  10.7991660  50.8397350  30.7248090  10.8684750  50.3647480
  32.1479940  11.3845970  50.3713180  29.0744910  11.4076440  44.3686410
  28.4557330  11.0695990  43.7212710  29.0569360  10.7636200  45.0765600
  28.5171470   7.5860980  51.7852220  28.1042650   8.4114690  52.0392210
  27.7847420   7.0006020  51.5928580  20.6504260  10.3720880  46.6470890
  20.2461260   9.6598130  46.1516790  20.7367380  10.0274120  47.5358930
  21.1185960  14.0588440  48.8110100  20.8214250  13.4533910  48.1317880
  22.0685780  14.0965750  48.6999460  19.3632880   7.1464090  50.4269930
  19.9147470   7.2559430  49.6523180  19.8776390   7.5201690  51.1425160
  29.2071570  17.6320310  52.4733200  28.7302130  18.4392500  52.2805810
  28.5233360  16.9798640  52.6259410  20.2104390  13.7970130  55.4617900
  19.3132920  14.0210100  55.7091300  20.2357260  13.9205070  54.5129300
  27.2509610  10.6463250  41.3759160  27.6902890   9.8085680  41.2296980
  27.9638030  11.2792650  41.4623300  19.0375610  10.6683450  54.0375270
  18.8983380  11.5406250  54.4062670  18.1556970  10.3256260  53.8923210
  25.3604990  15.5859320  45.3440400  25.8000900  16.3283650  44.9295790
  25.2991880  15.8285890  46.2679360  20.8355960  16.6105150  56.2460420
  20.8071390  17.0148100  55.3788850  20.6720930  15.6815510  56.0832020
  30.8326750   1.9006060  39.6900200  30.5199410   1.9932890  40.5899270
  31.5939220   2.4787090  39.6397630  17.3508890   9.2665860  44.1477540
  17.2306490   9.9927950  43.5358810  17.0409780   8.4968770  43.6705450
  32.7870780  17.3932250  57.5424590  33.2630500  17.8715140  58.2213670
  33.4077940  17.3249740  56.8170090  14.9894260  12.4381000  49.9546180
  15.0674680  12.5729770  49.0101900  15.6035940  11.7296890  50.1474300
  16.2341890  14.1381190  46.3652360  15.8269970  14.2795780  45.5105960
  17.1254900  13.8541350  46.1623570  32.1904030  14.5845100  54.7024600
  32.3167090  14.3456980  53.7841780  32.2325410  13.7529640  55.1746680
  26.0520770  18.2873100  53.2719410  26.5665440  18.1981110  54.0741840
  25.2089850  18.6332800  53.5647320  28.0275170  18.5728440  42.7003410
  27.8676310  18.2831380  43.5985240  27.8621880  17.7968570  42.1648640
  20.5063550  18.3526970  44.4775030  20.3306030  17.4362510  44.2642830
  19.6519290  18.7114260  44.7172830  27.7301300  16.0816000  41.2601410
  27.0366460  16.0793290  40.6003690  28.4724160  15.6575320  40.8295580
  27.2951230  17.7078710  45.3349900  27.7508180  16.9268090  45.6488520
  27.6343750  18.4185530  45.8791080  32.0428040   6.6377560  55.6674340
  31.4272310   7.1457230  55.1389800  31.7224460   5.7375890  55.6100280
  15.0453780  13.4795170  52.4940640  15.2084820  13.0100530  51.6760010
  15.5106230  12.9718730  53.1589480  19.8172550   2.6100930  47.5301210
  19.3740700   3.3910470  47.1985730  20.3757540   2.9330820  48.2372150
  24.1042360   5.4769450  53.1336530  23.6421730   5.6852470  53.9456470
  23.7020470   4.6628800  52.8307200  29.1046870   6.6978400  54.2633190
  28.2540460   6.3984150  54.5842260  28.9448660   6.9420410  53.3517010
  26.1996580   8.1980150  56.3631980  26.5249990   7.3643900  56.0234210
  26.9876910   8.7208670  56.5110310  21.8548450   3.1548260  49.3890810
  22.1520780   4.0611090  49.3082830  22.4034010   2.6667040  48.7750380
  19.6086770   7.7334500  45.2582460  19.3827690   7.5171670  46.1629080
  18.8279300   8.1662960  44.9128430  26.8384530   7.7397870  43.8573110
  26.2393420   8.4633670  43.6736730  27.3864140   7.6774650  43.0749560
  22.0485980   8.6320080  55.9242730  21.9529580   7.6914810  55.7743130
  22.8917960   8.8535150  55.5290800  25.4449400   6.3761410  45.8876390
  25.8378970   6.6933610  45.0745080  25.8066250   5.4973290  46.0020910
  17.1796520   5.0433750  54.0776510  16.7859910   5.8908960  54.2849290
  16.4914920   4.4060120  54.2685150  23.7541570   5.1268720  57.1473250
  23.0639890   4.9340920  57.7819340  24.4973870   5.4103360  57.6797550
  14.4813570   2.9662210  48.1106590  14.1926620   3.5365070  48.8231570
  15.2259330   2.4866660  48.4737820  14.6683800   6.9082330  39.3209310
  14.5858470   7.8513090  39.4624300  14.3166860   6.7657240  38.4421660
  26.0304540   8.9667160  49.9827170  25.2985660   9.4753970  50.3317270
  25.6328880   8.1497140  49.6815950  22.4681930   5.6421360  48.3879660
  22.4717990   5.2011310  47.5384200  23.3633050   5.9638690  48.4951480
  18.3184310   5.5247850  47.3473870  17.9784360   6.0023080  48.1040920
  17.5561630   5.0712970  46.9874970  22.5302080   6.6433440  41.3786420
  22.6514900   6.6019920  42.3272240  22.1450590   7.5057590  41.2233150
  26.4930450   4.4200840  49.3950110  26.5103190   4.8709490  50.2391960
  26.2446030   3.5206480  49.6083550  21.5423580   8.9534580  40.7769720
  20.9740480   8.5052830  40.1505630  22.2512580   9.3127360  40.2434870
  16.6192760  12.8546600  54.6536450  16.2347550  12.2140270  55.2519410
  16.9304950  13.5582720  55.2231180  22.7689900   9.7023140  50.1345070
  23.1360030   9.2281710  50.8806410  22.5794960  10.5764710  50.4753410
  15.6330390   4.4466830  46.2638540  15.3477310   4.0822500  47.1017160
  15.5709250   3.7147290  45.6501680  20.5589270   8.7431780  52.4529280
  20.2546340   9.6223760  52.6779640  21.5135730   8.8031570  52.4886720
  19.0871060  12.9492770  43.0496130  18.3133320  12.4090390  42.8894850
  19.8165690  12.4299380  42.7113890  29.8459040  11.9458130  48.8422520
  30.5658160  12.4413420  48.4518630  29.6440860  11.2676020  48.1976390
  25.3068980   3.3396090  42.9851910  24.4933590   2.8409260  42.9097220
  25.1130930   4.1794340  42.5688260  25.2277840  12.0167190  54.7291520
  25.1615150  11.0962860  54.4749110  24.5982980  12.1142630  55.4436160
  28.0217370   7.7115740  41.2814070  28.9096990   8.0232970  41.1065410
  27.9922460   6.8387990  40.8894650  19.1308460  12.6173150  46.6874940
  19.6487130  11.8141410  46.6331830  18.6792480  12.5552290  47.5291770
  24.0177960  13.8839430  41.9602240  24.3593660  14.6281660  41.4645560
  23.1890670  14.1970550  42.3227070  16.6153000   9.5834520  53.6000640
  16.2567940  10.2488370  54.1873980  16.3207560   8.7518070  53.9713260
  19.8166120  10.0418760  56.4840190  19.5166260  10.1875940  55.5868010
  20.5877360   9.4824050  56.3913580  25.1594570  14.8387760  54.4795320
  25.1739110  13.9068720  54.2614230  24.4519670  14.9247520  55.1185090
  30.2931640   9.0227580  40.7493930  30.2095360   9.4541800  39.8990370
  31.0125830   9.4825930  41.1820750  31.3705780  11.4795100  53.8263900
  30.6453970  12.0723880  53.6293290  31.8981240  11.4718640  53.0277270
  31.3218890  15.8769840  43.4776060  30.6795050  15.2225460  43.7519780
  30.9349550  16.2824930  42.7016730  26.9005370  13.2055270  47.3247750
  27.2529190  12.6083400  46.6649120  26.0167700  12.8799500  47.4956000
  22.9868650  13.9652960  44.7318160  23.6739780  14.5122170  45.1125750
  22.2001070  14.5093690  44.7667770  15.1261050   9.5825780  40.2235240
  15.9955900   9.8650580  40.5071160  14.6351370  10.3961650  40.1084050
  22.2895860  10.9698990  44.3443520  22.7458640  11.7804240  44.5703710
  21.9384070  10.6522130  45.1762010  24.5928470  16.4805330  51.5735820
  25.2370690  16.6864710  52.2509240  24.9557910  15.7193730  51.1206670
  25.8660550  14.4837680  50.2913270  26.5082780  13.7830840  50.4045440
  26.3909900  15.2636120  50.1110160  29.7116270  14.7686300  40.0152410
  29.4853850  14.0516740  40.6077050  29.3212470  14.5198740  39.1774160
  27.6398170  15.2832580  53.4949330  27.9754410  15.8699270  54.1727250
  26.7198510  15.1525290  53.7247120  15.4932300  18.7953160  40.7896870
  15.8529940  19.3942500  40.1354140  15.3524640  19.3413050  41.5631900
  15.1901570   3.0727760  54.2772740  14.4760090   3.2724680  54.8825350
  15.6096610   2.2967330  54.6487540  29.2932520  12.6858240  41.6766570
  29.0054220  13.1470930  42.4644450  30.0884690  12.2256010  41.9450790
  15.4774160  17.0608020  55.2639270  15.5865280  16.1202760  55.1234660
  14.8254720  17.3262770  54.6153000  23.4686750  15.3323910  56.6637390
  23.1483620  14.6133150  57.2083080  22.7945110  16.0078980  56.7373450
  21.5100920  16.1784360  41.6070540  21.5011020  16.9114050  40.9915050
  20.5899280  15.9315940  41.6997500  17.1107560  11.3999250  42.3517300
  16.5035510  12.1398150  42.3612600  17.5856910  11.4898610  41.5255500
  26.6840350   5.5650070  52.0274190  27.0521170   4.7445280  52.3553760
  25.8238550   5.6251960  52.4429840  30.0502380   4.5207010  42.8361750
  29.4215540   4.6252680  42.1219980  29.5554300   4.7403790  43.6255630
  24.4960520  16.2412600  40.2695730  24.5972500  16.0376590  39.3397710
  23.5962260  15.9870880  40.4743510  22.0186410   6.7992960  44.2519630
  21.3102560   7.2679300  44.6933240  22.3030890   6.1414970  44.8864820
  23.6442340   8.2189660  52.2512160  24.1427590   8.6935480  52.9164010
  23.7865290   7.2953180  52.4582190  26.0501840   3.5243620  45.6915420
  25.9269620   3.5429750  44.7424930  26.9986400   3.5722560  45.8113820
  23.1378630  18.7598920  44.9643400  23.3920130  18.7220310  44.0422770
  22.1891110  18.6332250  44.9571650  20.2221430   5.1078040  41.6270340
  21.0711960   5.5448190  41.5610530  19.8552700   5.4198300  42.4542400
  30.8509200   4.4357620  53.0940550  30.3482800   5.1763020  53.4334360
  31.6665860   4.8241620  52.7777340  29.1431210   9.6790800  46.5401910
  28.2021350   9.6941030  46.7149600  29.4575280   8.8926760  46.9862210
  19.1212850  11.3610400  40.1005870  19.8876120  11.2491760  40.6631300
  19.1987540  10.6648370  39.4482640  17.8159610   8.7935470  40.7838760
  17.8963200   7.8462980  40.8956160  18.7079360   9.1242350  40.8899420
  31.1456790  16.8499650  48.2156170  31.2704210  17.6730820  48.6879980
  32.0122350  16.6390380  47.8680320  18.6174320  18.9430860  47.8873300
  19.3536800  18.3946320  48.1581870  19.0015240  19.8086870  47.7479290
  15.5019800  15.0104430  43.7614810  14.5759580  15.2525570  43.7520220
  15.9676230  15.8378690  43.6399560  17.6232600  18.1276930  57.0758880
  18.4245330  18.4488980  57.4894280  17.1084420  17.7672510  57.7978790
  21.7276630  18.1161170  39.7098870  22.5205240  18.4050000  39.2580660
  21.2080980  17.6853340  39.0311350  26.4597230  14.2356800  57.0234290
  25.8535390  14.2588400  56.2830040  26.1551340  13.5039840  57.5601540
  27.8897600  17.9637090  55.6343700  28.8419350  17.8795110  55.5843940
  27.7425820  18.6278800  56.3077490  30.7806800  17.3431300  41.1335610
  30.4948310  16.9296440  40.3189790  30.5826350  18.2719010  41.0136130
  15.3430410  10.6150390  56.0194930  15.8469430  10.0357670  56.5911160
  14.6037830  10.8990620  56.5571300  22.2454030  13.3364580  39.5741220
  22.1404670  12.7216930  40.3002600  22.0778250  12.8130470  38.7904230
  22.3968350  12.0221380  55.5530450  21.6314020  12.5906380  55.4685120
  22.5784310  11.7297590  54.6598680  25.4856760  12.3984610  40.1783210
  24.9366860  12.8453910  40.8225950  26.1076020  11.8933860  40.7020880
  29.5391700  13.7526710  56.1105470  30.2801170  14.0902470  55.6072930
  28.7764380  13.9218770  55.5575240  17.3753490   8.7579980  56.9145000
  17.4158830   8.4593850  57.8230230  18.2298990   9.1587590  56.7552520
  21.1531880  11.3575530  42.0748510  21.5748300  11.1915400  42.9179900
  21.2782720  10.5475760  41.5803650  19.3159300   7.3372080  54.8819490
  18.7855760   6.8463030  54.2542830  19.9847370   7.7656280  54.3477420
  23.6659520  10.3813140  39.3225610  24.1865180   9.6662160  38.9566760
  24.3127920  11.0199010  39.6226120  28.2137360  11.8041540  54.6460680
  28.6278380  11.9586620  55.4951100  27.2788360  11.9296760  54.8086460
  28.6859530   9.1437700  56.6499830  29.2680300   8.3890020  56.5620310
  28.8621300   9.6745140  55.8731310  19.8031600   4.3034450  54.9616780
  19.7088470   3.6855200  54.2367650  19.2228990   5.0300740  54.7346690
  22.5693040   2.8607690  51.9944170  22.1210340   2.8831950  51.1489720
  21.9358240   2.4626710  52.5914470  22.9752590  11.7562020  52.6156610
  23.3940700  12.5994750  52.4432850  22.0561220  11.8934060  52.3863390
  25.3116490   9.4878200  53.9994450  25.4312700   8.8919340  54.7389290
  26.1710490   9.5247890  53.5795750  27.6504390  10.0415390  52.5756960
  27.1239610  10.5658010  51.9722100  27.9935730  10.6742780  53.2066690
  20.0490780   7.4308760  39.0206670  19.8479840   6.5676120  39.3820010
  19.8782830   7.3442120  38.0828270  20.8260010  18.0615030  53.7314340
  20.2881100  18.7861090  53.4123040  21.0793970  17.5845370  52.9411680
  22.0785260   6.0299550  55.2570270  22.6684950   5.7215400  55.9448090
  21.2605500   5.5579300  55.4130170  26.8978690   5.6465360  55.4903290
  26.2094210   4.9846900  55.4253280  27.6184710   5.2003630  55.9351750
  18.8473580   4.5309380  39.0084550  19.1499480   4.5376810  38.1003700
  19.5868170   4.1807240  39.5052210  23.6822220  19.2966240  53.9900990
  23.6080920  20.2001380  54.2973360  22.7801060  18.9778140  53.9623060
  22.0658510   3.4744000  39.9940750  21.7180510   2.7967990  39.4143200
  22.2671280   3.0133510  40.8084140  24.2307550  18.4624750  41.6127350
  25.1258340  18.8009720  41.6346110  24.2625180  17.7404160  40.9851630
  17.8703710  13.8351800  39.8414350  18.3078580  14.3781470  40.4971930
  18.3551440  13.0098750  39.8510690  15.0849510  16.6240830  47.2934610
  15.4152520  15.7561890  47.0613250  15.5140510  16.8299350  48.1239570
  19.6811430  14.9549840  44.9536580  19.3806970  14.8314810  45.8540490
  19.5748920  14.0958430  44.5452310  15.5739720  17.4911420  50.0316240
  15.1370710  17.6712220  50.8640390  16.1417400  18.2486040  49.8897960
  31.2101900  16.9928420  54.3193550  30.6103890  17.0520980  53.5757470
  31.3395800  16.0533400  54.4490400  32.4503350  14.7346240  39.6563260
  31.6196310  14.8022890  40.1270490  32.6275180  15.6250360  39.3530120
  31.9059810  11.4793720  42.1597460  32.6678720  12.0490370  42.2657150
  31.9214180  10.9120920  42.9305770  15.4064150  10.0031650  46.3905120
  14.7512990   9.7343290  45.7464820  16.2442100   9.8936130  45.9407100
  32.9119780  12.3343820  47.0039390  33.2828610  11.5511140  46.5975360
  33.5521710  13.0232920  46.8256690  29.8953540  13.7180400  52.4169710
  29.0813380  14.1477560  52.6795500  30.3027740  14.3298810  51.8038760
  31.9578980  11.7728090  39.3169980  32.2327820  12.6806970  39.1889200
  31.7689720  11.7090620  40.2531970  28.3554590   4.7972940  40.6123610
  28.7739470   4.6103920  39.7720270  28.0490650   3.9451990  40.9226540
  31.8544320   9.7097080  44.3099410  31.4787920   8.9425010  43.8780700
  31.1247440  10.0919780  44.7974340  16.4440080  10.3884220  50.9308460
  16.8113120  10.3011620  51.8104480  15.8750900   9.6250770  50.8315320
  31.2443940   8.8568600  53.9438930  31.0130030   8.6281350  53.0436880
  31.5048490   9.7768150  53.8983820  15.9956080   7.2993310  54.8366880
  15.1012130   7.2660070  55.1760590  16.5353630   7.4980100  55.6018130
  29.6832010   4.0825030  56.7218630  30.5602190   4.0908430  57.1052630
  29.6952850   3.3455870  56.1110980  14.6202230   7.2130580  42.3330450
  13.7166310   7.4760780  42.1582110  15.1042850   7.4841750  41.5530410
  31.1295280   7.9354570  47.6106650  31.6532760   7.4417220  46.9796820
  31.7154700   8.0704930  48.3554220  31.3085000   8.0194440  51.1326200
  30.3587710   7.9857980  51.2471190  31.4898010   8.9294550  50.8975970
  17.1629440   6.2696120  40.2424830  17.8721140   5.8479340  39.7572110
  16.4469380   6.3371350  39.6108180  16.8103600   2.3235450  39.2827480
  17.5331730   2.8644390  39.6008700  17.0828120   2.0498870  38.4069020
  30.6195250   7.1927920  43.5499060  31.1154370   6.9598790  44.3347940
  30.4211320   6.3539760  43.1336700  32.0482410   5.8288870  46.0836740
  31.9381690   5.6744910  47.0219010  32.8090000   5.3009810  45.8412150
  30.3948130   1.7683000  52.5419740  31.0320350   2.3817140  52.9078930
  30.5423020   1.8043660  51.5968970  32.9372680   3.6596790  39.3242880
  33.8621990   3.5277970  39.1161170  32.9148470   3.7389610  40.2779330
  33.0111170   4.4307450  41.9499590  32.2162670   4.3652570  42.4792500
  33.2154450   5.3658090  41.9384940  29.9529590  18.4699000  45.9437980
  30.5488660  18.1483570  45.2672400  30.2107740  17.9970820  46.7351250
  17.8592160  14.9016910  56.0928610  17.8161790  14.5309820  56.9743070
  17.9903170  15.8394480  56.2330430  21.5598190  16.4576500  51.6938330
  21.3189550  16.7251060  50.8068850  22.5000830  16.6282230  51.7489190
  23.7652610   2.9209190  55.4494840  23.7041500   3.5131020  56.1990250
  24.7052990   2.8135150  55.3045100  26.4027170   2.5779250  55.0887130
  27.0167580   2.8958540  54.4268210  26.9476730   2.0927840  55.7082990
  32.8202350  18.4770880  52.4948970  32.3260630  18.8739750  51.7776100
  32.2115640  17.8520090  52.8886250  17.6980190  17.8479160  53.2126390
  17.1040510  17.7163860  53.9516430  17.6904030  17.0117300  52.7468490
  28.0507190   3.3482260  52.7998140  27.7220550   2.5334020  52.4199870
  28.9989490   3.3052070  52.6763830  30.5041800  19.1194300  49.7735710
  30.0444770  19.8710110  49.3993730  29.8754260  18.4000770  49.7150510
  17.3292420  15.2137540  52.1634430  16.6026480  14.5942830  52.0960380
  17.3901570  15.6078150  51.2932510  20.9337520  17.4282540  48.9483840
  21.4502540  16.8169900  48.4232100  21.5834900  17.9311320  49.4394850
  23.6733020  18.3191030  49.7752820  23.9610830  18.0645330  48.8985830
  24.1856240  17.7668390  50.3658390  29.4431100   2.7604330  48.3998420
  29.8839190   2.7049430  47.5520020  29.1738690   3.6762340  48.4708600
  15.6122420  18.5311930  45.3731190  15.4444460  17.8982610  46.0713080
  14.7456930  18.7371330  45.0225380  16.2350440   2.3628710  42.8763050
  16.9929800   2.4757590  42.3027080  15.7727610   3.1997910  42.8306480
  22.7764250   4.4767980  45.8665360  21.9638760   4.1024870  45.5261240
  23.2805890   3.7213060  46.1686550  17.2185120  17.2245160  42.8181330
  16.6932740  17.6053190  42.1143290  17.1429700  17.8495930  43.5391040
  18.6075590   2.8892760  41.4165020  19.1368350   2.1022560  41.2872970
  19.2403910   3.5683950  41.6500550  20.8013430   2.6267900  44.4710410
  20.1716170   1.9255210  44.6380540  20.2618570   3.3872030  44.2543570
  23.7405380  19.2407130  57.1421020  24.6672690  19.0051400  57.1856980
  23.7255810  20.0679130  56.6607050  31.9750440  18.7832700  44.1395270
  32.1502630  18.0970440  43.4956190  31.2772010  19.3079750  43.7471940
  19.8178090  19.1727540  41.6930580  20.5496910  18.8886820  41.1454470
  20.0771760  18.9340820  42.5829960  18.9792880  15.2892270  41.6976910
  18.3501760  15.7577370  42.2462740  19.0940710  14.4441490  42.1323100
  30.3082940  18.4676990  56.9662060  31.1008260  17.9726220  56.7588020
  30.6016090  19.1467130  57.5737670  26.4342600   9.3397930  27.8478110
  26.3536650   8.4252540  27.5769820  26.0207020   9.8365000  27.1417820
  24.5660640  11.1176950  29.7287380  23.7902740  10.6377390  30.0185950
  25.2173570  10.4382600  29.5543540  18.5826470  11.4296760  30.6063140
  17.7511350  11.1745470  31.0059650  19.1907450  11.5007530  31.3421060
  28.5868070  15.5237140  28.5086510  28.1249600  14.7524380  28.8373680
  29.3993620  15.5503210  29.0138960  18.5627730  15.4636850  30.8021160
  18.8655770  14.5734590  30.6231380  19.3071320  16.0207070  30.5743410
  16.9918420   6.3898650  24.3905530  16.1035120   6.7314620  24.2885410
  17.2759610   6.1898970  23.4986360  14.9551430   8.9904300  30.2745230
  15.5267540   8.2226500  30.2748870  14.9552970   9.2893060  29.3651840
  24.8131380  17.8095150  28.1290500  24.1942820  18.2652650  27.5584940
  25.6683160  17.9646610  27.7280200  24.0069630  13.7934140  29.7357540
  23.9377910  12.8524080  29.5746670  24.7689490  13.8835550  30.3080110
  16.1976300   4.3988660  32.0614160  16.0179140   3.5014410  32.3416920
  15.7956380   4.9460530  32.7361110  25.0374800   6.6004520  29.9626470
  25.4139620   5.7276400  29.8500140  24.9394310   6.9363220  29.0716910
  19.1679810   4.9730150  25.4243910  19.2746560   5.8733880  25.7312670
  18.2572170   4.9248120  25.1338560  28.8198920   4.0954960  26.8954810
  29.6408540   3.6051530  26.9380290  28.8533000   4.6852620  27.6486650
  16.8162970   6.8949160  30.6696500  17.4973080   7.1587530  31.2883900
  16.5011020   6.0550030  31.0034510  21.0087540   7.9416520  29.7569090
  21.5165760   8.4397490  30.3974110  21.5400780   7.1651720  29.5808450
  33.1098470   6.1121710  33.4598440  32.4050640   6.5003420  32.9413550
  33.3756390   6.8072000  34.0619370  19.2923640   2.5815080  34.0232510
  19.2942080   3.0987470  33.2178410  18.4627950   2.1045260  34.0002440
  25.6794730  12.6934390  25.5222410  25.0612000  13.1583840  24.9585130
  26.1917980  13.3861870  25.9391920  20.5426490  12.2210260  32.2006010
  20.2095870  12.8479180  32.8427080  20.7193170  12.7472140  31.4207680
  29.0560400   6.0355340  29.6682350  28.3515970   6.3240230  30.2485460
  29.4172560   6.8455450  29.3081910  18.9738970   4.2925040  32.0302960
  19.3155780   5.1367090  31.7356830  18.0354780   4.4408780  32.1468300
  19.7545590  14.1891060  34.0155190  20.3719590  14.8642140  33.7339640
  18.8938710  14.5979040  33.9242690  15.0477930  13.3790920  22.8962040
  14.6705910  13.8678020  22.1646940  15.3051000  14.0516200  23.5268570
  30.6723180  15.6530470  31.9309830  29.9886700  16.3229580  31.9226500
  31.2117470  15.8511120  31.1654690  32.1247320   5.4810130  30.0591560
  31.1772230   5.5149110  30.1906990  32.4497310   6.2949080  30.4440920
  28.2081920  17.4974600  30.6455010  28.2209080  17.0936890  29.7777270
  27.6557140  18.2721890  30.5416440  29.5027340  14.2190820  25.7345180
  29.3923670  13.2765150  25.8594600  29.4995590  14.5806460  26.6207940
  27.6067360  12.4004440  31.9737620  28.0236150  12.1864550  31.1391080
  28.3307180  12.6577230  32.5446240  25.0447620   9.8456140  25.0907670
  24.1176900   9.7793520  25.3196140  25.1972440  10.7836270  24.9762910
  25.0316700   6.1173140  22.0874830  24.0920370   6.2787100  22.1727290
  25.3499960   6.8358820  21.5410820  31.5529460  10.7991660  32.0653860
  30.7248090  10.8684750  31.5903990  32.1479940  11.3845970  31.5969690
  29.0744910  11.4076440  25.5942920  28.4557330  11.0695990  24.9469220
  29.0569360  10.7636200  26.3022110  28.5171470   7.5860980  33.0108730
  28.1042650   8.4114690  33.2648720  27.7847420   7.0006020  32.8185090
  20.6504260  10.3720880  27.8727400  20.2461260   9.6598130  27.3773300
  20.7367380  10.0274120  28.7615440  21.1185960  14.0588440  30.0366610
  20.8214250  13.4533910  29.3574390  22.0685780  14.0965750  29.9255970
  19.3632880   7.1464090  31.6526440  19.9147470   7.2559430  30.8779690
  19.8776390   7.5201690  32.3681670  29.2071570  17.6320310  33.6989710
  28.7302130  18.4392500  33.5062320  28.5233360  16.9798640  33.8515920
  20.2104390  13.7970130  36.6874410  19.3132920  14.0210100  36.9347810
  20.2357260  13.9205070  35.7385810  27.2509610  10.6463250  22.6015670
  27.6902890   9.8085680  22.4553490  27.9638030  11.2792650  22.6879810
  19.0375610  10.6683450  35.2631780  18.8983380  11.5406250  35.6319180
  18.1556970  10.3256260  35.1179720  25.3604990  15.5859320  26.5696910
  25.8000900  16.3283650  26.1552300  25.2991880  15.8285890  27.4935870
  20.8355960  16.6105150  37.4716930  20.8071390  17.0148100  36.6045360
  20.6720930  15.6815510  37.3088530  30.8326750   1.9006060  20.9156710
  30.5199410   1.9932890  21.8155780  31.5939220   2.4787090  20.8654140
  17.3508890   9.2665860  25.3734050  17.2306490   9.9927950  24.7615320
  17.0409780   8.4968770  24.8961960  32.7870780  17.3932250  38.7681100
  33.2630500  17.8715140  39.4470180  33.4077940  17.3249740  38.0426600
  14.9894260  12.4381000  31.1802690  15.0674680  12.5729770  30.2358410
  15.6035940  11.7296890  31.3730810  16.2341890  14.1381190  27.5908870
  15.8269970  14.2795780  26.7362470  17.1254900  13.8541350  27.3880080
  32.1904030  14.5845100  35.9281110  32.3167090  14.3456980  35.0098290
  32.2325410  13.7529640  36.4003190  26.0520770  18.2873100  34.4975920
  26.5665440  18.1981110  35.2998350  25.2089850  18.6332800  34.7903830
  28.0275170  18.5728440  23.9259920  27.8676310  18.2831380  24.8241750
  27.8621880  17.7968570  23.3905150  20.5063550  18.3526970  25.7031540
  20.3306030  17.4362510  25.4899340  19.6519290  18.7114260  25.9429340
  27.7301300  16.0816000  22.4857920  27.0366460  16.0793290  21.8260200
  28.4724160  15.6575320  22.0552090  27.2951230  17.7078710  26.5606410
  27.7508180  16.9268090  26.8745030  27.6343750  18.4185530  27.1047590
  32.0428040   6.6377560  36.8930850  31.4272310   7.1457230  36.3646310
  31.7224460   5.7375890  36.8356790  15.0453780  13.4795170  33.7197150
  15.2084820  13.0100530  32.9016520  15.5106230  12.9718730  34.3845990
  19.8172550   2.6100930  28.7557720  19.3740700   3.3910470  28.4242240
  20.3757540   2.9330820  29.4628660  24.1042360   5.4769450  34.3593040
  23.6421730   5.6852470  35.1712980  23.7020470   4.6628800  34.0563710
  29.1046870   6.6978400  35.4889700  28.2540460   6.3984150  35.8098770
  28.9448660   6.9420410  34.5773520  26.1996580   8.1980150  37.5888490
  26.5249990   7.3643900  37.2490720  26.9876910   8.7208670  37.7366820
  21.8548450   3.1548260  30.6147320  22.1520780   4.0611090  30.5339340
  22.4034010   2.6667040  30.0006890  19.6086770   7.7334500  26.4838970
  19.3827690   7.5171670  27.3885590  18.8279300   8.1662960  26.1384940
  26.8384530   7.7397870  25.0829620  26.2393420   8.4633670  24.8993240
  27.3864140   7.6774650  24.3006070  22.0485980   8.6320080  37.1499240
  21.9529580   7.6914810  36.9999640  22.8917960   8.8535150  36.7547310
  25.4449400   6.3761410  27.1132900  25.8378970   6.6933610  26.3001590
  25.8066250   5.4973290  27.2277420  17.1796520   5.0433750  35.3033020
  16.7859910   5.8908960  35.5105800  16.4914920   4.4060120  35.4941660
  23.7541570   5.1268720  38.3729760  23.0639890   4.9340920  39.0075850
  24.4973870   5.4103360  38.9054060  14.4813570   2.9662210  29.3363100
  14.1926620   3.5365070  30.0488080  15.2259330   2.4866660  29.6994330
  14.6683800   6.9082330  20.5465820  14.5858470   7.8513090  20.6880810
  14.3166860   6.7657240  19.6678170  26.0304540   8.9667160  31.2083680
  25.2985660   9.4753970  31.5573780  25.6328880   8.1497140  30.9072460
  22.4681930   5.6421360  29.6136170  22.4717990   5.2011310  28.7640710
  23.3633050   5.9638690  29.7207990  18.3184310   5.5247850  28.5730380
  17.9784360   6.0023080  29.3297430  17.5561630   5.0712970  28.2131480
  22.5302080   6.6433440  22.6042930  22.6514900   6.6019920  23.5528750
  22.1450590   7.5057590  22.4489660  26.4930450   4.4200840  30.6206620
  26.5103190   4.8709490  31.4648470  26.2446030   3.5206480  30.8340060
  21.5423580   8.9534580  22.0026230  20.9740480   8.5052830  21.3762140
  22.2512580   9.3127360  21.4691380  16.6192760  12.8546600  35.8792960
  16.2347550  12.2140270  36.4775920  16.9304950  13.5582720  36.4487690
  22.7689900   9.7023140  31.3601580  23.1360030   9.2281710  32.1062920
  22.5794960  10.5764710  31.7009920  15.6330390   4.4466830  27.4895050
  15.3477310   4.0822500  28.3273670  15.5709250   3.7147290  26.8758190
  20.5589270   8.7431780  33.6785790  20.2546340   9.6223760  33.9036150
  21.5135730   8.8031570  33.7143230  19.0871060  12.9492770  24.2752640
  18.3133320  12.4090390  24.1151360  19.8165690  12.4299380  23.9370400
  29.8459040  11.9458130  30.0679030  30.5658160  12.4413420  29.6775140
  29.6440860  11.2676020  29.4232900  25.3068980   3.3396090  24.2108420
  24.4933590   2.8409260  24.1353730  25.1130930   4.1794340  23.7944770
  25.2277840  12.0167190  35.9548030  25.1615150  11.0962860  35.7005620
  24.5982980  12.1142630  36.6692670  28.0217370   7.7115740  22.5070580
  28.9096990   8.0232970  22.3321920  27.9922460   6.8387990  22.1151160
  19.1308460  12.6173150  27.9131450  19.6487130  11.8141410  27.8588340
  18.6792480  12.5552290  28.7548280  24.0177960  13.8839430  23.1858750
  24.3593660  14.6281660  22.6902070  23.1890670  14.1970550  23.5483580
  16.6153000   9.5834520  34.8257150  16.2567940  10.2488370  35.4130490
  16.3207560   8.7518070  35.1969770  19.8166120  10.0418760  37.7096700
  19.5166260  10.1875940  36.8124520  20.5877360   9.4824050  37.6170090
  25.1594570  14.8387760  35.7051830  25.1739110  13.9068720  35.4870740
  24.4519670  14.9247520  36.3441600  30.2931640   9.0227580  21.9750440
  30.2095360   9.4541800  21.1246880  31.0125830   9.4825930  22.4077260
  31.3705780  11.4795100  35.0520410  30.6453970  12.0723880  34.8549800
  31.8981240  11.4718640  34.2533780  31.3218890  15.8769840  24.7032570
  30.6795050  15.2225460  24.9776290  30.9349550  16.2824930  23.9273240
  26.9005370  13.2055270  28.5504260  27.2529190  12.6083400  27.8905630
  26.0167700  12.8799500  28.7212510  22.9868650  13.9652960  25.9574670
  23.6739780  14.5122170  26.3382260  22.2001070  14.5093690  25.9924280
  15.1261050   9.5825780  21.4491750  15.9955900   9.8650580  21.7327670
  14.6351370  10.3961650  21.3340560  22.2895860  10.9698990  25.5700030
  22.7458640  11.7804240  25.7960220  21.9384070  10.6522130  26.4018520
  24.5928470  16.4805330  32.7992330  25.2370690  16.6864710  33.4765750
  24.9557910  15.7193730  32.3463180  25.8660550  14.4837680  31.5169780
  26.5082780  13.7830840  31.6301950  26.3909900  15.2636120  31.3366670
  29.7116270  14.7686300  21.2408920  29.4853850  14.0516740  21.8333560
  29.3212470  14.5198740  20.4030670  27.6398170  15.2832580  34.7205840
  27.9754410  15.8699270  35.3983760  26.7198510  15.1525290  34.9503630
  15.4932300  18.7953160  22.0153380  15.8529940  19.3942500  21.3610650
  15.3524640  19.3413050  22.7888410  15.1901570   3.0727760  35.5029250
  14.4760090   3.2724680  36.1081860  15.6096610   2.2967330  35.8744050
  29.2932520  12.6858240  22.9023080  29.0054220  13.1470930  23.6900960
  30.0884690  12.2256010  23.1707300  15.4774160  17.0608020  36.4895780
  15.5865280  16.1202760  36.3491170  14.8254720  17.3262770  35.8409510
  23.4686750  15.3323910  37.8893900  23.1483620  14.6133150  38.4339590
  22.7945110  16.0078980  37.9629960  21.5100920  16.1784360  22.8327050
  21.5011020  16.9114050  22.2171560  20.5899280  15.9315940  22.9254010
  17.1107560  11.3999250  23.5773810  16.5035510  12.1398150  23.5869110
  17.5856910  11.4898610  22.7512010  26.6840350   5.5650070  33.2530700
  27.0521170   4.7445280  33.5810270  25.8238550   5.6251960  33.6686350
  30.0502380   4.5207010  24.0618260  29.4215540   4.6252680  23.3476490
  29.5554300   4.7403790  24.8512140  24.4960520  16.2412600  21.4952240
  24.5972500  16.0376590  20.5654220  23.5962260  15.9870880  21.7000020
  22.0186410   6.7992960  25.4776140  21.3102560   7.2679300  25.9189750
  22.3030890   6.1414970  26.1121330  23.6442340   8.2189660  33.4768670
  24.1427590   8.6935480  34.1420520  23.7865290   7.2953180  33.6838700
  26.0501840   3.5243620  26.9171930  25.9269620   3.5429750  25.9681440
  26.9986400   3.5722560  27.0370330  23.1378630  18.7598920  26.1899910
  23.3920130  18.7220310  25.2679280  22.1891110  18.6332250  26.1828160
  20.2221430   5.1078040  22.8526850  21.0711960   5.5448190  22.7867040
  19.8552700   5.4198300  23.6798910  30.8509200   4.4357620  34.3197060
  30.3482800   5.1763020  34.6590870  31.6665860   4.8241620  34.0033850
  29.1431210   9.6790800  27.7658420  28.2021350   9.6941030  27.9406110
  29.4575280   8.8926760  28.2118720  19.1212850  11.3610400  21.3262380
  19.8876120  11.2491760  21.8887810  19.1987540  10.6648370  20.6739150
  17.8159610   8.7935470  22.0095270  17.8963200   7.8462980  22.1212670
  18.7079360   9.1242350  22.1155930  31.1456790  16.8499650  29.4412680
  31.2704210  17.6730820  29.9136490  32.0122350  16.6390380  29.0936830
  18.6174320  18.9430860  29.1129810  19.3536800  18.3946320  29.3838380
  19.0015240  19.8086870  28.9735800  15.5019800  15.0104430  24.9871320
  14.5759580  15.2525570  24.9776730  15.9676230  15.8378690  24.8656070
  17.6232600  18.1276930  38.3015390  18.4245330  18.4488980  38.7150790
  17.1084420  17.7672510  39.0235300  21.7276630  18.1161170  20.9355380
  22.5205240  18.4050000  20.4837170  21.2080980  17.6853340  20.2567860
  26.4597230  14.2356800  38.2490800  25.8535390  14.2588400  37.5086550
  26.1551340  13.5039840  38.7858050  27.8897600  17.9637090  36.8600210
  28.8419350  17.8795110  36.8100450  27.7425820  18.6278800  37.5334000
  30.7806800  17.3431300  22.3592120  30.4948310  16.9296440  21.5446300
  30.5826350  18.2719010  22.2392640  15.3430410  10.6150390  37.2451440
  15.8469430  10.0357670  37.8167670  14.6037830  10.8990620  37.7827810
  22.2454030  13.3364580  20.7997730  22.1404670  12.7216930  21.5259110
  22.0778250  12.8130470  20.0160740  22.3968350  12.0221380  36.7786960
  21.6314020  12.5906380  36.6941630  22.5784310  11.7297590  35.8855190
  25.4856760  12.3984610  21.4039720  24.9366860  12.8453910  22.0482460
  26.1076020  11.8933860  21.9277390  29.5391700  13.7526710  37.3361980
  30.2801170  14.0902470  36.8329440  28.7764380  13.9218770  36.7831750
  17.3753490   8.7579980  38.1401510  17.4158830   8.4593850  39.0486740
  18.2298990   9.1587590  37.9809030  21.1531880  11.3575530  23.3005020
  21.5748300  11.1915400  24.1436410  21.2782720  10.5475760  22.8060160
  19.3159300   7.3372080  36.1076000  18.7855760   6.8463030  35.4799340
  19.9847370   7.7656280  35.5733930  23.6659520  10.3813140  20.5482120
  24.1865180   9.6662160  20.1823270  24.3127920  11.0199010  20.8482630
  28.2137360  11.8041540  35.8717190  28.6278380  11.9586620  36.7207610
  27.2788360  11.9296760  36.0342970  28.6859530   9.1437700  37.8756340
  29.2680300   8.3890020  37.7876820  28.8621300   9.6745140  37.0987820
  19.8031600   4.3034450  36.1873290  19.7088470   3.6855200  35.4624160
  19.2228990   5.0300740  35.9603200  22.5693040   2.8607690  33.2200680
  22.1210340   2.8831950  32.3746230  21.9358240   2.4626710  33.8170980
  22.9752590  11.7562020  33.8413120  23.3940700  12.5994750  33.6689360
  22.0561220  11.8934060  33.6119900  25.3116490   9.4878200  35.2250960
  25.4312700   8.8919340  35.9645800  26.1710490   9.5247890  34.8052260
  27.6504390  10.0415390  33.8013470  27.1239610  10.5658010  33.1978610
  27.9935730  10.6742780  34.4323200  20.0490780   7.4308760  20.2463180
  19.8479840   6.5676120  20.6076520  19.8782830   7.3442120  19.3084780
  20.8260010  18.0615030  34.9570850  20.2881100  18.7861090  34.6379550
  21.0793970  17.5845370  34.1668190  22.0785260   6.0299550  36.4826780
  22.6684950   5.7215400  37.1704600  21.2605500   5.5579300  36.6386680
  26.8978690   5.6465360  36.7159800  26.2094210   4.9846900  36.6509790
  27.6184710   5.2003630  37.1608260  18.8473580   4.5309380  20.2341060
  19.1499480   4.5376810  19.3260210  19.5868170   4.1807240  20.7308720
  23.6822220  19.2966240  35.2157500  23.6080920  20.2001380  35.5229870
  22.7801060  18.9778140  35.1879570  22.0658510   3.4744000  21.2197260
  21.7180510   2.7967990  20.6399710  22.2671280   3.0133510  22.0340650
  24.2307550  18.4624750  22.8383860  25.1258340  18.8009720  22.8602620
  24.2625180  17.7404160  22.2108140  17.8703710  13.8351800  21.0670860
  18.3078580  14.3781470  21.7228440  18.3551440  13.0098750  21.0767200
  15.0849510  16.6240830  28.5191120  15.4152520  15.7561890  28.2869760
  15.5140510  16.8299350  29.3496080  19.6811430  14.9549840  26.1793090
  19.3806970  14.8314810  27.0797000  19.5748920  14.0958430  25.7708820
  15.5739720  17.4911420  31.2572750  15.1370710  17.6712220  32.0896900
  16.1417400  18.2486040  31.1154470  31.2101900  16.9928420  35.5450060
  30.6103890  17.0520980  34.8013980  31.3395800  16.0533400  35.6746910
  32.4503350  14.7346240  20.8819770  31.6196310  14.8022890  21.3527000
  32.6275180  15.6250360  20.5786630  31.9059810  11.4793720  23.3853970
  32.6678720  12.0490370  23.4913660  31.9214180  10.9120920  24.1562280
  15.4064150  10.0031650  27.6161630  14.7512990   9.7343290  26.9721330
  16.2442100   9.8936130  27.1663610  32.9119780  12.3343820  28.2295900
  33.2828610  11.5511140  27.8231870  33.5521710  13.0232920  28.0513200
  29.8953540  13.7180400  33.6426220  29.0813380  14.1477560  33.9052010
  30.3027740  14.3298810  33.0295270  31.9578980  11.7728090  20.5426490
  32.2327820  12.6806970  20.4145710  31.7689720  11.7090620  21.4788480
  28.3554590   4.7972940  21.8380120  28.7739470   4.6103920  20.9976780
  28.0490650   3.9451990  22.1483050  31.8544320   9.7097080  25.5355920
  31.4787920   8.9425010  25.1037210  31.1247440  10.0919780  26.0230850
  16.4440080  10.3884220  32.1564970  16.8113120  10.3011620  33.0360990
  15.8750900   9.6250770  32.0571830  31.2443940   8.8568600  35.1695440
  31.0130030   8.6281350  34.2693390  31.5048490   9.7768150  35.1240330
  15.9956080   7.2993310  36.0623390  15.1012130   7.2660070  36.4017100
  16.5353630   7.4980100  36.8274640  29.6832010   4.0825030  37.9475140
  30.5602190   4.0908430  38.3309140  29.6952850   3.3455870  37.3367490
  14.6202230   7.2130580  23.5586960  13.7166310   7.4760780  23.3838620
  15.1042850   7.4841750  22.7786920  31.1295280   7.9354570  28.8363160
  31.6532760   7.4417220  28.2053330  31.7154700   8.0704930  29.5810730
  31.3085000   8.0194440  32.3582710  30.3587710   7.9857980  32.4727700
  31.4898010   8.9294550  32.1232480  17.1629440   6.2696120  21.4681340
  17.8721140   5.8479340  20.9828620  16.4469380   6.3371350  20.8364690
  16.8103600   2.3235450  20.5083990  17.5331730   2.8644390  20.8265210
  17.0828120   2.0498870  19.6325530  30.6195250   7.1927920  24.7755570
  31.1154370   6.9598790  25.5604450  30.4211320   6.3539760  24.3593210
  32.0482410   5.8288870  27.3093250  31.9381690   5.6744910  28.2475520
  32.8090000   5.3009810  27.0668660  30.3948130   1.7683000  33.7676250
  31.0320350   2.3817140  34.1335440  30.5423020   1.8043660  32.8225480
  32.9372680   3.6596790  20.5499390  33.8621990   3.5277970  20.3417680
  32.9148470   3.7389610  21.5035840  33.0111170   4.4307450  23.1756100
  32.2162670   4.3652570  23.7049010  33.2154450   5.3658090  23.1641450
  29.9529590  18.4699000  27.1694490  30.5488660  18.1483570  26.4928910
  30.2107740  17.9970820  27.9607760  17.8592160  14.9016910  37.3185120
  17.8161790  14.5309820  38.1999580  17.9903170  15.8394480  37.4586940
  21.5598190  16.4576500  32.9194840  21.3189550  16.7251060  32.0325360
  22.5000830  16.6282230  32.9745700  23.7652610   2.9209190  36.6751350
  23.7041500   3.5131020  37.4246760  24.7052990   2.8135150  36.5301610
  26.4027170   2.5779250  36.3143640  27.0167580   2.8958540  35.6524720
  26.9476730   2.0927840  36.9339500  32.8202350  18.4770880  33.7205480
  32.3260630  18.8739750  33.0032610  32.2115640  17.8520090  34.1142760
  17.6980190  17.8479160  34.4382900  17.1040510  17.7163860  35.1772940
  17.6904030  17.0117300  33.9725000  28.0507190   3.3482260  34.0254650
  27.7220550   2.5334020  33.6456380  28.9989490   3.3052070  33.9020340
  30.5041800  19.1194300  30.9992220  30.0444770  19.8710110  30.6250240
  29.8754260  18.4000770  30.9407020  17.3292420  15.2137540  33.3890940
  16.6026480  14.5942830  33.3216890  17.3901570  15.6078150  32.5189020
  20.9337520  17.4282540  30.1740350  21.4502540  16.8169900  29.6488610
  21.5834900  17.9311320  30.6651360  23.6733020  18.3191030  31.0009330
  23.9610830  18.0645330  30.1242340  24.1856240  17.7668390  31.5914900
  29.4431100   2.7604330  29.6254930  29.8839190   2.7049430  28.7776530
  29.1738690   3.6762340  29.6965110  15.6122420  18.5311930  26.5987700
  15.4444460  17.8982610  27.2969590  14.7456930  18.7371330  26.2481890
  16.2350440   2.3628710  24.1019560  16.9929800   2.4757590  23.5283590
  15.7727610   3.1997910  24.0562990  22.7764250   4.4767980  27.0921870
  21.9638760   4.1024870  26.7517750  23.2805890   3.7213060  27.3943060
  17.2185120  17.2245160  24.0437840  16.6932740  17.6053190  23.3399800
  17.1429700  17.8495930  24.7647550  18.6075590   2.8892760  22.6421530
  19.1368350   2.1022560  22.5129480  19.2403910   3.5683950  22.8757060
  20.8013430   2.6267900  25.6966920  20.1716170   1.9255210  25.8637050
  20.2618570   3.3872030  25.4800080  23.7405380  19.2407130  38.3677530
  24.6672690  19.0051400  38.4113490  23.7255810  20.0679130  37.8863560
  31.9750440  18.7832700  25.3651780  32.1502630  18.0970440  24.7212700
  31.2772010  19.3079750  24.9728450  19.8178090  19.1727540  22.9187090
  20.5496910  18.8886820  22.3710980  20.0771760  18.9340820  23.8086470
  18.9792880  15.2892270  22.9233420  18.3501760  15.7577370  23.4719250
  19.0940710  14.4441490  23.3579610  30.3082940  18.4676990  38.1918570
  31.1008260  17.9726220  37.9844530  30.6016090  19.1467130  38.7994180
  26.4342600   9.3397930   9.0734620  26.3536650   8.4252540   8.8026330
  26.0207020   9.8365000   8.3674330  24.5660640  11.1176950  10.9543890
  23.7902740  10.6377390  11.2442460  25.2173570  10.4382600  10.7800050
  18.5826470  11.4296760  11.8319650  17.7511350  11.1745470  12.2316160
  19.1907450  11.5007530  12.5677570  28.5868070  15.5237140   9.7343020
  28.1249600  14.7524380  10.0630190  29.3993620  15.5503210  10.2395470
  18.5627730  15.4636850  12.0277670  18.8655770  14.5734590  11.8487890
  19.3071320  16.0207070  11.7999920  16.9918420   6.3898650   5.6162040
  16.1035120   6.7314620   5.5141920  17.2759610   6.1898970   4.7242870
  14.9551430   8.9904300  11.5001740  15.5267540   8.2226500  11.5005380
  14.9552970   9.2893060  10.5908350  24.8131380  17.8095150   9.3547010
  24.1942820  18.2652650   8.7841450  25.6683160  17.9646610   8.9536710
  24.0069630  13.7934140  10.9614050  23.9377910  12.8524080  10.8003180
  24.7689490  13.8835550  11.5336620  16.1976300   4.3988660  13.2870670
  16.0179140   3.5014410  13.5673430  15.7956380   4.9460530  13.9617620
  25.0374800   6.6004520  11.1882980  25.4139620   5.7276400  11.0756650
  24.9394310   6.9363220  10.2973420  19.1679810   4.9730150   6.6500420
  19.2746560   5.8733880   6.9569180  18.2572170   4.9248120   6.3595070
  28.8198920   4.0954960   8.1211320  29.6408540   3.6051530   8.1636800
  28.8533000   4.6852620   8.8743160  16.8162970   6.8949160  11.8953010
  17.4973080   7.1587530  12.5140410  16.5011020   6.0550030  12.2291020
  21.0087540   7.9416520  10.9825600  21.5165760   8.4397490  11.6230620
  21.5400780   7.1651720  10.8064960  33.1098470   6.1121710  14.6854950
  32.4050640   6.5003420  14.1670060  33.3756390   6.8072000  15.2875880
  19.2923640   2.5815080  15.2489020  19.2942080   3.0987470  14.4434920
  18.4627950   2.1045260  15.2258950  25.6794730  12.6934390   6.7478920
  25.0612000  13.1583840   6.1841640  26.1917980  13.3861870   7.1648430
  20.5426490  12.2210260  13.4262520  20.2095870  12.8479180  14.0683590
  20.7193170  12.7472140  12.6464190  29.0560400   6.0355340  10.8938860
  28.3515970   6.3240230  11.4741970  29.4172560   6.8455450  10.5338420
  18.9738970   4.2925040  13.2559470  19.3155780   5.1367090  12.9613340
  18.0354780   4.4408780  13.3724810  19.7545590  14.1891060  15.2411700
  20.3719590  14.8642140  14.9596150  18.8938710  14.5979040  15.1499200
  15.0477930  13.3790920   4.1218550  14.6705910  13.8678020   3.3903450
  15.3051000  14.0516200   4.7525080  30.6723180  15.6530470  13.1566340
  29.9886700  16.3229580  13.1483010  31.2117470  15.8511120  12.3911200
  32.1247320   5.4810130  11.2848070  31.1772230   5.5149110  11.4163500
  32.4497310   6.2949080  11.6697430  28.2081920  17.4974600  11.8711520
  28.2209080  17.0936890  11.0033780  27.6557140  18.2721890  11.7672950
  29.5027340  14.2190820   6.9601690  29.3923670  13.2765150   7.0851110
  29.4995590  14.5806460   7.8464450  27.6067360  12.4004440  13.1994130
  28.0236150  12.1864550  12.3647590  28.3307180  12.6577230  13.7702750
  25.0447620   9.8456140   6.3164180  24.1176900   9.7793520   6.5452650
  25.1972440  10.7836270   6.2019420  25.0316700   6.1173140   3.3131340
  24.0920370   6.2787100   3.3983800  25.3499960   6.8358820   2.7667330
  31.5529460  10.7991660  13.2910370  30.7248090  10.8684750  12.8160500
  32.1479940  11.3845970  12.8226200  29.0744910  11.4076440   6.8199430
  28.4557330  11.0695990   6.1725730  29.0569360  10.7636200   7.5278620
  28.5171470   7.5860980  14.2365240  28.1042650   8.4114690  14.4905230
  27.7847420   7.0006020  14.0441600  20.6504260  10.3720880   9.0983910
  20.2461260   9.6598130   8.6029810  20.7367380  10.0274120   9.9871950
  21.1185960  14.0588440  11.2623120  20.8214250  13.4533910  10.5830900
  22.0685780  14.0965750  11.1512480  19.3632880   7.1464090  12.8782950
  19.9147470   7.2559430  12.1036200  19.8776390   7.5201690  13.5938180
  29.2071570  17.6320310  14.9246220  28.7302130  18.4392500  14.7318830
  28.5233360  16.9798640  15.0772430  20.2104390  13.7970130  17.9130920
  19.3132920  14.0210100  18.1604320  20.2357260  13.9205070  16.9642320
  27.2509610  10.6463250   3.8272180  27.6902890   9.8085680   3.6810000
  27.9638030  11.2792650   3.9136320  19.0375610  10.6683450  16.4888290
  18.8983380  11.5406250  16.8575690  18.1556970  10.3256260  16.3436230
  25.3604990  15.5859320   7.7953420  25.8000900  16.3283650   7.3808810
  25.2991880  15.8285890   8.7192380  20.8355960  16.6105150  18.6973440
  20.8071390  17.0148100  17.8301870  20.6720930  15.6815510  18.5345040
  30.8326750   1.9006060   2.1413220  30.5199410   1.9932890   3.0412290
  31.5939220   2.4787090   2.0910650  17.3508890   9.2665860   6.5990560
  17.2306490   9.9927950   5.9871830  17.0409780   8.4968770   6.1218470
  32.7870780  17.3932250  19.9937610  33.2630500  17.8715140  20.6726690
  33.4077940  17.3249740  19.2683110  14.9894260  12.4381000  12.4059200
  15.0674680  12.5729770  11.4614920  15.6035940  11.7296890  12.5987320
  16.2341890  14.1381190   8.8165380  15.8269970  14.2795780   7.9618980
  17.1254900  13.8541350   8.6136590  32.1904030  14.5845100  17.1537620
  32.3167090  14.3456980  16.2354800  32.2325410  13.7529640  17.6259700
  26.0520770  18.2873100  15.7232430  26.5665440  18.1981110  16.5254860
  25.2089850  18.6332800  16.0160340  28.0275170  18.5728440   5.1516430
  27.8676310  18.2831380   6.0498260  27.8621880  17.7968570   4.6161660
  20.5063550  18.3526970   6.9288050  20.3306030  17.4362510   6.7155850
  19.6519290  18.7114260   7.1685850  27.7301300  16.0816000   3.7114430
  27.0366460  16.0793290   3.0516710  28.4724160  15.6575320   3.2808600
  27.2951230  17.7078710   7.7862920  27.7508180  16.9268090   8.1001540
  27.6343750  18.4185530   8.3304100  32.0428040   6.6377560  18.1187360
  31.4272310   7.1457230  17.5902820  31.7224460   5.7375890  18.0613300
  15.0453780  13.4795170  14.9453660  15.2084820  13.0100530  14.1273030
  15.5106230  12.9718730  15.6102500  19.8172550   2.6100930   9.9814230
  19.3740700   3.3910470   9.6498750  20.3757540   2.9330820  10.6885170
  24.1042360   5.4769450  15.5849550  23.6421730   5.6852470  16.3969490
  23.7020470   4.6628800  15.2820220  29.1046870   6.6978400  16.7146210
  28.2540460   6.3984150  17.0355280  28.9448660   6.9420410  15.8030030
  26.1996580   8.1980150  18.8145000  26.5249990   7.3643900  18.4747230
  26.9876910   8.7208670  18.9623330  21.8548450   3.1548260  11.8403830
  22.1520780   4.0611090  11.7595850  22.4034010   2.6667040  11.2263400
  19.6086770   7.7334500   7.7095480  19.3827690   7.5171670   8.6142100
  18.8279300   8.1662960   7.3641450  26.8384530   7.7397870   6.3086130
  26.2393420   8.4633670   6.1249750  27.3864140   7.6774650   5.5262580
  22.0485980   8.6320080  18.3755750  21.9529580   7.6914810  18.2256150
  22.8917960   8.8535150  17.9803820  25.4449400   6.3761410   8.3389410
  25.8378970   6.6933610   7.5258100  25.8066250   5.4973290   8.4533930
  17.1796520   5.0433750  16.5289530  16.7859910   5.8908960  16.7362310
  16.4914920   4.4060120  16.7198170  23.7541570   5.1268720  19.5986270
  23.0639890   4.9340920  20.2332360  24.4973870   5.4103360  20.1310570
  14.4813570   2.9662210  10.5619610  14.1926620   3.5365070  11.2744590
  15.2259330   2.4866660  10.9250840  26.0304540   8.9667160  12.4340190
  25.2985660   9.4753970  12.7830290  25.6328880   8.1497140  12.1328970
  22.4681930   5.6421360  10.8392680  22.4717990   5.2011310   9.9897220
  23.3633050   5.9638690  10.9464500  18.3184310   5.5247850   9.7986890
  17.9784360   6.0023080  10.5553940  17.5561630   5.0712970   9.4387990
  22.5302080   6.6433440   3.8299440  22.6514900   6.6019920   4.7785260
  22.1450590   7.5057590   3.6746170  26.4930450   4.4200840  11.8463130
  26.5103190   4.8709490  12.6904980  26.2446030   3.5206480  12.0596570
  21.5423580   8.9534580   3.2282740  20.9740480   8.5052830   2.6018650
  22.2512580   9.3127360   2.6947890  16.6192760  12.8546600  17.1049470
  16.2347550  12.2140270  17.7032430  16.9304950  13.5582720  17.6744200
  22.7689900   9.7023140  12.5858090  23.1360030   9.2281710  13.3319430
  22.5794960  10.5764710  12.9266430  15.6330390   4.4466830   8.7151560
  15.3477310   4.0822500   9.5530180  15.5709250   3.7147290   8.1014700
  20.5589270   8.7431780  14.9042300  20.2546340   9.6223760  15.1292660
  21.5135730   8.8031570  14.9399740  19.0871060  12.9492770   5.5009150
  18.3133320  12.4090390   5.3407870  19.8165690  12.4299380   5.1626910
  29.8459040  11.9458130  11.2935540  30.5658160  12.4413420  10.9031650
  29.6440860  11.2676020  10.6489410  25.3068980   3.3396090   5.4364930
  24.4933590   2.8409260   5.3610240  25.1130930   4.1794340   5.0201280
  25.2277840  12.0167190  17.1804540  25.1615150  11.0962860  16.9262130
  24.5982980  12.1142630  17.8949180  28.0217370   7.7115740   3.7327090
  28.9096990   8.0232970   3.5578430  27.9922460   6.8387990   3.3407670
  19.1308460  12.6173150   9.1387960  19.6487130  11.8141410   9.0844850
  18.6792480  12.5552290   9.9804790  24.0177960  13.8839430   4.4115260
  24.3593660  14.6281660   3.9158580  23.1890670  14.1970550   4.7740090
  16.6153000   9.5834520  16.0513660  16.2567940  10.2488370  16.6387000
  16.3207560   8.7518070  16.4226280  19.8166120  10.0418760  18.9353210
  19.5166260  10.1875940  18.0381030  20.5877360   9.4824050  18.8426600
  25.1594570  14.8387760  16.9308340  25.1739110  13.9068720  16.7127250
  24.4519670  14.9247520  17.5698110  30.2931640   9.0227580   3.2006950
  30.2095360   9.4541800   2.3503390  31.0125830   9.4825930   3.6333770
  31.3705780  11.4795100  16.2776920  30.6453970  12.0723880  16.0806310
  31.8981240  11.4718640  15.4790290  31.3218890  15.8769840   5.9289080
  30.6795050  15.2225460   6.2032800  30.9349550  16.2824930   5.1529750
  26.9005370  13.2055270   9.7760770  27.2529190  12.6083400   9.1162140
  26.0167700  12.8799500   9.9469020  22.9868650  13.9652960   7.1831180
  23.6739780  14.5122170   7.5638770  22.2001070  14.5093690   7.2180790
  15.1261050   9.5825780   2.6748260  15.9955900   9.8650580   2.9584180
  14.6351370  10.3961650   2.5597070  22.2895860  10.9698990   6.7956540
  22.7458640  11.7804240   7.0216730  21.9384070  10.6522130   7.6275030
  24.5928470  16.4805330  14.0248840  25.2370690  16.6864710  14.7022260
  24.9557910  15.7193730  13.5719690  25.8660550  14.4837680  12.7426290
  26.5082780  13.7830840  12.8558460  26.3909900  15.2636120  12.5623180
  29.7116270  14.7686300   2.4665430  29.4853850  14.0516740   3.0590070
  29.3212470  14.5198740   1.6287180  27.6398170  15.2832580  15.9462350
  27.9754410  15.8699270  16.6240270  26.7198510  15.1525290  16.1760140
  15.4932300  18.7953160   3.2409890  15.8529940  19.3942500   2.5867160
  15.3524640  19.3413050   4.0144920  15.1901570   3.0727760  16.7285760
  14.4760090   3.2724680  17.3338370  15.6096610   2.2967330  17.1000560
  29.2932520  12.6858240   4.1279590  29.0054220  13.1470930   4.9157470
  30.0884690  12.2256010   4.3963810  15.4774160  17.0608020  17.7152290
  15.5865280  16.1202760  17.5747680  14.8254720  17.3262770  17.0666020
  23.4686750  15.3323910  19.1150410  23.1483620  14.6133150  19.6596100
  22.7945110  16.0078980  19.1886470  21.5100920  16.1784360   4.0583560
  21.5011020  16.9114050   3.4428070  20.5899280  15.9315940   4.1510520
  17.1107560  11.3999250   4.8030320  16.5035510  12.1398150   4.8125620
  17.5856910  11.4898610   3.9768520  26.6840350   5.5650070  14.4787210
  27.0521170   4.7445280  14.8066780  25.8238550   5.6251960  14.8942860
  30.0502380   4.5207010   5.2874770  29.4215540   4.6252680   4.5733000
  29.5554300   4.7403790   6.0768650  24.4960520  16.2412600   2.7208750
  24.5972500  16.0376590   1.7910730  23.5962260  15.9870880   2.9256530
  22.0186410   6.7992960   6.7032650  21.3102560   7.2679300   7.1446260
  22.3030890   6.1414970   7.3377840  23.6442340   8.2189660  14.7025180
  24.1427590   8.6935480  15.3677030  23.7865290   7.2953180  14.9095210
  26.0501840   3.5243620   8.1428440  25.9269620   3.5429750   7.1937950
  26.9986400   3.5722560   8.2626840  23.1378630  18.7598920   7.4156420
  23.3920130  18.7220310   6.4935790  22.1891110  18.6332250   7.4084670
  20.2221430   5.1078040   4.0783360  21.0711960   5.5448190   4.0123550
  19.8552700   5.4198300   4.9055420  30.8509200   4.4357620  15.5453570
  30.3482800   5.1763020  15.8847380  31.6665860   4.8241620  15.2290360
  29.1431210   9.6790800   8.9914930  28.2021350   9.6941030   9.1662620
  29.4575280   8.8926760   9.4375230  19.1212850  11.3610400   2.5518890
  19.8876120  11.2491760   3.1144320  19.1987540  10.6648370   1.8995660
  17.8159610   8.7935470   3.2351780  17.8963200   7.8462980   3.3469180
  18.7079360   9.1242350   3.3412440  31.1456790  16.8499650  10.6669190
  31.2704210  17.6730820  11.1393000  32.0122350  16.6390380  10.3193340
  18.6174320  18.9430860  10.3386320  19.3536800  18.3946320  10.6094890
  19.0015240  19.8086870  10.1992310  15.5019800  15.0104430   6.2127830
  14.5759580  15.2525570   6.2033240  15.9676230  15.8378690   6.0912580
  17.6232600  18.1276930  19.5271900  18.4245330  18.4488980  19.9407300
  17.1084420  17.7672510  20.2491810  26.4597230  14.2356800  19.4747310
  25.8535390  14.2588400  18.7343060  26.1551340  13.5039840  20.0114560
  27.8897600  17.9637090  18.0856720  28.8419350  17.8795110  18.0356960
  27.7425820  18.6278800  18.7590510  30.7806800  17.3431300   3.5848630
  30.4948310  16.9296440   2.7702810  30.5826350  18.2719010   3.4649150
  15.3430410  10.6150390  18.4707950  15.8469430  10.0357670  19.0424180
  14.6037830  10.8990620  19.0084320  22.3968350  12.0221380  18.0043470
  21.6314020  12.5906380  17.9198140  22.5784310  11.7297590  17.1111700
  25.4856760  12.3984610   2.6296230  24.9366860  12.8453910   3.2738970
  26.1076020  11.8933860   3.1533900  29.5391700  13.7526710  18.5618490
  30.2801170  14.0902470  18.0585950  28.7764380  13.9218770  18.0088260
  17.3753490   8.7579980  19.3658020  17.4158830   8.4593850  20.2743250
  18.2298990   9.1587590  19.2065540  21.1531880  11.3575530   4.5261530
  21.5748300  11.1915400   5.3692920  21.2782720  10.5475760   4.0316670
  19.3159300   7.3372080  17.3332510  18.7855760   6.8463030  16.7055850
  19.9847370   7.7656280  16.7990440  28.2137360  11.8041540  17.0973700
  28.6278380  11.9586620  17.9464120  27.2788360  11.9296760  17.2599480
  28.6859530   9.1437700  19.1012850  29.2680300   8.3890020  19.0133330
  28.8621300   9.6745140  18.3244330  19.8031600   4.3034450  17.4129800
  19.7088470   3.6855200  16.6880670  19.2228990   5.0300740  17.1859710
  22.5693040   2.8607690  14.4457190  22.1210340   2.8831950  13.6002740
  21.9358240   2.4626710  15.0427490  22.9752590  11.7562020  15.0669630
  23.3940700  12.5994750  14.8945870  22.0561220  11.8934060  14.8376410
  25.3116490   9.4878200  16.4507470  25.4312700   8.8919340  17.1902310
  26.1710490   9.5247890  16.0308770  27.6504390  10.0415390  15.0269980
  27.1239610  10.5658010  14.4235120  27.9935730  10.6742780  15.6579710
  20.8260010  18.0615030  16.1827360  20.2881100  18.7861090  15.8636060
  21.0793970  17.5845370  15.3924700  22.0785260   6.0299550  17.7083290
  22.6684950   5.7215400  18.3961110  21.2605500   5.5579300  17.8643190
  26.8978690   5.6465360  17.9416310  26.2094210   4.9846900  17.8766300
  27.6184710   5.2003630  18.3864770  23.6822220  19.2966240  16.4414010
  23.6080920  20.2001380  16.7486380  22.7801060  18.9778140  16.4136080
  22.0658510   3.4744000   2.4453770  21.7180510   2.7967990   1.8656220
  22.2671280   3.0133510   3.2597160  24.2307550  18.4624750   4.0640370
  25.1258340  18.8009720   4.0859130  24.2625180  17.7404160   3.4364650
  17.8703710  13.8351800   2.2927370  18.3078580  14.3781470   2.9484950
  18.3551440  13.0098750   2.3023710  15.0849510  16.6240830   9.7447630
  15.4152520  15.7561890   9.5126270  15.5140510  16.8299350  10.5752590
  19.6811430  14.9549840   7.4049600  19.3806970  14.8314810   8.3053510
  19.5748920  14.0958430   6.9965330  15.5739720  17.4911420  12.4829260
  15.1370710  17.6712220  13.3153410  16.1417400  18.2486040  12.3410980
  31.2101900  16.9928420  16.7706570  30.6103890  17.0520980  16.0270490
  31.3395800  16.0533400  16.9003420  32.4503350  14.7346240   2.1076280
  31.6196310  14.8022890   2.5783510  32.6275180  15.6250360   1.8043140
  31.9059810  11.4793720   4.6110480  32.6678720  12.0490370   4.7170170
  31.9214180  10.9120920   5.3818790  15.4064150  10.0031650   8.8418140
  14.7512990   9.7343290   8.1977840  16.2442100   9.8936130   8.3920120
  32.9119780  12.3343820   9.4552410  33.2828610  11.5511140   9.0488380
  33.5521710  13.0232920   9.2769710  29.8953540  13.7180400  14.8682730
  29.0813380  14.1477560  15.1308520  30.3027740  14.3298810  14.2551780
  31.9578980  11.7728090   1.7683000  32.2327820  12.6806970   1.6402220
  31.7689720  11.7090620   2.7044990  28.3554590   4.7972940   3.0636630
  28.7739470   4.6103920   2.2233290  28.0490650   3.9451990   3.3739560
  31.8544320   9.7097080   6.7612430  31.4787920   8.9425010   6.3293720
  31.1247440  10.0919780   7.2487360  16.4440080  10.3884220  13.3821480
  16.8113120  10.3011620  14.2617500  15.8750900   9.6250770  13.2828340
  31.2443940   8.8568600  16.3951950  31.0130030   8.6281350  15.4949900
  31.5048490   9.7768150  16.3496840  15.9956080   7.2993310  17.2879900
  15.1012130   7.2660070  17.6273610  16.5353630   7.4980100  18.0531150
  29.6832010   4.0825030  19.1731650  30.5602190   4.0908430  19.5565650
  29.6952850   3.3455870  18.5624000  14.6202230   7.2130580   4.7843470
  13.7166310   7.4760780   4.6095130  15.1042850   7.4841750   4.0043430
  31.1295280   7.9354570  10.0619670  31.6532760   7.4417220   9.4309840
  31.7154700   8.0704930  10.8067240  31.3085000   8.0194440  13.5839220
  30.3587710   7.9857980  13.6984210  31.4898010   8.9294550  13.3488990
  17.1629440   6.2696120   2.6937850  17.8721140   5.8479340   2.2085130
  16.4469380   6.3371350   2.0621200  30.6195250   7.1927920   6.0012080
  31.1154370   6.9598790   6.7860960  30.4211320   6.3539760   5.5849720
  32.0482410   5.8288870   8.5349760  31.9381690   5.6744910   9.4732030
  32.8090000   5.3009810   8.2925170  30.3948130   1.7683000  14.9932760
  31.0320350   2.3817140  15.3591950  30.5423020   1.8043660  14.0481990
  32.9372680   3.6596790   1.7755900  33.8621990   3.5277970   1.5674190
  32.9148470   3.7389610   2.7292350  33.0111170   4.4307450   4.4012610
  32.2162670   4.3652570   4.9305520  33.2154450   5.3658090   4.3897960
  29.9529590  18.4699000   8.3951000  30.5488660  18.1483570   7.7185420
  30.2107740  17.9970820   9.1864270  17.8592160  14.9016910  18.5441630
  17.8161790  14.5309820  19.4256090  17.9903170  15.8394480  18.6843450
  21.5598190  16.4576500  14.1451350  21.3189550  16.7251060  13.2581870
  22.5000830  16.6282230  14.2002210  23.7652610   2.9209190  17.9007860
  23.7041500   3.5131020  18.6503270  24.7052990   2.8135150  17.7558120
  26.4027170   2.5779250  17.5400150  27.0167580   2.8958540  16.8781230
  26.9476730   2.0927840  18.1596010  32.8202350  18.4770880  14.9461990
  32.3260630  18.8739750  14.2289120  32.2115640  17.8520090  15.3399270
  17.6980190  17.8479160  15.6639410  17.1040510  17.7163860  16.4029450
  17.6904030  17.0117300  15.1981510  28.0507190   3.3482260  15.2511160
  27.7220550   2.5334020  14.8712890  28.9989490   3.3052070  15.1276850
  30.5041800  19.1194300  12.2248730  30.0444770  19.8710110  11.8506750
  29.8754260  18.4000770  12.1663530  17.3292420  15.2137540  14.6147450
  16.6026480  14.5942830  14.5473400  17.3901570  15.6078150  13.7445530
  20.9337520  17.4282540  11.3996860  21.4502540  16.8169900  10.8745120
  21.5834900  17.9311320  11.8907870  23.6733020  18.3191030  12.2265840
  23.9610830  18.0645330  11.3498850  24.1856240  17.7668390  12.8171410
  29.4431100   2.7604330  10.8511440  29.8839190   2.7049430  10.0033040
  29.1738690   3.6762340  10.9221620  15.6122420  18.5311930   7.8244210
  15.4444460  17.8982610   8.5226100  14.7456930  18.7371330   7.4738400
  16.2350440   2.3628710   5.3276070  16.9929800   2.4757590   4.7540100
  15.7727610   3.1997910   5.2819500  22.7764250   4.4767980   8.3178380
  21.9638760   4.1024870   7.9774260  23.2805890   3.7213060   8.6199570
  17.2185120  17.2245160   5.2694350  16.6932740  17.6053190   4.5656310
  17.1429700  17.8495930   5.9904060  18.6075590   2.8892760   3.8678040
  19.1368350   2.1022560   3.7385990  19.2403910   3.5683950   4.1013570
  20.8013430   2.6267900   6.9223430  20.1716170   1.9255210   7.0893560
  20.2618570   3.3872030   6.7056590  23.7405380  19.2407130  19.5934040
  24.6672690  19.0051400  19.6370000  23.7255810  20.0679130  19.1120070
  31.9750440  18.7832700   6.5908290  32.1502630  18.0970440   5.9469210
  31.2772010  19.3079750   6.1984960  19.8178090  19.1727540   4.1443600
  20.5496910  18.8886820   3.5967490  20.0771760  18.9340820   5.0342980
  18.9792880  15.2892270   4.1489930  18.3501760  15.7577370   4.6975760
  19.0940710  14.4441490   4.5836120  30.3082940  18.4676990  19.4175080
  31.1008260  17.9726220  19.2101040  30.6016090  19.1467130  20.0250690
   7.6599110  84.4371890  65.3965090   7.5793160  83.5226500  65.1256800
   7.2463530  84.9338960  64.6904800   5.7917150  86.2150910  67.2774360
   5.0159250  85.7351350  67.5672930   6.4430080  85.5356560  67.1030520
   9.8124580  90.6211100  66.0573490   9.3506110  89.8498340  66.3860660
  10.6250130  90.6477170  66.5625940   6.0387890  92.9069110  65.6777480
   5.4199330  93.3626610  65.1071920   6.8939670  93.0620570  65.2767180
   5.2326140  88.8908100  67.2844520   5.1634420  87.9498040  67.1233650
   5.9946000  88.9809510  67.8567090   6.2631310  81.6978480  67.5113450
   6.6396130  80.8250360  67.3987120   6.1650820  82.0337180  66.6203890
  10.0455430  79.1928920  64.4441790  10.8665050  78.7025490  64.4867270
  10.0789510  79.7826580  65.1973630   2.2344050  83.0390480  67.3056070
   2.7422270  83.5371450  67.9461090   2.7657290  82.2625680  67.1295430
  14.3354980  81.2095670  71.0085420  13.6307150  81.5977380  70.4900530
  14.6012900  81.9045960  71.6106350   6.9051240  87.7908350  63.0709390
   6.2868510  88.2557800  62.5072110   7.4174490  88.4835830  63.4878900
   1.7683000  87.3184220  69.7492990   1.4352380  87.9453140  70.3914060
   1.9449680  87.8446100  68.9694660  10.2816910  81.1329300  67.2169330
   9.5772480  81.4214190  67.7972440  10.6429070  81.9429410  66.8568890
  11.8979690  90.7504430  69.4796810  11.2143210  91.4203540  69.4713480
  12.4373980  90.9485080  68.7141670  13.3503830  80.5784090  67.6078540
  12.4028740  80.6123070  67.7393970  13.6753820  81.3923040  67.9927900
   3.8823370  76.8781270  65.9034530   4.1898350  76.3228160  65.1870030
   2.9524070  77.0125730  65.7207520   9.4338430  92.5948560  68.1941990
   9.4465590  92.1910850  67.3264250   8.8813650  93.3695850  68.0903420
  10.7283850  89.3164780  63.2832160  10.6180180  88.3739110  63.4081580
  10.7252100  89.6780420  64.1694920   8.8323870  87.4978400  69.5224600
   9.2492660  87.2838510  68.6878060   9.5563690  87.7551190  70.0933220
   6.2704130  84.9430100  62.6394650   5.3433410  84.8767480  62.8683120
   6.4228950  85.8810230  62.5249890   6.2573210  81.2147100  59.6361810
   5.3176880  81.3761060  59.7214270   6.5756470  81.9332780  59.0897800
  12.7785970  85.8965620  69.6140840  11.9504600  85.9658710  69.1390970
  13.3736450  86.4819930  69.1456670  10.3001420  86.5050400  63.1429900
   9.6813840  86.1669950  62.4956200  10.2825870  85.8610160  63.8509090
   9.7427980  82.6834940  70.5595710   9.3299160  83.5088650  70.8135700
   9.0103930  82.0979980  70.3672070   1.8760770  85.4694840  65.4214380
   1.4717770  84.7572090  64.9260280   1.9623890  85.1248080  66.3102420
   2.3442470  89.1562400  67.5853590   2.0470760  88.5507870  66.9061370
   3.2942290  89.1939710  67.4742950  10.4328080  92.7294270  71.2476690
   9.9558640  93.5366460  71.0549300   9.7489870  92.0772600  71.4002900
   8.4766120  85.7437210  60.1502650   8.9159400  84.9059640  60.0040470
   9.1894540  86.3766610  60.2366790   6.5861500  90.6833280  64.1183890
   7.0257410  91.4257610  63.7039280   6.5248390  90.9259850  65.0422850
   2.0612470  91.7079110  75.0203910   2.0327900  92.1122060  74.1532340
   1.8977440  90.7789470  74.8575510  12.0583260  76.9980020  58.4643690
  11.7455920  77.0906850  59.3642760  12.8195730  77.5761050  58.4141120
  13.4160540  89.6819060  73.4768090  13.5423600  89.4430940  72.5585270
  13.4581920  88.8503600  73.9490170   7.2777280  93.3847060  72.0462900
   7.7921950  93.2955070  72.8485330   6.4346360  93.7306760  72.3390810
   9.2531680  93.6702400  61.4746900   9.0932820  93.3805340  62.3728730
   9.0878390  92.8942530  60.9392130   8.9557810  91.1789960  60.0344900
   8.2622970  91.1767250  59.3747180   9.6980670  90.7549280  59.6039070
   8.5207740  92.8052670  64.1093390   8.9764690  92.0242050  64.4232010
   8.8600260  93.5159490  64.6534570  13.2684550  81.7351520  74.4417830
  12.6528820  82.2431190  73.9133290  12.9480970  80.8349850  74.3843770
   5.3298870  80.5743410  71.9080020   4.8678240  80.7826430  72.7199960
   4.9276980  79.7602760  71.6050690  10.3303380  81.7952360  73.0376680
   9.4796970  81.4958110  73.3585750  10.1705170  82.0394370  72.1260500
   7.4253090  83.2954110  75.1375470   7.7506500  82.4617860  74.7977700
   8.2133420  83.8182630  75.2853800   4.1587880  77.3285590  61.1850530
   3.5342060  77.3245460  61.9103840   4.0718000  76.4616550  60.7886500
   3.0804960  78.2522220  68.1634300   3.3777290  79.1585050  68.0826320
   3.6290520  77.7641000  67.5493870   8.0641040  82.8371830  62.6316600
   7.4649930  83.5607630  62.4480220   8.6120650  82.7748610  61.8493050
   3.2742490  83.7294040  74.6986220   3.1786090  82.7888770  74.5486620
   4.1174470  83.9509110  74.3034290   6.6705910  81.4735370  64.6619880
   7.0635480  81.7907570  63.8488570   7.0322760  80.5947250  64.7764400
   7.2561050  84.0641120  68.7570660   6.5242170  84.5727930  69.1060760
   6.8585390  83.2471100  68.4559440   3.6938440  80.7395320  67.1623150
   3.6974500  80.2985270  66.3127690   4.5889560  81.0612650  67.2694970
   3.7558590  81.7407400  60.1529910   3.8771410  81.6993880  61.1015730
   3.3707100  82.6031550  59.9976640   7.7186960  79.5174800  68.1693600
   7.7359700  79.9683450  69.0135450   7.4702540  78.6180440  68.3827040
   2.7680090  84.0508540  59.5513210   2.1996990  83.6026790  58.9249120
   3.4769090  84.4101320  59.0178360  11.1457710  76.9306980  74.0079980
  11.4703480  76.1996640  74.5337960  11.1814220  76.6120620  73.1060970
   3.9946410  84.7997100  68.9088560   4.3616540  84.3255670  69.6549900
   3.8051470  85.6738670  69.2496900   1.7845780  83.8405740  71.2272770
   1.4802850  84.7197720  71.4523130   2.7392240  83.9005530  71.2630210
  11.0715550  87.0432090  67.6166010  11.7914670  87.5387380  67.2262120
  10.8697370  86.3649980  66.9719880   6.5325490  78.4370050  61.7595400
   5.7190100  77.9383220  61.6840710   6.3387440  79.2768300  61.3431750
   6.4534350  87.1141150  73.5035010   6.3871660  86.1936820  73.2492600
   5.8239490  87.2116590  74.2179650   9.2473880  82.8089700  60.0557560
  10.1353500  83.1206930  59.8808900   9.2178970  81.9361950  59.6638140
   5.2434470  88.9813390  60.7345730   5.5850170  89.7255620  60.2389050
   4.4147180  89.2944510  61.0970560   6.3851080  89.9361720  73.2538810
   6.3995620  89.0042680  73.0357720   5.6776180  90.0221480  73.8928580
  11.5188150  84.1201540  59.5237420  11.4351870  84.5515760  58.6733860
  12.2382340  84.5799890  59.9564240  12.5962290  86.5769060  72.6007390
  11.8710480  87.1697840  72.4036780  13.1237750  86.5692600  71.8020760
  12.5475400  90.9743800  62.2519550  11.9051560  90.3199420  62.5263270
  12.1606060  91.3798890  61.4760220   8.1261880  88.3029230  66.0991240
   8.4785700  87.7057360  65.4392610   7.2424210  87.9773460  66.2699490
   4.2125160  89.0626920  63.5061650   4.8996290  89.6096130  63.8869240
   3.4257580  89.6067650  63.5411260   3.5152370  86.0672950  63.1187010
   3.9715150  86.8778200  63.3447200   3.1640580  85.7496090  63.9505500
   5.8184980  91.5779290  70.3479310   6.4627200  91.7838670  71.0252730
   6.1814420  90.8167690  69.8950160   7.0917060  89.5811640  69.0656760
   7.7339290  88.8804800  69.1788930   7.6166410  90.3610080  68.8853650
  10.9372780  89.8660260  58.7895900  10.7110360  89.1490700  59.3820540
  10.5468980  89.6172700  57.9517650   8.8654680  90.3806540  72.2692820
   9.2010920  90.9673230  72.9470740   7.9455020  90.2499250  72.4990610
  10.5189030  87.7832200  60.4510060  10.2310730  88.2444890  61.2387940
  11.3141200  87.3229970  60.7194280   4.6943260  90.4297870  75.4380880
   4.3740130  89.7107110  75.9826570   4.0201620  91.1052940  75.5116940
   2.7357430  91.2758320  60.3814030   2.7267530  92.0088010  59.7658540
   1.8155790  91.0289900  60.4740990   7.9096860  80.6624030  70.8017680
   8.2777680  79.8419240  71.1297250   7.0495060  80.7225920  71.2173330
  11.2758890  79.6180970  61.6105240  10.6472050  79.7226640  60.8963470
  10.7810810  79.8377750  62.3999120   5.7217030  91.3386560  59.0439220
   5.8229010  91.1350550  58.1141200   4.8218770  91.0844840  59.2487000
   3.2442920  81.8966920  63.0263120   2.5359070  82.3653260  63.4676730
   3.5287400  81.2388930  63.6608310   4.8698850  83.3163620  71.0255650
   5.3684100  83.7909440  71.6907500   5.0121800  82.3927140  71.2325680
   7.2758350  78.6217580  64.4658910   7.1526130  78.6403710  63.5168420
   8.2242910  78.6696520  64.5857310  12.0765710  79.5331580  71.8684040
  11.5739310  80.2736980  72.2077850  12.8922370  79.9215580  71.5520830
  10.3687720  84.7764760  65.3145400   9.4277860  84.7914990  65.4893090
  10.6831790  83.9900720  65.7605700  12.3713300  91.9473610  66.9899660
  12.4960720  92.7704780  67.4623470  13.2378860  91.7364340  66.6423810
   2.9533140  93.2135130  58.4842360   3.7461750  93.5023960  58.0324150
   2.4337490  92.7827300  57.8054840   9.1154110  93.0611050  74.4087190
  10.0675860  92.9769070  74.3587430   8.9682330  93.7252760  75.0820980
  12.0063310  92.4405260  59.9079100  11.7204820  92.0270400  59.0933280
  11.8082860  93.3692970  59.7879620   3.4710540  88.4338540  58.3484710
   3.3661180  87.8190890  59.0746090   3.3034760  87.9104430  57.5647720
   3.6224860  87.1195340  74.3273940   2.8570530  87.6880340  74.2428610
   3.8040820  86.8271550  73.4342170   6.7113270  87.4958570  58.9526700
   6.1623370  87.9427870  59.5969440   7.3332530  86.9907820  59.4764370
  10.7648210  88.8500670  74.8848960  11.5057680  89.1876430  74.3816420
  10.0020890  89.0192730  74.3318730   2.3788390  86.4549490  60.8492000
   2.8004810  86.2889360  61.6923390   2.5039230  85.6449720  60.3547140
   4.8916030  85.4787100  58.0969100   5.4121690  84.7636120  57.7310250
   5.5384430  86.1172970  58.3969610   9.4393870  86.9015500  73.4204170
   9.8534890  87.0560580  74.2694590   8.5044870  87.0270720  73.5829950
   9.9116040  84.2411660  75.4243320  10.4936810  83.4863980  75.3363800
  10.0877810  84.7719100  74.6474800   3.7949550  77.9581650  70.7687660
   3.3466850  77.9805910  69.9233210   3.1614750  77.5600670  71.3657960
   4.2009100  86.8535980  71.3900100   4.6197210  87.6968710  71.2176340
   3.2817730  86.9908020  71.1606880   6.5373000  84.5852160  72.7737940
   6.6569210  83.9893300  73.5132780   7.3967000  84.6221850  72.3539240
   8.8760900  85.1389350  71.3500450   8.3496120  85.6631970  70.7465590
   9.2192240  85.7716740  71.9810180   3.3041770  81.1273510  74.0313760
   3.8941460  80.8189360  74.7191580   2.4862010  80.6553260  74.1873660
   8.1235200  80.7439320  74.2646780   7.4350720  80.0820860  74.1996770
   8.8441220  80.2977590  74.7095240   8.7535600  77.3390950  60.3237040
   9.0337890  76.4958850  60.6796460   7.9801330  77.5714060  60.8375790
   3.2915020  78.5717960  58.7684240   2.9437020  77.8941950  58.1886690
   3.4927790  78.1107470  59.5827630  12.4358410  92.0902380  73.0937040
  11.8360400  92.1494940  72.3500960  12.5652310  91.1507360  73.2233890
  13.6759860  89.8320200  58.4306750  12.8452820  89.8996850  58.9013980
  13.8531690  90.7224320  58.1273610  13.1316320  86.5767680  60.9340950
  13.8935230  87.1464330  61.0400640  13.1470690  86.0094880  61.7049260
  14.1376290  87.4317780  65.7782880  14.5085120  86.6485100  65.3718850
  14.7778220  88.1206880  65.6000180  11.1210050  88.8154360  71.1913200
  10.3069890  89.2451520  71.4538990  11.5284250  89.4272770  70.5782250
  13.1835490  86.8702050  58.0913470  13.4584330  87.7780930  57.9632690
  12.9946230  86.8064580  59.0275460   9.5811100  79.8946900  59.3867100
   9.9995980  79.7077880  58.5463760   9.2747160  79.0425950  59.6970030
  13.0800830  84.8071040  63.0842900  12.7044430  84.0398970  62.6524190
  12.3503950  85.1893740  63.5717830  12.4700450  83.9542560  72.7182420
  12.2386540  83.7255310  71.8180370  12.7305000  84.8742110  72.6727310
  10.9088520  79.1798990  75.4962120  11.7858700  79.1882390  75.8796120
  10.9209360  78.4429830  74.8854470  12.3551790  83.0328530  66.3850140
  12.8789270  82.5391180  65.7540310  12.9411210  83.1678890  67.1297710
  12.5341510  83.1168400  69.9069690  11.5844220  83.0831940  70.0214680
  12.7154520  84.0268510  69.6719460  11.8451760  82.2901880  62.3242550
  12.3410880  82.0572750  63.1091430  11.6467830  81.4513720  61.9080190
  13.2738920  80.9262830  64.8580230  13.1638200  80.7718870  65.7962500
  14.0346510  80.3983770  64.6155640  11.6204640  76.8656960  71.3163230
  12.2576860  77.4791100  71.6822420  11.7679530  76.9017620  70.3712460
  14.1629190  78.7570750  58.0986370  15.0878500  78.6251930  57.8904660
  14.1404980  78.8363570  59.0522820  14.2367680  79.5281410  60.7243080
  13.4419180  79.4626530  61.2535990  14.4410960  80.4632050  60.7128430
  11.1786100  93.5672960  64.7181470  11.7745170  93.2457530  64.0415890
  11.4364250  93.0944780  65.5094740   2.7854700  91.5550460  70.4681820
   2.5446060  91.8225020  69.5812340   3.7257340  91.7256190  70.5232680
   4.9909120  78.0183150  74.2238330   4.9298010  78.6104980  74.9733740
   5.9309500  77.9109110  74.0788590   7.6283680  77.6753210  73.8630620
   8.2424090  77.9932500  73.2011700   8.1733240  77.1901800  74.4826480
   8.3691720  76.2385350  70.1899910   7.4951560  76.5720460  69.9872840
   8.2602470  75.7658530  71.0151780   9.2763700  78.4456220  71.5741630
   8.9477060  77.6307980  71.1943360  10.2246000  78.4026030  71.4507320
   2.1594030  92.5256500  67.7227330   2.6759050  91.9143860  67.1975590
   2.8091410  93.0285280  68.2138340   4.8989530  93.4164990  68.5496310
   5.1867340  93.1619290  67.6729320   5.4112750  92.8642350  69.1401880
   6.1166540  77.1555190  69.1292820   5.3338330  77.6300690  69.4089580
   5.8229470  76.2510020  69.0206000  10.6687610  77.8578290  67.1741910
  11.1095700  77.8023390  66.3263510  10.3995200  78.7736300  67.2452090
  12.5326180  77.4893530  65.1850730  12.4714580  76.5454750  65.0381750
  13.3118210  77.5973620  65.7304190   4.0020760  79.5741940  64.6408850
   3.1895270  79.1998830  64.3004730   4.5062400  78.8187020  64.9430040
   8.5045740  76.2384390  65.8791920   9.1075110  76.8104600  66.3540440
   7.7638730  76.8023830  65.6565820  11.6480340  76.6405950  61.1532200
  11.8430970  77.5389400  61.4199630  10.8610210  76.4093030  61.6465150
   2.0269940  77.7241860  63.2453900   1.3972680  77.0229170  63.4124030
   1.4875080  78.4845990  63.0287060   2.1525500  77.0025840  75.6806390
   1.8709770  77.5059440  74.9167210   2.5345200  76.2047590  75.3148520
   7.6599110  84.4371890  46.6221600   7.5793160  83.5226500  46.3513310
   7.2463530  84.9338960  45.9161310   5.7917150  86.2150910  48.5030870
   5.0159250  85.7351350  48.7929440   6.4430080  85.5356560  48.3287030
   9.8124580  90.6211100  47.2830000   9.3506110  89.8498340  47.6117170
  10.6250130  90.6477170  47.7882450   6.0387890  92.9069110  46.9033990
   5.4199330  93.3626610  46.3328430   6.8939670  93.0620570  46.5023690
   5.2326140  88.8908100  48.5101030   5.1634420  87.9498040  48.3490160
   5.9946000  88.9809510  49.0823600   6.2631310  81.6978480  48.7369960
   6.6396130  80.8250360  48.6243630   6.1650820  82.0337180  47.8460400
  10.0455430  79.1928920  45.6698300  10.8665050  78.7025490  45.7123780
  10.0789510  79.7826580  46.4230140   2.2344050  83.0390480  48.5312580
   2.7422270  83.5371450  49.1717600   2.7657290  82.2625680  48.3551940
  14.3354980  81.2095670  52.2341930  13.6307150  81.5977380  51.7157040
  14.6012900  81.9045960  52.8362860   6.9051240  87.7908350  44.2965900
   6.2868510  88.2557800  43.7328620   7.4174490  88.4835830  44.7135410
   1.7683000  87.3184220  50.9749500   1.4352380  87.9453140  51.6170570
   1.9449680  87.8446100  50.1951170  10.2816910  81.1329300  48.4425840
   9.5772480  81.4214190  49.0228950  10.6429070  81.9429410  48.0825400
  11.8979690  90.7504430  50.7053320  11.2143210  91.4203540  50.6969990
  12.4373980  90.9485080  49.9398180  13.3503830  80.5784090  48.8335050
  12.4028740  80.6123070  48.9650480  13.6753820  81.3923040  49.2184410
   3.8823370  76.8781270  47.1291040   4.1898350  76.3228160  46.4126540
   2.9524070  77.0125730  46.9464030   9.4338430  92.5948560  49.4198500
   9.4465590  92.1910850  48.5520760   8.8813650  93.3695850  49.3159930
  10.7283850  89.3164780  44.5088670  10.6180180  88.3739110  44.6338090
  10.7252100  89.6780420  45.3951430   8.8323870  87.4978400  50.7481110
   9.2492660  87.2838510  49.9134570   9.5563690  87.7551190  51.3189730
   6.2704130  84.9430100  43.8651160   5.3433410  84.8767480  44.0939630
   6.4228950  85.8810230  43.7506400   6.2573210  81.2147100  40.8618320
   5.3176880  81.3761060  40.9470780   6.5756470  81.9332780  40.3154310
  12.7785970  85.8965620  50.8397350  11.9504600  85.9658710  50.3647480
  13.3736450  86.4819930  50.3713180  10.3001420  86.5050400  44.3686410
   9.6813840  86.1669950  43.7212710  10.2825870  85.8610160  45.0765600
   9.7427980  82.6834940  51.7852220   9.3299160  83.5088650  52.0392210
   9.0103930  82.0979980  51.5928580   1.8760770  85.4694840  46.6470890
   1.4717770  84.7572090  46.1516790   1.9623890  85.1248080  47.5358930
   2.3442470  89.1562400  48.8110100   2.0470760  88.5507870  48.1317880
   3.2942290  89.1939710  48.6999460  10.4328080  92.7294270  52.4733200
   9.9558640  93.5366460  52.2805810   9.7489870  92.0772600  52.6259410
   8.4766120  85.7437210  41.3759160   8.9159400  84.9059640  41.2296980
   9.1894540  86.3766610  41.4623300   6.5861500  90.6833280  45.3440400
   7.0257410  91.4257610  44.9295790   6.5248390  90.9259850  46.2679360
   2.0612470  91.7079110  56.2460420   2.0327900  92.1122060  55.3788850
   1.8977440  90.7789470  56.0832020  12.0583260  76.9980020  39.6900200
  11.7455920  77.0906850  40.5899270  12.8195730  77.5761050  39.6397630
  14.0127290  92.4906210  57.5424590  14.4887010  92.9689100  58.2213670
  14.6334450  92.4223700  56.8170090  13.4160540  89.6819060  54.7024600
  13.5423600  89.4430940  53.7841780  13.4581920  88.8503600  55.1746680
   7.2777280  93.3847060  53.2719410   7.7921950  93.2955070  54.0741840
   6.4346360  93.7306760  53.5647320   9.2531680  93.6702400  42.7003410
   9.0932820  93.3805340  43.5985240   9.0878390  92.8942530  42.1648640
   8.9557810  91.1789960  41.2601410   8.2622970  91.1767250  40.6003690
   9.6980670  90.7549280  40.8295580   8.5207740  92.8052670  45.3349900
   8.9764690  92.0242050  45.6488520   8.8600260  93.5159490  45.8791080
  13.2684550  81.7351520  55.6674340  12.6528820  82.2431190  55.1389800
  12.9480970  80.8349850  55.6100280   5.3298870  80.5743410  53.1336530
   4.8678240  80.7826430  53.9456470   4.9276980  79.7602760  52.8307200
  10.3303380  81.7952360  54.2633190   9.4796970  81.4958110  54.5842260
  10.1705170  82.0394370  53.3517010   7.4253090  83.2954110  56.3631980
   7.7506500  82.4617860  56.0234210   8.2133420  83.8182630  56.5110310
   4.1587880  77.3285590  42.4107040   3.5342060  77.3245460  43.1360350
   4.0718000  76.4616550  42.0143010   3.0804960  78.2522220  49.3890810
   3.3777290  79.1585050  49.3082830   3.6290520  77.7641000  48.7750380
   8.0641040  82.8371830  43.8573110   7.4649930  83.5607630  43.6736730
   8.6120650  82.7748610  43.0749560   3.2742490  83.7294040  55.9242730
   3.1786090  82.7888770  55.7743130   4.1174470  83.9509110  55.5290800
   6.6705910  81.4735370  45.8876390   7.0635480  81.7907570  45.0745080
   7.0322760  80.5947250  46.0020910   4.9798080  80.2242680  57.1473250
   4.2896400  80.0314880  57.7819340   5.7230380  80.5077320  57.6797550
   7.2561050  84.0641120  49.9827170   6.5242170  84.5727930  50.3317270
   6.8585390  83.2471100  49.6815950   3.6938440  80.7395320  48.3879660
   3.6974500  80.2985270  47.5384200   4.5889560  81.0612650  48.4951480
   3.7558590  81.7407400  41.3786420   3.8771410  81.6993880  42.3272240
   3.3707100  82.6031550  41.2233150   7.7186960  79.5174800  49.3950110
   7.7359700  79.9683450  50.2391960   7.4702540  78.6180440  49.6083550
   2.7680090  84.0508540  40.7769720   2.1996990  83.6026790  40.1505630
   3.4769090  84.4101320  40.2434870  11.1457710  76.9306980  55.2336490
  11.4703480  76.1996640  55.7594470  11.1814220  76.6120620  54.3317480
   3.9946410  84.7997100  50.1345070   4.3616540  84.3255670  50.8806410
   3.8051470  85.6738670  50.4753410   1.7845780  83.8405740  52.4529280
   1.4802850  84.7197720  52.6779640   2.7392240  83.9005530  52.4886720
  11.0715550  87.0432090  48.8422520  11.7914670  87.5387380  48.4518630
  10.8697370  86.3649980  48.1976390   6.5325490  78.4370050  42.9851910
   5.7190100  77.9383220  42.9097220   6.3387440  79.2768300  42.5688260
   6.4534350  87.1141150  54.7291520   6.3871660  86.1936820  54.4749110
   5.8239490  87.2116590  55.4436160   9.2473880  82.8089700  41.2814070
  10.1353500  83.1206930  41.1065410   9.2178970  81.9361950  40.8894650
   5.2434470  88.9813390  41.9602240   5.5850170  89.7255620  41.4645560
   4.4147180  89.2944510  42.3227070   6.3851080  89.9361720  54.4795320
   6.3995620  89.0042680  54.2614230   5.6776180  90.0221480  55.1185090
  11.5188150  84.1201540  40.7493930  11.4351870  84.5515760  39.8990370
  12.2382340  84.5799890  41.1820750  12.5962290  86.5769060  53.8263900
  11.8710480  87.1697840  53.6293290  13.1237750  86.5692600  53.0277270
  12.5475400  90.9743800  43.4776060  11.9051560  90.3199420  43.7519780
  12.1606060  91.3798890  42.7016730   8.1261880  88.3029230  47.3247750
   8.4785700  87.7057360  46.6649120   7.2424210  87.9773460  47.4956000
   4.2125160  89.0626920  44.7318160   4.8996290  89.6096130  45.1125750
   3.4257580  89.6067650  44.7667770   3.5152370  86.0672950  44.3443520
   3.9715150  86.8778200  44.5703710   3.1640580  85.7496090  45.1762010
   5.8184980  91.5779290  51.5735820   6.4627200  91.7838670  52.2509240
   6.1814420  90.8167690  51.1206670   7.0917060  89.5811640  50.2913270
   7.7339290  88.8804800  50.4045440   7.6166410  90.3610080  50.1110160
  10.9372780  89.8660260  40.0152410  10.7110360  89.1490700  40.6077050
  10.5468980  89.6172700  39.1774160   8.8654680  90.3806540  53.4949330
   9.2010920  90.9673230  54.1727250   7.9455020  90.2499250  53.7247120
  10.5189030  87.7832200  41.6766570  10.2310730  88.2444890  42.4644450
  11.3141200  87.3229970  41.9450790   4.6943260  90.4297870  56.6637390
   4.3740130  89.7107110  57.2083080   4.0201620  91.1052940  56.7373450
   2.7357430  91.2758320  41.6070540   2.7267530  92.0088010  40.9915050
   1.8155790  91.0289900  41.6997500   7.9096860  80.6624030  52.0274190
   8.2777680  79.8419240  52.3553760   7.0495060  80.7225920  52.4429840
  11.2758890  79.6180970  42.8361750  10.6472050  79.7226640  42.1219980
  10.7810810  79.8377750  43.6255630   5.7217030  91.3386560  40.2695730
   5.8229010  91.1350550  39.3397710   4.8218770  91.0844840  40.4743510
   3.2442920  81.8966920  44.2519630   2.5359070  82.3653260  44.6933240
   3.5287400  81.2388930  44.8864820   4.8698850  83.3163620  52.2512160
   5.3684100  83.7909440  52.9164010   5.0121800  82.3927140  52.4582190
   7.2758350  78.6217580  45.6915420   7.1526130  78.6403710  44.7424930
   8.2242910  78.6696520  45.8113820  12.0765710  79.5331580  53.0940550
  11.5739310  80.2736980  53.4334360  12.8922370  79.9215580  52.7777340
  10.3687720  84.7764760  46.5401910   9.4277860  84.7914990  46.7149600
  10.6831790  83.9900720  46.9862210  12.3713300  91.9473610  48.2156170
  12.4960720  92.7704780  48.6879980  13.2378860  91.7364340  47.8680320
   2.9533140  93.2135130  39.7098870   3.7461750  93.5023960  39.2580660
   2.4337490  92.7827300  39.0311350   7.6853740  89.3330760  57.0234290
   7.0791900  89.3562360  56.2830040   7.3807850  88.6013800  57.5601540
   9.1154110  93.0611050  55.6343700  10.0675860  92.9769070  55.5843940
   8.9682330  93.7252760  56.3077490  12.0063310  92.4405260  41.1335610
  11.7204820  92.0270400  40.3189790  11.8082860  93.3692970  41.0136130
   3.4710540  88.4338540  39.5741220   3.3661180  87.8190890  40.3002600
   3.3034760  87.9104430  38.7904230   3.6224860  87.1195340  55.5530450
   2.8570530  87.6880340  55.4685120   3.8040820  86.8271550  54.6598680
   6.7113270  87.4958570  40.1783210   6.1623370  87.9427870  40.8225950
   7.3332530  86.9907820  40.7020880  10.7648210  88.8500670  56.1105470
  11.5057680  89.1876430  55.6072930  10.0020890  89.0192730  55.5575240
   2.3788390  86.4549490  42.0748510   2.8004810  86.2889360  42.9179900
   2.5039230  85.6449720  41.5803650   4.8916030  85.4787100  39.3225610
   5.4121690  84.7636120  38.9566760   5.5384430  86.1172970  39.6226120
   9.4393870  86.9015500  54.6460680   9.8534890  87.0560580  55.4951100
   8.5044870  87.0270720  54.8086460   9.9116040  84.2411660  56.6499830
  10.4936810  83.4863980  56.5620310  10.0877810  84.7719100  55.8731310
   3.7949550  77.9581650  51.9944170   3.3466850  77.9805910  51.1489720
   3.1614750  77.5600670  52.5914470   4.2009100  86.8535980  52.6156610
   4.6197210  87.6968710  52.4432850   3.2817730  86.9908020  52.3863390
   6.5373000  84.5852160  53.9994450   6.6569210  83.9893300  54.7389290
   7.3967000  84.6221850  53.5795750   8.8760900  85.1389350  52.5756960
   8.3496120  85.6631970  51.9722100   9.2192240  85.7716740  53.2066690
   3.3041770  81.1273510  55.2570270   3.8941460  80.8189360  55.9448090
   2.4862010  80.6553260  55.4130170   8.1235200  80.7439320  55.4903290
   7.4350720  80.0820860  55.4253280   8.8441220  80.2977590  55.9351750
   8.7535600  77.3390950  41.5493550   9.0337890  76.4958850  41.9052970
   7.9801330  77.5714060  42.0632300   3.2915020  78.5717960  39.9940750
   2.9437020  77.8941950  39.4143200   3.4927790  78.1107470  40.8084140
  12.4358410  92.0902380  54.3193550  11.8360400  92.1494940  53.5757470
  12.5652310  91.1507360  54.4490400  13.6759860  89.8320200  39.6563260
  12.8452820  89.8996850  40.1270490  13.8531690  90.7224320  39.3530120
  13.1316320  86.5767680  42.1597460  13.8935230  87.1464330  42.2657150
  13.1470690  86.0094880  42.9305770  14.1376290  87.4317780  47.0039390
  14.5085120  86.6485100  46.5975360  14.7778220  88.1206880  46.8256690
  11.1210050  88.8154360  52.4169710  10.3069890  89.2451520  52.6795500
  11.5284250  89.4272770  51.8038760  13.1835490  86.8702050  39.3169980
  13.4584330  87.7780930  39.1889200  12.9946230  86.8064580  40.2531970
   9.5811100  79.8946900  40.6123610   9.9995980  79.7077880  39.7720270
   9.2747160  79.0425950  40.9226540  13.0800830  84.8071040  44.3099410
  12.7044430  84.0398970  43.8780700  12.3503950  85.1893740  44.7974340
  12.4700450  83.9542560  53.9438930  12.2386540  83.7255310  53.0436880
  12.7305000  84.8742110  53.8983820  10.9088520  79.1798990  56.7218630
  11.7858700  79.1882390  57.1052630  10.9209360  78.4429830  56.1110980
  12.3551790  83.0328530  47.6106650  12.8789270  82.5391180  46.9796820
  12.9411210  83.1678890  48.3554220  12.5341510  83.1168400  51.1326200
  11.5844220  83.0831940  51.2471190  12.7154520  84.0268510  50.8975970
  11.8451760  82.2901880  43.5499060  12.3410880  82.0572750  44.3347940
  11.6467830  81.4513720  43.1336700  13.2738920  80.9262830  46.0836740
  13.1638200  80.7718870  47.0219010  14.0346510  80.3983770  45.8412150
  11.6204640  76.8656960  52.5419740  12.2576860  77.4791100  52.9078930
  11.7679530  76.9017620  51.5968970  14.1629190  78.7570750  39.3242880
  15.0878500  78.6251930  39.1161170  14.1404980  78.8363570  40.2779330
  14.2367680  79.5281410  41.9499590  13.4419180  79.4626530  42.4792500
  14.4410960  80.4632050  41.9384940  11.1786100  93.5672960  45.9437980
  11.7745170  93.2457530  45.2672400  11.4364250  93.0944780  46.7351250
   2.7854700  91.5550460  51.6938330   2.5446060  91.8225020  50.8068850
   3.7257340  91.7256190  51.7489190   4.9909120  78.0183150  55.4494840
   4.9298010  78.6104980  56.1990250   5.9309500  77.9109110  55.3045100
   7.6283680  77.6753210  55.0887130   8.2424090  77.9932500  54.4268210
   8.1733240  77.1901800  55.7082990   8.3691720  76.2385350  51.4156420
   7.4951560  76.5720460  51.2129350   8.2602470  75.7658530  52.2408290
   9.2763700  78.4456220  52.7998140   8.9477060  77.6307980  52.4199870
  10.2246000  78.4026030  52.6763830   2.1594030  92.5256500  48.9483840
   2.6759050  91.9143860  48.4232100   2.8091410  93.0285280  49.4394850
   4.8989530  93.4164990  49.7752820   5.1867340  93.1619290  48.8985830
   5.4112750  92.8642350  50.3658390   6.1166540  77.1555190  50.3549330
   5.3338330  77.6300690  50.6346090   5.8229470  76.2510020  50.2462510
  10.6687610  77.8578290  48.3998420  11.1095700  77.8023390  47.5520020
  10.3995200  78.7736300  48.4708600  12.5326180  77.4893530  46.4107240
  12.4714580  76.5454750  46.2638260  13.3118210  77.5973620  46.9560700
   4.0020760  79.5741940  45.8665360   3.1895270  79.1998830  45.5261240
   4.5062400  78.8187020  46.1686550   8.5045740  76.2384390  47.1048430
   9.1075110  76.8104600  47.5796950   7.7638730  76.8023830  46.8822330
  11.6480340  76.6405950  42.3788710  11.8430970  77.5389400  42.6456140
  10.8610210  76.4093030  42.8721660   2.0269940  77.7241860  44.4710410
   1.3972680  77.0229170  44.6380540   1.4875080  78.4845990  44.2543570
   2.1525500  77.0025840  56.9062900   1.8709770  77.5059440  56.1423720
   2.5345200  76.2047590  56.5405030   8.7540960  76.4179420  57.4843370
   8.6406410  76.7374030  58.3794890   9.5710700  76.8191930  57.1880650
   7.6599110  84.4371890  27.8478110   7.5793160  83.5226500  27.5769820
   7.2463530  84.9338960  27.1417820   5.7917150  86.2150910  29.7287380
   5.0159250  85.7351350  30.0185950   6.4430080  85.5356560  29.5543540
   9.8124580  90.6211100  28.5086510   9.3506110  89.8498340  28.8373680
  10.6250130  90.6477170  29.0138960   6.0387890  92.9069110  28.1290500
   5.4199330  93.3626610  27.5584940   6.8939670  93.0620570  27.7280200
   5.2326140  88.8908100  29.7357540   5.1634420  87.9498040  29.5746670
   5.9946000  88.9809510  30.3080110   6.2631310  81.6978480  29.9626470
   6.6396130  80.8250360  29.8500140   6.1650820  82.0337180  29.0716910
  10.0455430  79.1928920  26.8954810  10.8665050  78.7025490  26.9380290
  10.0789510  79.7826580  27.6486650   2.2344050  83.0390480  29.7569090
   2.7422270  83.5371450  30.3974110   2.7657290  82.2625680  29.5808450
  14.3354980  81.2095670  33.4598440  13.6307150  81.5977380  32.9413550
  14.6012900  81.9045960  34.0619370   6.9051240  87.7908350  25.5222410
   6.2868510  88.2557800  24.9585130   7.4174490  88.4835830  25.9391920
   1.7683000  87.3184220  32.2006010   1.4352380  87.9453140  32.8427080
   1.9449680  87.8446100  31.4207680  10.2816910  81.1329300  29.6682350
   9.5772480  81.4214190  30.2485460  10.6429070  81.9429410  29.3081910
  11.8979690  90.7504430  31.9309830  11.2143210  91.4203540  31.9226500
  12.4373980  90.9485080  31.1654690  13.3503830  80.5784090  30.0591560
  12.4028740  80.6123070  30.1906990  13.6753820  81.3923040  30.4440920
   3.8823370  76.8781270  28.3547550   4.1898350  76.3228160  27.6383050
   2.9524070  77.0125730  28.1720540   9.4338430  92.5948560  30.6455010
   9.4465590  92.1910850  29.7777270   8.8813650  93.3695850  30.5416440
  10.7283850  89.3164780  25.7345180  10.6180180  88.3739110  25.8594600
  10.7252100  89.6780420  26.6207940   8.8323870  87.4978400  31.9737620
   9.2492660  87.2838510  31.1391080   9.5563690  87.7551190  32.5446240
   6.2704130  84.9430100  25.0907670   5.3433410  84.8767480  25.3196140
   6.4228950  85.8810230  24.9762910   6.2573210  81.2147100  22.0874830
   5.3176880  81.3761060  22.1727290   6.5756470  81.9332780  21.5410820
  12.7785970  85.8965620  32.0653860  11.9504600  85.9658710  31.5903990
  13.3736450  86.4819930  31.5969690  10.3001420  86.5050400  25.5942920
   9.6813840  86.1669950  24.9469220  10.2825870  85.8610160  26.3022110
   9.7427980  82.6834940  33.0108730   9.3299160  83.5088650  33.2648720
   9.0103930  82.0979980  32.8185090   1.8760770  85.4694840  27.8727400
   1.4717770  84.7572090  27.3773300   1.9623890  85.1248080  28.7615440
   2.3442470  89.1562400  30.0366610   2.0470760  88.5507870  29.3574390
   3.2942290  89.1939710  29.9255970  10.4328080  92.7294270  33.6989710
   9.9558640  93.5366460  33.5062320   9.7489870  92.0772600  33.8515920
   8.4766120  85.7437210  22.6015670   8.9159400  84.9059640  22.4553490
   9.1894540  86.3766610  22.6879810   6.5861500  90.6833280  26.5696910
   7.0257410  91.4257610  26.1552300   6.5248390  90.9259850  27.4935870
   2.0612470  91.7079110  37.4716930   2.0327900  92.1122060  36.6045360
   1.8977440  90.7789470  37.3088530  12.0583260  76.9980020  20.9156710
  11.7455920  77.0906850  21.8155780  12.8195730  77.5761050  20.8654140
  14.0127290  92.4906210  38.7681100  14.4887010  92.9689100  39.4470180
  14.6334450  92.4223700  38.0426600  13.4160540  89.6819060  35.9281110
  13.5423600  89.4430940  35.0098290  13.4581920  88.8503600  36.4003190
   7.2777280  93.3847060  34.4975920   7.7921950  93.2955070  35.2998350
   6.4346360  93.7306760  34.7903830   9.2531680  93.6702400  23.9259920
   9.0932820  93.3805340  24.8241750   9.0878390  92.8942530  23.3905150
   8.9557810  91.1789960  22.4857920   8.2622970  91.1767250  21.8260200
   9.6980670  90.7549280  22.0552090   8.5207740  92.8052670  26.5606410
   8.9764690  92.0242050  26.8745030   8.8600260  93.5159490  27.1047590
  13.2684550  81.7351520  36.8930850  12.6528820  82.2431190  36.3646310
  12.9480970  80.8349850  36.8356790   5.3298870  80.5743410  34.3593040
   4.8678240  80.7826430  35.1712980   4.9276980  79.7602760  34.0563710
  10.3303380  81.7952360  35.4889700   9.4796970  81.4958110  35.8098770
  10.1705170  82.0394370  34.5773520   7.4253090  83.2954110  37.5888490
   7.7506500  82.4617860  37.2490720   8.2133420  83.8182630  37.7366820
   4.1587880  77.3285590  23.6363550   3.5342060  77.3245460  24.3616860
   4.0718000  76.4616550  23.2399520   3.0804960  78.2522220  30.6147320
   3.3777290  79.1585050  30.5339340   3.6290520  77.7641000  30.0006890
   8.0641040  82.8371830  25.0829620   7.4649930  83.5607630  24.8993240
   8.6120650  82.7748610  24.3006070   3.2742490  83.7294040  37.1499240
   3.1786090  82.7888770  36.9999640   4.1174470  83.9509110  36.7547310
   6.6705910  81.4735370  27.1132900   7.0635480  81.7907570  26.3001590
   7.0322760  80.5947250  27.2277420   4.9798080  80.2242680  38.3729760
   4.2896400  80.0314880  39.0075850   5.7230380  80.5077320  38.9054060
   7.2561050  84.0641120  31.2083680   6.5242170  84.5727930  31.5573780
   6.8585390  83.2471100  30.9072460   3.6938440  80.7395320  29.6136170
   3.6974500  80.2985270  28.7640710   4.5889560  81.0612650  29.7207990
   3.7558590  81.7407400  22.6042930   3.8771410  81.6993880  23.5528750
   3.3707100  82.6031550  22.4489660   7.7186960  79.5174800  30.6206620
   7.7359700  79.9683450  31.4648470   7.4702540  78.6180440  30.8340060
   2.7680090  84.0508540  22.0026230   2.1996990  83.6026790  21.3762140
   3.4769090  84.4101320  21.4691380  11.1457710  76.9306980  36.4593000
  11.4703480  76.1996640  36.9850980  11.1814220  76.6120620  35.5573990
   3.9946410  84.7997100  31.3601580   4.3616540  84.3255670  32.1062920
   3.8051470  85.6738670  31.7009920   1.7845780  83.8405740  33.6785790
   1.4802850  84.7197720  33.9036150   2.7392240  83.9005530  33.7143230
  11.0715550  87.0432090  30.0679030  11.7914670  87.5387380  29.6775140
  10.8697370  86.3649980  29.4232900   6.5325490  78.4370050  24.2108420
   5.7190100  77.9383220  24.1353730   6.3387440  79.2768300  23.7944770
   6.4534350  87.1141150  35.9548030   6.3871660  86.1936820  35.7005620
   5.8239490  87.2116590  36.6692670   9.2473880  82.8089700  22.5070580
  10.1353500  83.1206930  22.3321920   9.2178970  81.9361950  22.1151160
   5.2434470  88.9813390  23.1858750   5.5850170  89.7255620  22.6902070
   4.4147180  89.2944510  23.5483580   6.3851080  89.9361720  35.7051830
   6.3995620  89.0042680  35.4870740   5.6776180  90.0221480  36.3441600
  11.5188150  84.1201540  21.9750440  11.4351870  84.5515760  21.1246880
  12.2382340  84.5799890  22.4077260  12.5962290  86.5769060  35.0520410
  11.8710480  87.1697840  34.8549800  13.1237750  86.5692600  34.2533780
  12.5475400  90.9743800  24.7032570  11.9051560  90.3199420  24.9776290
  12.1606060  91.3798890  23.9273240   8.1261880  88.3029230  28.5504260
   8.4785700  87.7057360  27.8905630   7.2424210  87.9773460  28.7212510
   4.2125160  89.0626920  25.9574670   4.8996290  89.6096130  26.3382260
   3.4257580  89.6067650  25.9924280   3.5152370  86.0672950  25.5700030
   3.9715150  86.8778200  25.7960220   3.1640580  85.7496090  26.4018520
   5.8184980  91.5779290  32.7992330   6.4627200  91.7838670  33.4765750
   6.1814420  90.8167690  32.3463180   7.0917060  89.5811640  31.5169780
   7.7339290  88.8804800  31.6301950   7.6166410  90.3610080  31.3366670
  10.9372780  89.8660260  21.2408920  10.7110360  89.1490700  21.8333560
  10.5468980  89.6172700  20.4030670   8.8654680  90.3806540  34.7205840
   9.2010920  90.9673230  35.3983760   7.9455020  90.2499250  34.9503630
  10.5189030  87.7832200  22.9023080  10.2310730  88.2444890  23.6900960
  11.3141200  87.3229970  23.1707300   4.6943260  90.4297870  37.8893900
   4.3740130  89.7107110  38.4339590   4.0201620  91.1052940  37.9629960
   2.7357430  91.2758320  22.8327050   2.7267530  92.0088010  22.2171560
   1.8155790  91.0289900  22.9254010   7.9096860  80.6624030  33.2530700
   8.2777680  79.8419240  33.5810270   7.0495060  80.7225920  33.6686350
  11.2758890  79.6180970  24.0618260  10.6472050  79.7226640  23.3476490
  10.7810810  79.8377750  24.8512140   5.7217030  91.3386560  21.4952240
   5.8229010  91.1350550  20.5654220   4.8218770  91.0844840  21.7000020
   3.2442920  81.8966920  25.4776140   2.5359070  82.3653260  25.9189750
   3.5287400  81.2388930  26.1121330   4.8698850  83.3163620  33.4768670
   5.3684100  83.7909440  34.1420520   5.0121800  82.3927140  33.6838700
   7.2758350  78.6217580  26.9171930   7.1526130  78.6403710  25.9681440
   8.2242910  78.6696520  27.0370330  12.0765710  79.5331580  34.3197060
  11.5739310  80.2736980  34.6590870  12.8922370  79.9215580  34.0033850
  10.3687720  84.7764760  27.7658420   9.4277860  84.7914990  27.9406110
  10.6831790  83.9900720  28.2118720  12.3713300  91.9473610  29.4412680
  12.4960720  92.7704780  29.9136490  13.2378860  91.7364340  29.0936830
   2.9533140  93.2135130  20.9355380   3.7461750  93.5023960  20.4837170
   2.4337490  92.7827300  20.2567860   7.6853740  89.3330760  38.2490800
   7.0791900  89.3562360  37.5086550   7.3807850  88.6013800  38.7858050
   9.1154110  93.0611050  36.8600210  10.0675860  92.9769070  36.8100450
   8.9682330  93.7252760  37.5334000  12.0063310  92.4405260  22.3592120
  11.7204820  92.0270400  21.5446300  11.8082860  93.3692970  22.2392640
   3.4710540  88.4338540  20.7997730   3.3661180  87.8190890  21.5259110
   3.3034760  87.9104430  20.0160740   3.6224860  87.1195340  36.7786960
   2.8570530  87.6880340  36.6941630   3.8040820  86.8271550  35.8855190
   6.7113270  87.4958570  21.4039720   6.1623370  87.9427870  22.0482460
   7.3332530  86.9907820  21.9277390  10.7648210  88.8500670  37.3361980
  11.5057680  89.1876430  36.8329440  10.0020890  89.0192730  36.7831750
   2.3788390  86.4549490  23.3005020   2.8004810  86.2889360  24.1436410
   2.5039230  85.6449720  22.8060160   4.8916030  85.4787100  20.5482120
   5.4121690  84.7636120  20.1823270   5.5384430  86.1172970  20.8482630
   9.4393870  86.9015500  35.8717190   9.8534890  87.0560580  36.7207610
   8.5044870  87.0270720  36.0342970   9.9116040  84.2411660  37.8756340
  10.4936810  83.4863980  37.7876820  10.0877810  84.7719100  37.0987820
   3.7949550  77.9581650  33.2200680   3.3466850  77.9805910  32.3746230
   3.1614750  77.5600670  33.8170980   4.2009100  86.8535980  33.8413120
   4.6197210  87.6968710  33.6689360   3.2817730  86.9908020  33.6119900
   6.5373000  84.5852160  35.2250960   6.6569210  83.9893300  35.9645800
   7.3967000  84.6221850  34.8052260   8.8760900  85.1389350  33.8013470
   8.3496120  85.6631970  33.1978610   9.2192240  85.7716740  34.4323200
   3.3041770  81.1273510  36.4826780   3.8941460  80.8189360  37.1704600
   2.4862010  80.6553260  36.6386680   8.1235200  80.7439320  36.7159800
   7.4350720  80.0820860  36.6509790   8.8441220  80.2977590  37.1608260
   8.7535600  77.3390950  22.7750060   9.0337890  76.4958850  23.1309480
   7.9801330  77.5714060  23.2888810   3.2915020  78.5717960  21.2197260
   2.9437020  77.8941950  20.6399710   3.4927790  78.1107470  22.0340650
  12.4358410  92.0902380  35.5450060  11.8360400  92.1494940  34.8013980
  12.5652310  91.1507360  35.6746910  13.6759860  89.8320200  20.8819770
  12.8452820  89.8996850  21.3527000  13.8531690  90.7224320  20.5786630
  13.1316320  86.5767680  23.3853970  13.8935230  87.1464330  23.4913660
  13.1470690  86.0094880  24.1562280  14.1376290  87.4317780  28.2295900
  14.5085120  86.6485100  27.8231870  14.7778220  88.1206880  28.0513200
  11.1210050  88.8154360  33.6426220  10.3069890  89.2451520  33.9052010
  11.5284250  89.4272770  33.0295270  13.1835490  86.8702050  20.5426490
  13.4584330  87.7780930  20.4145710  12.9946230  86.8064580  21.4788480
   9.5811100  79.8946900  21.8380120   9.9995980  79.7077880  20.9976780
   9.2747160  79.0425950  22.1483050  13.0800830  84.8071040  25.5355920
  12.7044430  84.0398970  25.1037210  12.3503950  85.1893740  26.0230850
  12.4700450  83.9542560  35.1695440  12.2386540  83.7255310  34.2693390
  12.7305000  84.8742110  35.1240330  10.9088520  79.1798990  37.9475140
  11.7858700  79.1882390  38.3309140  10.9209360  78.4429830  37.3367490
  12.3551790  83.0328530  28.8363160  12.8789270  82.5391180  28.2053330
  12.9411210  83.1678890  29.5810730  12.5341510  83.1168400  32.3582710
  11.5844220  83.0831940  32.4727700  12.7154520  84.0268510  32.1232480
  11.8451760  82.2901880  24.7755570  12.3410880  82.0572750  25.5604450
  11.6467830  81.4513720  24.3593210  13.2738920  80.9262830  27.3093250
  13.1638200  80.7718870  28.2475520  14.0346510  80.3983770  27.0668660
  11.6204640  76.8656960  33.7676250  12.2576860  77.4791100  34.1335440
  11.7679530  76.9017620  32.8225480  14.1629190  78.7570750  20.5499390
  15.0878500  78.6251930  20.3417680  14.1404980  78.8363570  21.5035840
  14.2367680  79.5281410  23.1756100  13.4419180  79.4626530  23.7049010
  14.4410960  80.4632050  23.1641450  11.1786100  93.5672960  27.1694490
  11.7745170  93.2457530  26.4928910  11.4364250  93.0944780  27.9607760
   2.7854700  91.5550460  32.9194840   2.5446060  91.8225020  32.0325360
   3.7257340  91.7256190  32.9745700   4.9909120  78.0183150  36.6751350
   4.9298010  78.6104980  37.4246760   5.9309500  77.9109110  36.5301610
   7.6283680  77.6753210  36.3143640   8.2424090  77.9932500  35.6524720
   8.1733240  77.1901800  36.9339500   8.3691720  76.2385350  32.6412930
   7.4951560  76.5720460  32.4385860   8.2602470  75.7658530  33.4664800
   9.2763700  78.4456220  34.0254650   8.9477060  77.6307980  33.6456380
  10.2246000  78.4026030  33.9020340   2.1594030  92.5256500  30.1740350
   2.6759050  91.9143860  29.6488610   2.8091410  93.0285280  30.6651360
   4.8989530  93.4164990  31.0009330   5.1867340  93.1619290  30.1242340
   5.4112750  92.8642350  31.5914900   6.1166540  77.1555190  31.5805840
   5.3338330  77.6300690  31.8602600   5.8229470  76.2510020  31.4719020
  10.6687610  77.8578290  29.6254930  11.1095700  77.8023390  28.7776530
  10.3995200  78.7736300  29.6965110  12.5326180  77.4893530  27.6363750
  12.4714580  76.5454750  27.4894770  13.3118210  77.5973620  28.1817210
   4.0020760  79.5741940  27.0921870   3.1895270  79.1998830  26.7517750
   4.5062400  78.8187020  27.3943060   8.5045740  76.2384390  28.3304940
   9.1075110  76.8104600  28.8053460   7.7638730  76.8023830  28.1078840
  11.6480340  76.6405950  23.6045220  11.8430970  77.5389400  23.8712650
  10.8610210  76.4093030  24.0978170   2.0269940  77.7241860  25.6966920
   1.3972680  77.0229170  25.8637050   1.4875080  78.4845990  25.4800080
   2.1525500  77.0025840  38.1319410   1.8709770  77.5059440  37.3680230
   2.5345200  76.2047590  37.7661540   8.7540960  76.4179420  38.7099880
   8.6406410  76.7374030  39.6051400   9.5710700  76.8191930  38.4137160
   7.6599110  84.4371890   9.0734620   7.5793160  83.5226500   8.8026330
   7.2463530  84.9338960   8.3674330   5.7917150  86.2150910  10.9543890
   5.0159250  85.7351350  11.2442460   6.4430080  85.5356560  10.7800050
   9.8124580  90.6211100   9.7343020   9.3506110  89.8498340  10.0630190
  10.6250130  90.6477170  10.2395470   6.0387890  92.9069110   9.3547010
   5.4199330  93.3626610   8.7841450   6.8939670  93.0620570   8.9536710
   5.2326140  88.8908100  10.9614050   5.1634420  87.9498040  10.8003180
   5.9946000  88.9809510  11.5336620   6.2631310  81.6978480  11.1882980
   6.6396130  80.8250360  11.0756650   6.1650820  82.0337180  10.2973420
  10.0455430  79.1928920   8.1211320  10.8665050  78.7025490   8.1636800
  10.0789510  79.7826580   8.8743160   2.2344050  83.0390480  10.9825600
   2.7422270  83.5371450  11.6230620   2.7657290  82.2625680  10.8064960
  14.3354980  81.2095670  14.6854950  13.6307150  81.5977380  14.1670060
  14.6012900  81.9045960  15.2875880   6.9051240  87.7908350   6.7478920
   6.2868510  88.2557800   6.1841640   7.4174490  88.4835830   7.1648430
   1.7683000  87.3184220  13.4262520   1.4352380  87.9453140  14.0683590
   1.9449680  87.8446100  12.6464190  10.2816910  81.1329300  10.8938860
   9.5772480  81.4214190  11.4741970  10.6429070  81.9429410  10.5338420
  11.8979690  90.7504430  13.1566340  11.2143210  91.4203540  13.1483010
  12.4373980  90.9485080  12.3911200  13.3503830  80.5784090  11.2848070
  12.4028740  80.6123070  11.4163500  13.6753820  81.3923040  11.6697430
   3.8823370  76.8781270   9.5804060   4.1898350  76.3228160   8.8639560
   2.9524070  77.0125730   9.3977050   9.4338430  92.5948560  11.8711520
   9.4465590  92.1910850  11.0033780   8.8813650  93.3695850  11.7672950
  10.7283850  89.3164780   6.9601690  10.6180180  88.3739110   7.0851110
  10.7252100  89.6780420   7.8464450   8.8323870  87.4978400  13.1994130
   9.2492660  87.2838510  12.3647590   9.5563690  87.7551190  13.7702750
   6.2704130  84.9430100   6.3164180   5.3433410  84.8767480   6.5452650
   6.4228950  85.8810230   6.2019420   6.2573210  81.2147100   3.3131340
   5.3176880  81.3761060   3.3983800   6.5756470  81.9332780   2.7667330
  12.7785970  85.8965620  13.2910370  11.9504600  85.9658710  12.8160500
  13.3736450  86.4819930  12.8226200  10.3001420  86.5050400   6.8199430
   9.6813840  86.1669950   6.1725730  10.2825870  85.8610160   7.5278620
   9.7427980  82.6834940  14.2365240   9.3299160  83.5088650  14.4905230
   9.0103930  82.0979980  14.0441600   1.8760770  85.4694840   9.0983910
   1.4717770  84.7572090   8.6029810   1.9623890  85.1248080   9.9871950
   2.3442470  89.1562400  11.2623120   2.0470760  88.5507870  10.5830900
   3.2942290  89.1939710  11.1512480  10.4328080  92.7294270  14.9246220
   9.9558640  93.5366460  14.7318830   9.7489870  92.0772600  15.0772430
   8.4766120  85.7437210   3.8272180   8.9159400  84.9059640   3.6810000
   9.1894540  86.3766610   3.9136320   6.5861500  90.6833280   7.7953420
   7.0257410  91.4257610   7.3808810   6.5248390  90.9259850   8.7192380
   2.0612470  91.7079110  18.6973440   2.0327900  92.1122060  17.8301870
   1.8977440  90.7789470  18.5345040  12.0583260  76.9980020   2.1413220
  11.7455920  77.0906850   3.0412290  12.8195730  77.5761050   2.0910650
  14.0127290  92.4906210  19.9937610  14.4887010  92.9689100  20.6726690
  14.6334450  92.4223700  19.2683110  13.4160540  89.6819060  17.1537620
  13.5423600  89.4430940  16.2354800  13.4581920  88.8503600  17.6259700
   7.2777280  93.3847060  15.7232430   7.7921950  93.2955070  16.5254860
   6.4346360  93.7306760  16.0160340   9.2531680  93.6702400   5.1516430
   9.0932820  93.3805340   6.0498260   9.0878390  92.8942530   4.6161660
   8.9557810  91.1789960   3.7114430   8.2622970  91.1767250   3.0516710
   9.6980670  90.7549280   3.2808600   8.5207740  92.8052670   7.7862920
   8.9764690  92.0242050   8.1001540   8.8600260  93.5159490   8.3304100
  13.2684550  81.7351520  18.1187360  12.6528820  82.2431190  17.5902820
  12.9480970  80.8349850  18.0613300   5.3298870  80.5743410  15.5849550
   4.8678240  80.7826430  16.3969490   4.9276980  79.7602760  15.2820220
  10.3303380  81.7952360  16.7146210   9.4796970  81.4958110  17.0355280
  10.1705170  82.0394370  15.8030030   7.4253090  83.2954110  18.8145000
   7.7506500  82.4617860  18.4747230   8.2133420  83.8182630  18.9623330
   4.1587880  77.3285590   4.8620060   3.5342060  77.3245460   5.5873370
   4.0718000  76.4616550   4.4656030   3.0804960  78.2522220  11.8403830
   3.3777290  79.1585050  11.7595850   3.6290520  77.7641000  11.2263400
   8.0641040  82.8371830   6.3086130   7.4649930  83.5607630   6.1249750
   8.6120650  82.7748610   5.5262580   3.2742490  83.7294040  18.3755750
   3.1786090  82.7888770  18.2256150   4.1174470  83.9509110  17.9803820
   6.6705910  81.4735370   8.3389410   7.0635480  81.7907570   7.5258100
   7.0322760  80.5947250   8.4533930   4.9798080  80.2242680  19.5986270
   4.2896400  80.0314880  20.2332360   5.7230380  80.5077320  20.1310570
   7.2561050  84.0641120  12.4340190   6.5242170  84.5727930  12.7830290
   6.8585390  83.2471100  12.1328970   3.6938440  80.7395320  10.8392680
   3.6974500  80.2985270   9.9897220   4.5889560  81.0612650  10.9464500
   3.7558590  81.7407400   3.8299440   3.8771410  81.6993880   4.7785260
   3.3707100  82.6031550   3.6746170   7.7186960  79.5174800  11.8463130
   7.7359700  79.9683450  12.6904980   7.4702540  78.6180440  12.0596570
   2.7680090  84.0508540   3.2282740   2.1996990  83.6026790   2.6018650
   3.4769090  84.4101320   2.6947890  11.1457710  76.9306980  17.6849510
  11.4703480  76.1996640  18.2107490  11.1814220  76.6120620  16.7830500
   3.9946410  84.7997100  12.5858090   4.3616540  84.3255670  13.3319430
   3.8051470  85.6738670  12.9266430   1.7845780  83.8405740  14.9042300
   1.4802850  84.7197720  15.1292660   2.7392240  83.9005530  14.9399740
  11.0715550  87.0432090  11.2935540  11.7914670  87.5387380  10.9031650
  10.8697370  86.3649980  10.6489410   6.5325490  78.4370050   5.4364930
   5.7190100  77.9383220   5.3610240   6.3387440  79.2768300   5.0201280
   6.4534350  87.1141150  17.1804540   6.3871660  86.1936820  16.9262130
   5.8239490  87.2116590  17.8949180   9.2473880  82.8089700   3.7327090
  10.1353500  83.1206930   3.5578430   9.2178970  81.9361950   3.3407670
   5.2434470  88.9813390   4.4115260   5.5850170  89.7255620   3.9158580
   4.4147180  89.2944510   4.7740090   6.3851080  89.9361720  16.9308340
   6.3995620  89.0042680  16.7127250   5.6776180  90.0221480  17.5698110
  11.5188150  84.1201540   3.2006950  11.4351870  84.5515760   2.3503390
  12.2382340  84.5799890   3.6333770  12.5962290  86.5769060  16.2776920
  11.8710480  87.1697840  16.0806310  13.1237750  86.5692600  15.4790290
  12.5475400  90.9743800   5.9289080  11.9051560  90.3199420   6.2032800
  12.1606060  91.3798890   5.1529750   8.1261880  88.3029230   9.7760770
   8.4785700  87.7057360   9.1162140   7.2424210  87.9773460   9.9469020
   4.2125160  89.0626920   7.1831180   4.8996290  89.6096130   7.5638770
   3.4257580  89.6067650   7.2180790   3.5152370  86.0672950   6.7956540
   3.9715150  86.8778200   7.0216730   3.1640580  85.7496090   7.6275030
   5.8184980  91.5779290  14.0248840   6.4627200  91.7838670  14.7022260
   6.1814420  90.8167690  13.5719690   7.0917060  89.5811640  12.7426290
   7.7339290  88.8804800  12.8558460   7.6166410  90.3610080  12.5623180
  10.9372780  89.8660260   2.4665430  10.7110360  89.1490700   3.0590070
  10.5468980  89.6172700   1.6287180   8.8654680  90.3806540  15.9462350
   9.2010920  90.9673230  16.6240270   7.9455020  90.2499250  16.1760140
  10.5189030  87.7832200   4.1279590  10.2310730  88.2444890   4.9157470
  11.3141200  87.3229970   4.3963810   4.6943260  90.4297870  19.1150410
   4.3740130  89.7107110  19.6596100   4.0201620  91.1052940  19.1886470
   2.7357430  91.2758320   4.0583560   2.7267530  92.0088010   3.4428070
   1.8155790  91.0289900   4.1510520   7.9096860  80.6624030  14.4787210
   8.2777680  79.8419240  14.8066780   7.0495060  80.7225920  14.8942860
  11.2758890  79.6180970   5.2874770  10.6472050  79.7226640   4.5733000
  10.7810810  79.8377750   6.0768650   5.7217030  91.3386560   2.7208750
   5.8229010  91.1350550   1.7910730   4.8218770  91.0844840   2.9256530
   3.2442920  81.8966920   6.7032650   2.5359070  82.3653260   7.1446260
   3.5287400  81.2388930   7.3377840   4.8698850  83.3163620  14.7025180
   5.3684100  83.7909440  15.3677030   5.0121800  82.3927140  14.9095210
   7.2758350  78.6217580   8.1428440   7.1526130  78.6403710   7.1937950
   8.2242910  78.6696520   8.2626840  12.0765710  79.5331580  15.5453570
  11.5739310  80.2736980  15.8847380  12.8922370  79.9215580  15.2290360
  10.3687720  84.7764760   8.9914930   9.4277860  84.7914990   9.1662620
  10.6831790  83.9900720   9.4375230  12.3713300  91.9473610  10.6669190
  12.4960720  92.7704780  11.1393000  13.2378860  91.7364340  10.3193340
   7.6853740  89.3330760  19.4747310   7.0791900  89.3562360  18.7343060
   7.3807850  88.6013800  20.0114560   9.1154110  93.0611050  18.0856720
  10.0675860  92.9769070  18.0356960   8.9682330  93.7252760  18.7590510
  12.0063310  92.4405260   3.5848630  11.7204820  92.0270400   2.7702810
  11.8082860  93.3692970   3.4649150   3.6224860  87.1195340  18.0043470
   2.8570530  87.6880340  17.9198140   3.8040820  86.8271550  17.1111700
   6.7113270  87.4958570   2.6296230   6.1623370  87.9427870   3.2738970
   7.3332530  86.9907820   3.1533900  10.7648210  88.8500670  18.5618490
  11.5057680  89.1876430  18.0585950  10.0020890  89.0192730  18.0088260
   2.3788390  86.4549490   4.5261530   2.8004810  86.2889360   5.3692920
   2.5039230  85.6449720   4.0316670   9.4393870  86.9015500  17.0973700
   9.8534890  87.0560580  17.9464120   8.5044870  87.0270720  17.2599480
   9.9116040  84.2411660  19.1012850  10.4936810  83.4863980  19.0133330
  10.0877810  84.7719100  18.3244330   3.7949550  77.9581650  14.4457190
   3.3466850  77.9805910  13.6002740   3.1614750  77.5600670  15.0427490
   4.2009100  86.8535980  15.0669630   4.6197210  87.6968710  14.8945870
   3.2817730  86.9908020  14.8376410   6.5373000  84.5852160  16.4507470
   6.6569210  83.9893300  17.1902310   7.3967000  84.6221850  16.0308770
   8.8760900  85.1389350  15.0269980   8.3496120  85.6631970  14.4235120
   9.2192240  85.7716740  15.6579710   3.3041770  81.1273510  17.7083290
   3.8941460  80.8189360  18.3961110   2.4862010  80.6553260  17.8643190
   8.1235200  80.7439320  17.9416310   7.4350720  80.0820860  17.8766300
   8.8441220  80.2977590  18.3864770   8.7535600  77.3390950   4.0006570
   9.0337890  76.4958850   4.3565990   7.9801330  77.5714060   4.5145320
   3.2915020  78.5717960   2.4453770   2.9437020  77.8941950   1.8656220
   3.4927790  78.1107470   3.2597160  12.4358410  92.0902380  16.7706570
  11.8360400  92.1494940  16.0270490  12.5652310  91.1507360  16.9003420
  13.6759860  89.8320200   2.1076280  12.8452820  89.8996850   2.5783510
  13.8531690  90.7224320   1.8043140  13.1316320  86.5767680   4.6110480
  13.8935230  87.1464330   4.7170170  13.1470690  86.0094880   5.3818790
  14.1376290  87.4317780   9.4552410  14.5085120  86.6485100   9.0488380
  14.7778220  88.1206880   9.2769710  11.1210050  88.8154360  14.8682730
  10.3069890  89.2451520  15.1308520  11.5284250  89.4272770  14.2551780
  13.1835490  86.8702050   1.7683000  13.4584330  87.7780930   1.6402220
  12.9946230  86.8064580   2.7044990   9.5811100  79.8946900   3.0636630
   9.9995980  79.7077880   2.2233290   9.2747160  79.0425950   3.3739560
  13.0800830  84.8071040   6.7612430  12.7044430  84.0398970   6.3293720
  12.3503950  85.1893740   7.2487360  12.4700450  83.9542560  16.3951950
  12.2386540  83.7255310  15.4949900  12.7305000  84.8742110  16.3496840
  10.9088520  79.1798990  19.1731650  11.7858700  79.1882390  19.5565650
  10.9209360  78.4429830  18.5624000  12.3551790  83.0328530  10.0619670
  12.8789270  82.5391180   9.4309840  12.9411210  83.1678890  10.8067240
  12.5341510  83.1168400  13.5839220  11.5844220  83.0831940  13.6984210
  12.7154520  84.0268510  13.3488990  11.8451760  82.2901880   6.0012080
  12.3410880  82.0572750   6.7860960  11.6467830  81.4513720   5.5849720
  13.2738920  80.9262830   8.5349760  13.1638200  80.7718870   9.4732030
  14.0346510  80.3983770   8.2925170  11.6204640  76.8656960  14.9932760
  12.2576860  77.4791100  15.3591950  11.7679530  76.9017620  14.0481990
  14.1629190  78.7570750   1.7755900  15.0878500  78.6251930   1.5674190
  14.1404980  78.8363570   2.7292350  14.2367680  79.5281410   4.4012610
  13.4419180  79.4626530   4.9305520  14.4410960  80.4632050   4.3897960
  11.1786100  93.5672960   8.3951000  11.7745170  93.2457530   7.7185420
  11.4364250  93.0944780   9.1864270   2.7854700  91.5550460  14.1451350
   2.5446060  91.8225020  13.2581870   3.7257340  91.7256190  14.2002210
   4.9909120  78.0183150  17.9007860   4.9298010  78.6104980  18.6503270
   5.9309500  77.9109110  17.7558120   7.6283680  77.6753210  17.5400150
   8.2424090  77.9932500  16.8781230   8.1733240  77.1901800  18.1596010
   8.3691720  76.2385350  13.8669440   7.4951560  76.5720460  13.6642370
   8.2602470  75.7658530  14.6921310   9.2763700  78.4456220  15.2511160
   8.9477060  77.6307980  14.8712890  10.2246000  78.4026030  15.1276850
   2.1594030  92.5256500  11.3996860   2.6759050  91.9143860  10.8745120
   2.8091410  93.0285280  11.8907870   4.8989530  93.4164990  12.2265840
   5.1867340  93.1619290  11.3498850   5.4112750  92.8642350  12.8171410
   6.1166540  77.1555190  12.8062350   5.3338330  77.6300690  13.0859110
   5.8229470  76.2510020  12.6975530  10.6687610  77.8578290  10.8511440
  11.1095700  77.8023390  10.0033040  10.3995200  78.7736300  10.9221620
  12.5326180  77.4893530   8.8620260  12.4714580  76.5454750   8.7151280
  13.3118210  77.5973620   9.4073720   4.0020760  79.5741940   8.3178380
   3.1895270  79.1998830   7.9774260   4.5062400  78.8187020   8.6199570
   8.5045740  76.2384390   9.5561450   9.1075110  76.8104600  10.0309970
   7.7638730  76.8023830   9.3335350  11.6480340  76.6405950   4.8301730
  11.8430970  77.5389400   5.0969160  10.8610210  76.4093030   5.3234680
   2.0269940  77.7241860   6.9223430   1.3972680  77.0229170   7.0893560
   1.4875080  78.4845990   6.7056590   2.1525500  77.0025840  19.3575920
   1.8709770  77.5059440  18.5936740   2.5345200  76.2047590  18.9918050
   8.7540960  76.4179420  19.9356390   8.6406410  76.7374030  20.8307910
   9.5710700  76.8191930  19.6393670   7.6599110  65.6628400  65.3965090
   7.5793160  64.7483010  65.1256800   7.2463530  66.1595470  64.6904800
   5.7917150  67.4407420  67.2774360   5.0159250  66.9607860  67.5672930
   6.4430080  66.7613070  67.1030520   9.8124580  71.8467610  66.0573490
   9.3506110  71.0754850  66.3860660  10.6250130  71.8733680  66.5625940
   6.0387890  74.1325620  65.6777480   5.4199330  74.5883120  65.1071920
   6.8939670  74.2877080  65.2767180   5.2326140  70.1164610  67.2844520
   5.1634420  69.1754550  67.1233650   5.9946000  70.2066020  67.8567090
   6.2631310  62.9234990  67.5113450   6.6396130  62.0506870  67.3987120
   6.1650820  63.2593690  66.6203890  10.0455430  60.4185430  64.4441790
  10.8665050  59.9282000  64.4867270  10.0789510  61.0083090  65.1973630
   2.2344050  64.2646990  67.3056070   2.7422270  64.7627960  67.9461090
   2.7657290  63.4882190  67.1295430  14.3354980  62.4352180  71.0085420
  13.6307150  62.8233890  70.4900530  14.6012900  63.1302470  71.6106350
   6.9051240  69.0164860  63.0709390   6.2868510  69.4814310  62.5072110
   7.4174490  69.7092340  63.4878900   1.7683000  68.5440730  69.7492990
   1.4352380  69.1709650  70.3914060   1.9449680  69.0702610  68.9694660
  10.2816910  62.3585810  67.2169330   9.5772480  62.6470700  67.7972440
  10.6429070  63.1685920  66.8568890  11.8979690  71.9760940  69.4796810
  11.2143210  72.6460050  69.4713480  12.4373980  72.1741590  68.7141670
  13.3503830  61.8040600  67.6078540  12.4028740  61.8379580  67.7393970
  13.6753820  62.6179550  67.9927900   3.8823370  58.1037780  65.9034530
   4.1898350  57.5484670  65.1870030   2.9524070  58.2382240  65.7207520
   9.4338430  73.8205070  68.1941990   9.4465590  73.4167360  67.3264250
   8.8813650  74.5952360  68.0903420  10.7283850  70.5421290  63.2832160
  10.6180180  69.5995620  63.4081580  10.7252100  70.9036930  64.1694920
   8.8323870  68.7234910  69.5224600   9.2492660  68.5095020  68.6878060
   9.5563690  68.9807700  70.0933220   6.2704130  66.1686610  62.6394650
   5.3433410  66.1023990  62.8683120   6.4228950  67.1066740  62.5249890
   6.2573210  62.4403610  59.6361810   5.3176880  62.6017570  59.7214270
   6.5756470  63.1589290  59.0897800  12.7785970  67.1222130  69.6140840
  11.9504600  67.1915220  69.1390970  13.3736450  67.7076440  69.1456670
  10.3001420  67.7306910  63.1429900   9.6813840  67.3926460  62.4956200
  10.2825870  67.0866670  63.8509090   9.7427980  63.9091450  70.5595710
   9.3299160  64.7345160  70.8135700   9.0103930  63.3236490  70.3672070
   1.8760770  66.6951350  65.4214380   1.4717770  65.9828600  64.9260280
   1.9623890  66.3504590  66.3102420   2.3442470  70.3818910  67.5853590
   2.0470760  69.7764380  66.9061370   3.2942290  70.4196220  67.4742950
  10.4328080  73.9550780  71.2476690   9.9558640  74.7622970  71.0549300
   9.7489870  73.3029110  71.4002900   8.4766120  66.9693720  60.1502650
   8.9159400  66.1316150  60.0040470   9.1894540  67.6023120  60.2366790
   6.5861500  71.9089790  64.1183890   7.0257410  72.6514120  63.7039280
   6.5248390  72.1516360  65.0422850   2.0612470  72.9335620  75.0203910
   2.0327900  73.3378570  74.1532340   1.8977440  72.0045980  74.8575510
  12.0583260  58.2236530  58.4643690  11.7455920  58.3163360  59.3642760
  12.8195730  58.8017560  58.4141120  13.4160540  70.9075570  73.4768090
  13.5423600  70.6687450  72.5585270  13.4581920  70.0760110  73.9490170
   7.2777280  74.6103570  72.0462900   7.7921950  74.5211580  72.8485330
   6.4346360  74.9563270  72.3390810   9.2531680  74.8958910  61.4746900
   9.0932820  74.6061850  62.3728730   9.0878390  74.1199040  60.9392130
   8.9557810  72.4046470  60.0344900   8.2622970  72.4023760  59.3747180
   9.6980670  71.9805790  59.6039070   8.5207740  74.0309180  64.1093390
   8.9764690  73.2498560  64.4232010   8.8600260  74.7416000  64.6534570
  13.2684550  62.9608030  74.4417830  12.6528820  63.4687700  73.9133290
  12.9480970  62.0606360  74.3843770   5.3298870  61.7999920  71.9080020
   4.8678240  62.0082940  72.7199960   4.9276980  60.9859270  71.6050690
  10.3303380  63.0208870  73.0376680   9.4796970  62.7214620  73.3585750
  10.1705170  63.2650880  72.1260500   7.4253090  64.5210620  75.1375470
   7.7506500  63.6874370  74.7977700   8.2133420  65.0439140  75.2853800
   4.1587880  58.5542100  61.1850530   3.5342060  58.5501970  61.9103840
   4.0718000  57.6873060  60.7886500   3.0804960  59.4778730  68.1634300
   3.3777290  60.3841560  68.0826320   3.6290520  58.9897510  67.5493870
   8.0641040  64.0628340  62.6316600   7.4649930  64.7864140  62.4480220
   8.6120650  64.0005120  61.8493050   3.2742490  64.9550550  74.6986220
   3.1786090  64.0145280  74.5486620   4.1174470  65.1765620  74.3034290
   6.6705910  62.6991880  64.6619880   7.0635480  63.0164080  63.8488570
   7.0322760  61.8203760  64.7764400   7.2561050  65.2897630  68.7570660
   6.5242170  65.7984440  69.1060760   6.8585390  64.4727610  68.4559440
   3.6938440  61.9651830  67.1623150   3.6974500  61.5241780  66.3127690
   4.5889560  62.2869160  67.2694970   3.7558590  62.9663910  60.1529910
   3.8771410  62.9250390  61.1015730   3.3707100  63.8288060  59.9976640
   7.7186960  60.7431310  68.1693600   7.7359700  61.1939960  69.0135450
   7.4702540  59.8436950  68.3827040   2.7680090  65.2765050  59.5513210
   2.1996990  64.8283300  58.9249120   3.4769090  65.6357830  59.0178360
  11.1457710  58.1563490  74.0079980  11.4703480  57.4253150  74.5337960
  11.1814220  57.8377130  73.1060970   3.9946410  66.0253610  68.9088560
   4.3616540  65.5512180  69.6549900   3.8051470  66.8995180  69.2496900
   1.7845780  65.0662250  71.2272770   1.4802850  65.9454230  71.4523130
   2.7392240  65.1262040  71.2630210  11.0715550  68.2688600  67.6166010
  11.7914670  68.7643890  67.2262120  10.8697370  67.5906490  66.9719880
   6.5325490  59.6626560  61.7595400   5.7190100  59.1639730  61.6840710
   6.3387440  60.5024810  61.3431750   6.4534350  68.3397660  73.5035010
   6.3871660  67.4193330  73.2492600   5.8239490  68.4373100  74.2179650
   9.2473880  64.0346210  60.0557560  10.1353500  64.3463440  59.8808900
   9.2178970  63.1618460  59.6638140   5.2434470  70.2069900  60.7345730
   5.5850170  70.9512130  60.2389050   4.4147180  70.5201020  61.0970560
   6.3851080  71.1618230  73.2538810   6.3995620  70.2299190  73.0357720
   5.6776180  71.2477990  73.8928580  11.5188150  65.3458050  59.5237420
  11.4351870  65.7772270  58.6733860  12.2382340  65.8056400  59.9564240
  12.5962290  67.8025570  72.6007390  11.8710480  68.3954350  72.4036780
  13.1237750  67.7949110  71.8020760  12.5475400  72.2000310  62.2519550
  11.9051560  71.5455930  62.5263270  12.1606060  72.6055400  61.4760220
   8.1261880  69.5285740  66.0991240   8.4785700  68.9313870  65.4392610
   7.2424210  69.2029970  66.2699490   4.2125160  70.2883430  63.5061650
   4.8996290  70.8352640  63.8869240   3.4257580  70.8324160  63.5411260
   3.5152370  67.2929460  63.1187010   3.9715150  68.1034710  63.3447200
   3.1640580  66.9752600  63.9505500   5.8184980  72.8035800  70.3479310
   6.4627200  73.0095180  71.0252730   6.1814420  72.0424200  69.8950160
   7.0917060  70.8068150  69.0656760   7.7339290  70.1061310  69.1788930
   7.6166410  71.5866590  68.8853650  10.9372780  71.0916770  58.7895900
  10.7110360  70.3747210  59.3820540  10.5468980  70.8429210  57.9517650
   8.8654680  71.6063050  72.2692820   9.2010920  72.1929740  72.9470740
   7.9455020  71.4755760  72.4990610  10.5189030  69.0088710  60.4510060
  10.2310730  69.4701400  61.2387940  11.3141200  68.5486480  60.7194280
   4.6943260  71.6554380  75.4380880   4.3740130  70.9363620  75.9826570
   4.0201620  72.3309450  75.5116940   2.7357430  72.5014830  60.3814030
   2.7267530  73.2344520  59.7658540   1.8155790  72.2546410  60.4740990
   7.9096860  61.8880540  70.8017680   8.2777680  61.0675750  71.1297250
   7.0495060  61.9482430  71.2173330  11.2758890  60.8437480  61.6105240
  10.6472050  60.9483150  60.8963470  10.7810810  61.0634260  62.3999120
   5.7217030  72.5643070  59.0439220   5.8229010  72.3607060  58.1141200
   4.8218770  72.3101350  59.2487000   3.2442920  63.1223430  63.0263120
   2.5359070  63.5909770  63.4676730   3.5287400  62.4645440  63.6608310
   4.8698850  64.5420130  71.0255650   5.3684100  65.0165950  71.6907500
   5.0121800  63.6183650  71.2325680   7.2758350  59.8474090  64.4658910
   7.1526130  59.8660220  63.5168420   8.2242910  59.8953030  64.5857310
   4.3635140  75.0829390  63.7386890   4.6176640  75.0450780  62.8166260
   3.4147620  74.9562720  63.7315140  12.0765710  60.7588090  71.8684040
  11.5739310  61.4993490  72.2077850  12.8922370  61.1472090  71.5520830
  10.3687720  66.0021270  65.3145400   9.4277860  66.0171500  65.4893090
  10.6831790  65.2157230  65.7605700  12.3713300  73.1730120  66.9899660
  12.4960720  73.9961290  67.4623470  13.2378860  72.9620850  66.6423810
   2.9533140  74.4391640  58.4842360   3.7461750  74.7280470  58.0324150
   2.4337490  74.0083810  57.8054840   9.1154110  74.2867560  74.4087190
  10.0675860  74.2025580  74.3587430   8.9682330  74.9509270  75.0820980
  12.0063310  73.6661770  59.9079100  11.7204820  73.2526910  59.0933280
  11.8082860  74.5949480  59.7879620   3.4710540  69.6595050  58.3484710
   3.3661180  69.0447400  59.0746090   3.3034760  69.1360940  57.5647720
   3.6224860  68.3451850  74.3273940   2.8570530  68.9136850  74.2428610
   3.8040820  68.0528060  73.4342170   6.7113270  68.7215080  58.9526700
   6.1623370  69.1684380  59.5969440   7.3332530  68.2164330  59.4764370
  10.7648210  70.0757180  74.8848960  11.5057680  70.4132940  74.3816420
  10.0020890  70.2449240  74.3318730   2.3788390  67.6806000  60.8492000
   2.8004810  67.5145870  61.6923390   2.5039230  66.8706230  60.3547140
   4.8916030  66.7043610  58.0969100   5.4121690  65.9892630  57.7310250
   5.5384430  67.3429480  58.3969610   9.4393870  68.1272010  73.4204170
   9.8534890  68.2817090  74.2694590   8.5044870  68.2527230  73.5829950
   9.9116040  65.4668170  75.4243320  10.4936810  64.7120490  75.3363800
  10.0877810  65.9975610  74.6474800   3.7949550  59.1838160  70.7687660
   3.3466850  59.2062420  69.9233210   3.1614750  58.7857180  71.3657960
   4.2009100  68.0792490  71.3900100   4.6197210  68.9225220  71.2176340
   3.2817730  68.2164530  71.1606880   6.5373000  65.8108670  72.7737940
   6.6569210  65.2149810  73.5132780   7.3967000  65.8478360  72.3539240
   8.8760900  66.3645860  71.3500450   8.3496120  66.8888480  70.7465590
   9.2192240  66.9973250  71.9810180   2.0516520  74.3845500  72.5057830
   1.5137610  75.1091560  72.1866530   2.3050480  73.9075840  71.7155170
   3.3041770  62.3530020  74.0313760   3.8941460  62.0445870  74.7191580
   2.4862010  61.8809770  74.1873660   8.1235200  61.9695830  74.2646780
   7.4350720  61.3077370  74.1996770   8.8441220  61.5234100  74.7095240
   8.7535600  58.5647460  60.3237040   9.0337890  57.7215360  60.6796460
   7.9801330  58.7970570  60.8375790   4.9078730  75.6196710  72.7644480
   4.8337430  76.5231850  73.0716850   4.0057570  75.3008610  72.7366550
   3.2915020  59.7974470  58.7684240   2.9437020  59.1198460  58.1886690
   3.4927790  59.3363980  59.5827630   5.4564060  74.7855220  60.3870840
   6.3514850  75.1240190  60.4089600   5.4881690  74.0634630  59.7595120
  12.4358410  73.3158890  73.0937040  11.8360400  73.3751450  72.3500960
  12.5652310  72.3763870  73.2233890  13.6759860  71.0576710  58.4306750
  12.8452820  71.1253360  58.9013980  13.8531690  71.9480830  58.1273610
  13.1316320  67.8024190  60.9340950  13.8935230  68.3720840  61.0400640
  13.1470690  67.2351390  61.7049260  14.1376290  68.6574290  65.7782880
  14.5085120  67.8741610  65.3718850  14.7778220  69.3463390  65.6000180
  11.1210050  70.0410870  71.1913200  10.3069890  70.4708030  71.4538990
  11.5284250  70.6529280  70.5782250  13.1835490  68.0958560  58.0913470
  13.4584330  69.0037440  57.9632690  12.9946230  68.0321090  59.0275460
   9.5811100  61.1203410  59.3867100   9.9995980  60.9334390  58.5463760
   9.2747160  60.2682460  59.6970030  13.0800830  66.0327550  63.0842900
  12.7044430  65.2655480  62.6524190  12.3503950  66.4150250  63.5717830
  12.4700450  65.1799070  72.7182420  12.2386540  64.9511820  71.8180370
  12.7305000  66.0998620  72.6727310  10.9088520  60.4055500  75.4962120
  11.7858700  60.4138900  75.8796120  10.9209360  59.6686340  74.8854470
  12.3551790  64.2585040  66.3850140  12.8789270  63.7647690  65.7540310
  12.9411210  64.3935400  67.1297710  12.5341510  64.3424910  69.9069690
  11.5844220  64.3088450  70.0214680  12.7154520  65.2525020  69.6719460
  11.8451760  63.5158390  62.3242550  12.3410880  63.2829260  63.1091430
  11.6467830  62.6770230  61.9080190  13.2738920  62.1519340  64.8580230
  13.1638200  61.9975380  65.7962500  14.0346510  61.6240280  64.6155640
  11.6204640  58.0913470  71.3163230  12.2576860  58.7047610  71.6822420
  11.7679530  58.1274130  70.3712460  14.1629190  59.9827260  58.0986370
  15.0878500  59.8508440  57.8904660  14.1404980  60.0620080  59.0522820
  14.2367680  60.7537920  60.7243080  13.4419180  60.6883040  61.2535990
  14.4410960  61.6888560  60.7128430  11.1786100  74.7929470  64.7181470
  11.7745170  74.4714040  64.0415890  11.4364250  74.3201290  65.5094740
   2.7854700  72.7806970  70.4681820   2.5446060  73.0481530  69.5812340
   3.7257340  72.9512700  70.5232680   4.9909120  59.2439660  74.2238330
   4.9298010  59.8361490  74.9733740   5.9309500  59.1365620  74.0788590
   7.6283680  58.9009720  73.8630620   8.2424090  59.2189010  73.2011700
   8.1733240  58.4158310  74.4826480  14.0458860  74.8001350  71.2692460
  13.5517140  75.1970220  70.5519590  13.4372150  74.1750560  71.6629740
   8.3691720  57.4641860  70.1899910   7.4951560  57.7976970  69.9872840
   8.2602470  56.9915040  71.0151780   9.2763700  59.6712730  71.5741630
   8.9477060  58.8564490  71.1943360  10.2246000  59.6282540  71.4507320
  11.7298310  75.4424770  68.5479200  11.2701280  76.1940580  68.1737220
  11.1010770  74.7231240  68.4894000   2.1594030  73.7513010  67.7227330
   2.6759050  73.1400370  67.1975590   2.8091410  74.2541790  68.2138340
   4.8989530  74.6421500  68.5496310   5.1867340  74.3875800  67.6729320
   5.4112750  74.0898860  69.1401880   6.1166540  58.3811700  69.1292820
   5.3338330  58.8557200  69.4089580   5.8229470  57.4766530  69.0206000
  10.6687610  59.0834800  67.1741910  11.1095700  59.0279900  66.3263510
  10.3995200  59.9992810  67.2452090  12.5326180  58.7150040  65.1850730
  12.4714580  57.7711260  65.0381750  13.3118210  58.8230130  65.7304190
   4.0020760  60.7998450  64.6408850   3.1895270  60.4255340  64.3004730
   4.5062400  60.0443530  64.9430040   8.5045740  57.4640900  65.8791920
   9.1075110  58.0361110  66.3540440   7.7638730  58.0280340  65.6565820
  11.6480340  57.8662460  61.1532200  11.8430970  58.7645910  61.4199630
  10.8610210  57.6349540  61.6465150   2.0269940  58.9498370  63.2453900
   1.3972680  58.2485680  63.4124030   1.4875080  59.7102500  63.0287060
   4.9661890  75.5637600  75.9164510   5.8929200  75.3281870  75.9600470
   4.9512320  76.3909600  75.4350540  13.2006950  75.1063170  62.9138760
  13.3759140  74.4200910  62.2699680  12.5028520  75.6310220  62.5215430
   2.1525500  58.2282350  75.6806390   1.8709770  58.7315950  74.9167210
   2.5345200  57.4304100  75.3148520   7.6599110  65.6628400  46.6221600
   7.5793160  64.7483010  46.3513310   7.2463530  66.1595470  45.9161310
   5.7917150  67.4407420  48.5030870   5.0159250  66.9607860  48.7929440
   6.4430080  66.7613070  48.3287030   9.8124580  71.8467610  47.2830000
   9.3506110  71.0754850  47.6117170  10.6250130  71.8733680  47.7882450
   6.0387890  74.1325620  46.9033990   5.4199330  74.5883120  46.3328430
   6.8939670  74.2877080  46.5023690   5.2326140  70.1164610  48.5101030
   5.1634420  69.1754550  48.3490160   5.9946000  70.2066020  49.0823600
   6.2631310  62.9234990  48.7369960   6.6396130  62.0506870  48.6243630
   6.1650820  63.2593690  47.8460400  10.0455430  60.4185430  45.6698300
  10.8665050  59.9282000  45.7123780  10.0789510  61.0083090  46.4230140
   2.2344050  64.2646990  48.5312580   2.7422270  64.7627960  49.1717600
   2.7657290  63.4882190  48.3551940  14.3354980  62.4352180  52.2341930
  13.6307150  62.8233890  51.7157040  14.6012900  63.1302470  52.8362860
   6.9051240  69.0164860  44.2965900   6.2868510  69.4814310  43.7328620
   7.4174490  69.7092340  44.7135410   1.7683000  68.5440730  50.9749500
   1.4352380  69.1709650  51.6170570   1.9449680  69.0702610  50.1951170
  10.2816910  62.3585810  48.4425840   9.5772480  62.6470700  49.0228950
  10.6429070  63.1685920  48.0825400  11.8979690  71.9760940  50.7053320
  11.2143210  72.6460050  50.6969990  12.4373980  72.1741590  49.9398180
  13.3503830  61.8040600  48.8335050  12.4028740  61.8379580  48.9650480
  13.6753820  62.6179550  49.2184410   3.8823370  58.1037780  47.1291040
   4.1898350  57.5484670  46.4126540   2.9524070  58.2382240  46.9464030
   9.4338430  73.8205070  49.4198500   9.4465590  73.4167360  48.5520760
   8.8813650  74.5952360  49.3159930  10.7283850  70.5421290  44.5088670
  10.6180180  69.5995620  44.6338090  10.7252100  70.9036930  45.3951430
   8.8323870  68.7234910  50.7481110   9.2492660  68.5095020  49.9134570
   9.5563690  68.9807700  51.3189730   6.2704130  66.1686610  43.8651160
   5.3433410  66.1023990  44.0939630   6.4228950  67.1066740  43.7506400
   6.2573210  62.4403610  40.8618320   5.3176880  62.6017570  40.9470780
   6.5756470  63.1589290  40.3154310  12.7785970  67.1222130  50.8397350
  11.9504600  67.1915220  50.3647480  13.3736450  67.7076440  50.3713180
  10.3001420  67.7306910  44.3686410   9.6813840  67.3926460  43.7212710
  10.2825870  67.0866670  45.0765600   9.7427980  63.9091450  51.7852220
   9.3299160  64.7345160  52.0392210   9.0103930  63.3236490  51.5928580
   1.8760770  66.6951350  46.6470890   1.4717770  65.9828600  46.1516790
   1.9623890  66.3504590  47.5358930   2.3442470  70.3818910  48.8110100
   2.0470760  69.7764380  48.1317880   3.2942290  70.4196220  48.6999460
  10.4328080  73.9550780  52.4733200   9.9558640  74.7622970  52.2805810
   9.7489870  73.3029110  52.6259410   8.4766120  66.9693720  41.3759160
   8.9159400  66.1316150  41.2296980   9.1894540  67.6023120  41.4623300
   6.5861500  71.9089790  45.3440400   7.0257410  72.6514120  44.9295790
   6.5248390  72.1516360  46.2679360   2.0612470  72.9335620  56.2460420
   2.0327900  73.3378570  55.3788850   1.8977440  72.0045980  56.0832020
  12.0583260  58.2236530  39.6900200  11.7455920  58.3163360  40.5899270
  12.8195730  58.8017560  39.6397630  14.0127290  73.7162720  57.5424590
  14.4887010  74.1945610  58.2213670  14.6334450  73.6480210  56.8170090
  13.4160540  70.9075570  54.7024600  13.5423600  70.6687450  53.7841780
  13.4581920  70.0760110  55.1746680   7.2777280  74.6103570  53.2719410
   7.7921950  74.5211580  54.0741840   6.4346360  74.9563270  53.5647320
   9.2531680  74.8958910  42.7003410   9.0932820  74.6061850  43.5985240
   9.0878390  74.1199040  42.1648640   8.9557810  72.4046470  41.2601410
   8.2622970  72.4023760  40.6003690   9.6980670  71.9805790  40.8295580
   8.5207740  74.0309180  45.3349900   8.9764690  73.2498560  45.6488520
   8.8600260  74.7416000  45.8791080  13.2684550  62.9608030  55.6674340
  12.6528820  63.4687700  55.1389800  12.9480970  62.0606360  55.6100280
   5.3298870  61.7999920  53.1336530   4.8678240  62.0082940  53.9456470
   4.9276980  60.9859270  52.8307200  10.3303380  63.0208870  54.2633190
   9.4796970  62.7214620  54.5842260  10.1705170  63.2650880  53.3517010
   7.4253090  64.5210620  56.3631980   7.7506500  63.6874370  56.0234210
   8.2133420  65.0439140  56.5110310   4.1587880  58.5542100  42.4107040
   3.5342060  58.5501970  43.1360350   4.0718000  57.6873060  42.0143010
   3.0804960  59.4778730  49.3890810   3.3777290  60.3841560  49.3082830
   3.6290520  58.9897510  48.7750380   8.0641040  64.0628340  43.8573110
   7.4649930  64.7864140  43.6736730   8.6120650  64.0005120  43.0749560
   3.2742490  64.9550550  55.9242730   3.1786090  64.0145280  55.7743130
   4.1174470  65.1765620  55.5290800   6.6705910  62.6991880  45.8876390
   7.0635480  63.0164080  45.0745080   7.0322760  61.8203760  46.0020910
   4.9798080  61.4499190  57.1473250   4.2896400  61.2571390  57.7819340
   5.7230380  61.7333830  57.6797550   7.2561050  65.2897630  49.9827170
   6.5242170  65.7984440  50.3317270   6.8585390  64.4727610  49.6815950
   3.6938440  61.9651830  48.3879660   3.6974500  61.5241780  47.5384200
   4.5889560  62.2869160  48.4951480   3.7558590  62.9663910  41.3786420
   3.8771410  62.9250390  42.3272240   3.3707100  63.8288060  41.2233150
   7.7186960  60.7431310  49.3950110   7.7359700  61.1939960  50.2391960
   7.4702540  59.8436950  49.6083550   2.7680090  65.2765050  40.7769720
   2.1996990  64.8283300  40.1505630   3.4769090  65.6357830  40.2434870
  11.1457710  58.1563490  55.2336490  11.4703480  57.4253150  55.7594470
  11.1814220  57.8377130  54.3317480   3.9946410  66.0253610  50.1345070
   4.3616540  65.5512180  50.8806410   3.8051470  66.8995180  50.4753410
   1.7845780  65.0662250  52.4529280   1.4802850  65.9454230  52.6779640
   2.7392240  65.1262040  52.4886720  11.0715550  68.2688600  48.8422520
  11.7914670  68.7643890  48.4518630  10.8697370  67.5906490  48.1976390
   6.5325490  59.6626560  42.9851910   5.7190100  59.1639730  42.9097220
   6.3387440  60.5024810  42.5688260   6.4534350  68.3397660  54.7291520
   6.3871660  67.4193330  54.4749110   5.8239490  68.4373100  55.4436160
   9.2473880  64.0346210  41.2814070  10.1353500  64.3463440  41.1065410
   9.2178970  63.1618460  40.8894650   5.2434470  70.2069900  41.9602240
   5.5850170  70.9512130  41.4645560   4.4147180  70.5201020  42.3227070
   6.3851080  71.1618230  54.4795320   6.3995620  70.2299190  54.2614230
   5.6776180  71.2477990  55.1185090  11.5188150  65.3458050  40.7493930
  11.4351870  65.7772270  39.8990370  12.2382340  65.8056400  41.1820750
  12.5962290  67.8025570  53.8263900  11.8710480  68.3954350  53.6293290
  13.1237750  67.7949110  53.0277270  12.5475400  72.2000310  43.4776060
  11.9051560  71.5455930  43.7519780  12.1606060  72.6055400  42.7016730
   8.1261880  69.5285740  47.3247750   8.4785700  68.9313870  46.6649120
   7.2424210  69.2029970  47.4956000   4.2125160  70.2883430  44.7318160
   4.8996290  70.8352640  45.1125750   3.4257580  70.8324160  44.7667770
   3.5152370  67.2929460  44.3443520   3.9715150  68.1034710  44.5703710
   3.1640580  66.9752600  45.1762010   5.8184980  72.8035800  51.5735820
   6.4627200  73.0095180  52.2509240   6.1814420  72.0424200  51.1206670
   7.0917060  70.8068150  50.2913270   7.7339290  70.1061310  50.4045440
   7.6166410  71.5866590  50.1110160  10.9372780  71.0916770  40.0152410
  10.7110360  70.3747210  40.6077050  10.5468980  70.8429210  39.1774160
   8.8654680  71.6063050  53.4949330   9.2010920  72.1929740  54.1727250
   7.9455020  71.4755760  53.7247120  10.5189030  69.0088710  41.6766570
  10.2310730  69.4701400  42.4644450  11.3141200  68.5486480  41.9450790
   4.6943260  71.6554380  56.6637390   4.3740130  70.9363620  57.2083080
   4.0201620  72.3309450  56.7373450   2.7357430  72.5014830  41.6070540
   2.7267530  73.2344520  40.9915050   1.8155790  72.2546410  41.6997500
   7.9096860  61.8880540  52.0274190   8.2777680  61.0675750  52.3553760
   7.0495060  61.9482430  52.4429840  11.2758890  60.8437480  42.8361750
  10.6472050  60.9483150  42.1219980  10.7810810  61.0634260  43.6255630
   5.7217030  72.5643070  40.2695730   5.8229010  72.3607060  39.3397710
   4.8218770  72.3101350  40.4743510   3.2442920  63.1223430  44.2519630
   2.5359070  63.5909770  44.6933240   3.5287400  62.4645440  44.8864820
   4.8698850  64.5420130  52.2512160   5.3684100  65.0165950  52.9164010
   5.0121800  63.6183650  52.4582190   7.2758350  59.8474090  45.6915420
   7.1526130  59.8660220  44.7424930   8.2242910  59.8953030  45.8113820
   4.3635140  75.0829390  44.9643400   4.6176640  75.0450780  44.0422770
   3.4147620  74.9562720  44.9571650  12.0765710  60.7588090  53.0940550
  11.5739310  61.4993490  53.4334360  12.8922370  61.1472090  52.7777340
  10.3687720  66.0021270  46.5401910   9.4277860  66.0171500  46.7149600
  10.6831790  65.2157230  46.9862210  12.3713300  73.1730120  48.2156170
  12.4960720  73.9961290  48.6879980  13.2378860  72.9620850  47.8680320
   2.9533140  74.4391640  39.7098870   3.7461750  74.7280470  39.2580660
   2.4337490  74.0083810  39.0311350   7.6853740  70.5587270  57.0234290
   7.0791900  70.5818870  56.2830040   7.3807850  69.8270310  57.5601540
   9.1154110  74.2867560  55.6343700  10.0675860  74.2025580  55.5843940
   8.9682330  74.9509270  56.3077490  12.0063310  73.6661770  41.1335610
  11.7204820  73.2526910  40.3189790  11.8082860  74.5949480  41.0136130
   3.4710540  69.6595050  39.5741220   3.3661180  69.0447400  40.3002600
   3.3034760  69.1360940  38.7904230   3.6224860  68.3451850  55.5530450
   2.8570530  68.9136850  55.4685120   3.8040820  68.0528060  54.6598680
   6.7113270  68.7215080  40.1783210   6.1623370  69.1684380  40.8225950
   7.3332530  68.2164330  40.7020880  10.7648210  70.0757180  56.1105470
  11.5057680  70.4132940  55.6072930  10.0020890  70.2449240  55.5575240
   2.3788390  67.6806000  42.0748510   2.8004810  67.5145870  42.9179900
   2.5039230  66.8706230  41.5803650   4.8916030  66.7043610  39.3225610
   5.4121690  65.9892630  38.9566760   5.5384430  67.3429480  39.6226120
   9.4393870  68.1272010  54.6460680   9.8534890  68.2817090  55.4951100
   8.5044870  68.2527230  54.8086460   9.9116040  65.4668170  56.6499830
  10.4936810  64.7120490  56.5620310  10.0877810  65.9975610  55.8731310
   3.7949550  59.1838160  51.9944170   3.3466850  59.2062420  51.1489720
   3.1614750  58.7857180  52.5914470   4.2009100  68.0792490  52.6156610
   4.6197210  68.9225220  52.4432850   3.2817730  68.2164530  52.3863390
   6.5373000  65.8108670  53.9994450   6.6569210  65.2149810  54.7389290
   7.3967000  65.8478360  53.5795750   8.8760900  66.3645860  52.5756960
   8.3496120  66.8888480  51.9722100   9.2192240  66.9973250  53.2066690
   2.0516520  74.3845500  53.7314340   1.5137610  75.1091560  53.4123040
   2.3050480  73.9075840  52.9411680   3.3041770  62.3530020  55.2570270
   3.8941460  62.0445870  55.9448090   2.4862010  61.8809770  55.4130170
   8.1235200  61.9695830  55.4903290   7.4350720  61.3077370  55.4253280
   8.8441220  61.5234100  55.9351750   8.7535600  58.5647460  41.5493550
   9.0337890  57.7215360  41.9052970   7.9801330  58.7970570  42.0632300
   4.9078730  75.6196710  53.9900990   4.8337430  76.5231850  54.2973360
   4.0057570  75.3008610  53.9623060   3.2915020  59.7974470  39.9940750
   2.9437020  59.1198460  39.4143200   3.4927790  59.3363980  40.8084140
   5.4564060  74.7855220  41.6127350   6.3514850  75.1240190  41.6346110
   5.4881690  74.0634630  40.9851630  12.4358410  73.3158890  54.3193550
  11.8360400  73.3751450  53.5757470  12.5652310  72.3763870  54.4490400
  13.6759860  71.0576710  39.6563260  12.8452820  71.1253360  40.1270490
  13.8531690  71.9480830  39.3530120  13.1316320  67.8024190  42.1597460
  13.8935230  68.3720840  42.2657150  13.1470690  67.2351390  42.9305770
  14.1376290  68.6574290  47.0039390  14.5085120  67.8741610  46.5975360
  14.7778220  69.3463390  46.8256690  11.1210050  70.0410870  52.4169710
  10.3069890  70.4708030  52.6795500  11.5284250  70.6529280  51.8038760
  13.1835490  68.0958560  39.3169980  13.4584330  69.0037440  39.1889200
  12.9946230  68.0321090  40.2531970   9.5811100  61.1203410  40.6123610
   9.9995980  60.9334390  39.7720270   9.2747160  60.2682460  40.9226540
  13.0800830  66.0327550  44.3099410  12.7044430  65.2655480  43.8780700
  12.3503950  66.4150250  44.7974340  12.4700450  65.1799070  53.9438930
  12.2386540  64.9511820  53.0436880  12.7305000  66.0998620  53.8983820
  10.9088520  60.4055500  56.7218630  11.7858700  60.4138900  57.1052630
  10.9209360  59.6686340  56.1110980  12.3551790  64.2585040  47.6106650
  12.8789270  63.7647690  46.9796820  12.9411210  64.3935400  48.3554220
  12.5341510  64.3424910  51.1326200  11.5844220  64.3088450  51.2471190
  12.7154520  65.2525020  50.8975970  11.8451760  63.5158390  43.5499060
  12.3410880  63.2829260  44.3347940  11.6467830  62.6770230  43.1336700
  13.2738920  62.1519340  46.0836740  13.1638200  61.9975380  47.0219010
  14.0346510  61.6240280  45.8412150  11.6204640  58.0913470  52.5419740
  12.2576860  58.7047610  52.9078930  11.7679530  58.1274130  51.5968970
  14.1629190  59.9827260  39.3242880  15.0878500  59.8508440  39.1161170
  14.1404980  60.0620080  40.2779330  14.2367680  60.7537920  41.9499590
  13.4419180  60.6883040  42.4792500  14.4410960  61.6888560  41.9384940
  11.1786100  74.7929470  45.9437980  11.7745170  74.4714040  45.2672400
  11.4364250  74.3201290  46.7351250   2.7854700  72.7806970  51.6938330
   2.5446060  73.0481530  50.8068850   3.7257340  72.9512700  51.7489190
   4.9909120  59.2439660  55.4494840   4.9298010  59.8361490  56.1990250
   5.9309500  59.1365620  55.3045100   7.6283680  58.9009720  55.0887130
   8.2424090  59.2189010  54.4268210   8.1733240  58.4158310  55.7082990
  14.0458860  74.8001350  52.4948970  13.5517140  75.1970220  51.7776100
  13.4372150  74.1750560  52.8886250   8.3691720  57.4641860  51.4156420
   7.4951560  57.7976970  51.2129350   8.2602470  56.9915040  52.2408290
   9.2763700  59.6712730  52.7998140   8.9477060  58.8564490  52.4199870
  10.2246000  59.6282540  52.6763830  11.7298310  75.4424770  49.7735710
  11.2701280  76.1940580  49.3993730  11.1010770  74.7231240  49.7150510
   2.1594030  73.7513010  48.9483840   2.6759050  73.1400370  48.4232100
   2.8091410  74.2541790  49.4394850   4.8989530  74.6421500  49.7752820
   5.1867340  74.3875800  48.8985830   5.4112750  74.0898860  50.3658390
   6.1166540  58.3811700  50.3549330   5.3338330  58.8557200  50.6346090
   5.8229470  57.4766530  50.2462510  10.6687610  59.0834800  48.3998420
  11.1095700  59.0279900  47.5520020  10.3995200  59.9992810  48.4708600
  12.5326180  58.7150040  46.4107240  12.4714580  57.7711260  46.2638260
  13.3118210  58.8230130  46.9560700   4.0020760  60.7998450  45.8665360
   3.1895270  60.4255340  45.5261240   4.5062400  60.0443530  46.1686550
   8.5045740  57.4640900  47.1048430   9.1075110  58.0361110  47.5796950
   7.7638730  58.0280340  46.8822330  11.6480340  57.8662460  42.3788710
  11.8430970  58.7645910  42.6456140  10.8610210  57.6349540  42.8721660
   2.0269940  58.9498370  44.4710410   1.3972680  58.2485680  44.6380540
   1.4875080  59.7102500  44.2543570   4.9661890  75.5637600  57.1421020
   5.8929200  75.3281870  57.1856980   4.9512320  76.3909600  56.6607050
  13.2006950  75.1063170  44.1395270  13.3759140  74.4200910  43.4956190
  12.5028520  75.6310220  43.7471940   2.1525500  58.2282350  56.9062900
   1.8709770  58.7315950  56.1423720   2.5345200  57.4304100  56.5405030
   8.7540960  57.6435930  57.4843370   8.6406410  57.9630540  58.3794890
   9.5710700  58.0448440  57.1880650  11.5339450  74.7907460  56.9662060
  12.3264770  74.2956690  56.7588020  11.8272600  75.4697600  57.5737670
   7.6599110  65.6628400  27.8478110   7.5793160  64.7483010  27.5769820
   7.2463530  66.1595470  27.1417820   5.7917150  67.4407420  29.7287380
   5.0159250  66.9607860  30.0185950   6.4430080  66.7613070  29.5543540
   9.8124580  71.8467610  28.5086510   9.3506110  71.0754850  28.8373680
  10.6250130  71.8733680  29.0138960   6.0387890  74.1325620  28.1290500
   5.4199330  74.5883120  27.5584940   6.8939670  74.2877080  27.7280200
   5.2326140  70.1164610  29.7357540   5.1634420  69.1754550  29.5746670
   5.9946000  70.2066020  30.3080110   6.2631310  62.9234990  29.9626470
   6.6396130  62.0506870  29.8500140   6.1650820  63.2593690  29.0716910
  10.0455430  60.4185430  26.8954810  10.8665050  59.9282000  26.9380290
  10.0789510  61.0083090  27.6486650   2.2344050  64.2646990  29.7569090
   2.7422270  64.7627960  30.3974110   2.7657290  63.4882190  29.5808450
  14.3354980  62.4352180  33.4598440  13.6307150  62.8233890  32.9413550
  14.6012900  63.1302470  34.0619370   6.9051240  69.0164860  25.5222410
   6.2868510  69.4814310  24.9585130   7.4174490  69.7092340  25.9391920
   1.7683000  68.5440730  32.2006010   1.4352380  69.1709650  32.8427080
   1.9449680  69.0702610  31.4207680  10.2816910  62.3585810  29.6682350
   9.5772480  62.6470700  30.2485460  10.6429070  63.1685920  29.3081910
  11.8979690  71.9760940  31.9309830  11.2143210  72.6460050  31.9226500
  12.4373980  72.1741590  31.1654690  13.3503830  61.8040600  30.0591560
  12.4028740  61.8379580  30.1906990  13.6753820  62.6179550  30.4440920
   3.8823370  58.1037780  28.3547550   4.1898350  57.5484670  27.6383050
   2.9524070  58.2382240  28.1720540   9.4338430  73.8205070  30.6455010
   9.4465590  73.4167360  29.7777270   8.8813650  74.5952360  30.5416440
  10.7283850  70.5421290  25.7345180  10.6180180  69.5995620  25.8594600
  10.7252100  70.9036930  26.6207940   8.8323870  68.7234910  31.9737620
   9.2492660  68.5095020  31.1391080   9.5563690  68.9807700  32.5446240
   6.2704130  66.1686610  25.0907670   5.3433410  66.1023990  25.3196140
   6.4228950  67.1066740  24.9762910   6.2573210  62.4403610  22.0874830
   5.3176880  62.6017570  22.1727290   6.5756470  63.1589290  21.5410820
  12.7785970  67.1222130  32.0653860  11.9504600  67.1915220  31.5903990
  13.3736450  67.7076440  31.5969690  10.3001420  67.7306910  25.5942920
   9.6813840  67.3926460  24.9469220  10.2825870  67.0866670  26.3022110
   9.7427980  63.9091450  33.0108730   9.3299160  64.7345160  33.2648720
   9.0103930  63.3236490  32.8185090   1.8760770  66.6951350  27.8727400
   1.4717770  65.9828600  27.3773300   1.9623890  66.3504590  28.7615440
   2.3442470  70.3818910  30.0366610   2.0470760  69.7764380  29.3574390
   3.2942290  70.4196220  29.9255970  10.4328080  73.9550780  33.6989710
   9.9558640  74.7622970  33.5062320   9.7489870  73.3029110  33.8515920
   8.4766120  66.9693720  22.6015670   8.9159400  66.1316150  22.4553490
   9.1894540  67.6023120  22.6879810   6.5861500  71.9089790  26.5696910
   7.0257410  72.6514120  26.1552300   6.5248390  72.1516360  27.4935870
   2.0612470  72.9335620  37.4716930   2.0327900  73.3378570  36.6045360
   1.8977440  72.0045980  37.3088530  12.0583260  58.2236530  20.9156710
  11.7455920  58.3163360  21.8155780  12.8195730  58.8017560  20.8654140
  14.0127290  73.7162720  38.7681100  14.4887010  74.1945610  39.4470180
  14.6334450  73.6480210  38.0426600  13.4160540  70.9075570  35.9281110
  13.5423600  70.6687450  35.0098290  13.4581920  70.0760110  36.4003190
   7.2777280  74.6103570  34.4975920   7.7921950  74.5211580  35.2998350
   6.4346360  74.9563270  34.7903830   9.2531680  74.8958910  23.9259920
   9.0932820  74.6061850  24.8241750   9.0878390  74.1199040  23.3905150
   8.9557810  72.4046470  22.4857920   8.2622970  72.4023760  21.8260200
   9.6980670  71.9805790  22.0552090   8.5207740  74.0309180  26.5606410
   8.9764690  73.2498560  26.8745030   8.8600260  74.7416000  27.1047590
  13.2684550  62.9608030  36.8930850  12.6528820  63.4687700  36.3646310
  12.9480970  62.0606360  36.8356790   5.3298870  61.7999920  34.3593040
   4.8678240  62.0082940  35.1712980   4.9276980  60.9859270  34.0563710
  10.3303380  63.0208870  35.4889700   9.4796970  62.7214620  35.8098770
  10.1705170  63.2650880  34.5773520   7.4253090  64.5210620  37.5888490
   7.7506500  63.6874370  37.2490720   8.2133420  65.0439140  37.7366820
   4.1587880  58.5542100  23.6363550   3.5342060  58.5501970  24.3616860
   4.0718000  57.6873060  23.2399520   3.0804960  59.4778730  30.6147320
   3.3777290  60.3841560  30.5339340   3.6290520  58.9897510  30.0006890
   8.0641040  64.0628340  25.0829620   7.4649930  64.7864140  24.8993240
   8.6120650  64.0005120  24.3006070   3.2742490  64.9550550  37.1499240
   3.1786090  64.0145280  36.9999640   4.1174470  65.1765620  36.7547310
   6.6705910  62.6991880  27.1132900   7.0635480  63.0164080  26.3001590
   7.0322760  61.8203760  27.2277420   4.9798080  61.4499190  38.3729760
   4.2896400  61.2571390  39.0075850   5.7230380  61.7333830  38.9054060
   7.2561050  65.2897630  31.2083680   6.5242170  65.7984440  31.5573780
   6.8585390  64.4727610  30.9072460   3.6938440  61.9651830  29.6136170
   3.6974500  61.5241780  28.7640710   4.5889560  62.2869160  29.7207990
   3.7558590  62.9663910  22.6042930   3.8771410  62.9250390  23.5528750
   3.3707100  63.8288060  22.4489660   7.7186960  60.7431310  30.6206620
   7.7359700  61.1939960  31.4648470   7.4702540  59.8436950  30.8340060
   2.7680090  65.2765050  22.0026230   2.1996990  64.8283300  21.3762140
   3.4769090  65.6357830  21.4691380  11.1457710  58.1563490  36.4593000
  11.4703480  57.4253150  36.9850980  11.1814220  57.8377130  35.5573990
   3.9946410  66.0253610  31.3601580   4.3616540  65.5512180  32.1062920
   3.8051470  66.8995180  31.7009920   1.7845780  65.0662250  33.6785790
   1.4802850  65.9454230  33.9036150   2.7392240  65.1262040  33.7143230
  11.0715550  68.2688600  30.0679030  11.7914670  68.7643890  29.6775140
  10.8697370  67.5906490  29.4232900   6.5325490  59.6626560  24.2108420
   5.7190100  59.1639730  24.1353730   6.3387440  60.5024810  23.7944770
   6.4534350  68.3397660  35.9548030   6.3871660  67.4193330  35.7005620
   5.8239490  68.4373100  36.6692670   9.2473880  64.0346210  22.5070580
  10.1353500  64.3463440  22.3321920   9.2178970  63.1618460  22.1151160
   5.2434470  70.2069900  23.1858750   5.5850170  70.9512130  22.6902070
   4.4147180  70.5201020  23.5483580   6.3851080  71.1618230  35.7051830
   6.3995620  70.2299190  35.4870740   5.6776180  71.2477990  36.3441600
  11.5188150  65.3458050  21.9750440  11.4351870  65.7772270  21.1246880
  12.2382340  65.8056400  22.4077260  12.5962290  67.8025570  35.0520410
  11.8710480  68.3954350  34.8549800  13.1237750  67.7949110  34.2533780
  12.5475400  72.2000310  24.7032570  11.9051560  71.5455930  24.9776290
  12.1606060  72.6055400  23.9273240   8.1261880  69.5285740  28.5504260
   8.4785700  68.9313870  27.8905630   7.2424210  69.2029970  28.7212510
   4.2125160  70.2883430  25.9574670   4.8996290  70.8352640  26.3382260
   3.4257580  70.8324160  25.9924280   3.5152370  67.2929460  25.5700030
   3.9715150  68.1034710  25.7960220   3.1640580  66.9752600  26.4018520
   5.8184980  72.8035800  32.7992330   6.4627200  73.0095180  33.4765750
   6.1814420  72.0424200  32.3463180   7.0917060  70.8068150  31.5169780
   7.7339290  70.1061310  31.6301950   7.6166410  71.5866590  31.3366670
  10.9372780  71.0916770  21.2408920  10.7110360  70.3747210  21.8333560
  10.5468980  70.8429210  20.4030670   8.8654680  71.6063050  34.7205840
   9.2010920  72.1929740  35.3983760   7.9455020  71.4755760  34.9503630
  10.5189030  69.0088710  22.9023080  10.2310730  69.4701400  23.6900960
  11.3141200  68.5486480  23.1707300   4.6943260  71.6554380  37.8893900
   4.3740130  70.9363620  38.4339590   4.0201620  72.3309450  37.9629960
   2.7357430  72.5014830  22.8327050   2.7267530  73.2344520  22.2171560
   1.8155790  72.2546410  22.9254010   7.9096860  61.8880540  33.2530700
   8.2777680  61.0675750  33.5810270   7.0495060  61.9482430  33.6686350
  11.2758890  60.8437480  24.0618260  10.6472050  60.9483150  23.3476490
  10.7810810  61.0634260  24.8512140   5.7217030  72.5643070  21.4952240
   5.8229010  72.3607060  20.5654220   4.8218770  72.3101350  21.7000020
   3.2442920  63.1223430  25.4776140   2.5359070  63.5909770  25.9189750
   3.5287400  62.4645440  26.1121330   4.8698850  64.5420130  33.4768670
   5.3684100  65.0165950  34.1420520   5.0121800  63.6183650  33.6838700
   7.2758350  59.8474090  26.9171930   7.1526130  59.8660220  25.9681440
   8.2242910  59.8953030  27.0370330   4.3635140  75.0829390  26.1899910
   4.6176640  75.0450780  25.2679280   3.4147620  74.9562720  26.1828160
  12.0765710  60.7588090  34.3197060  11.5739310  61.4993490  34.6590870
  12.8922370  61.1472090  34.0033850  10.3687720  66.0021270  27.7658420
   9.4277860  66.0171500  27.9406110  10.6831790  65.2157230  28.2118720
  12.3713300  73.1730120  29.4412680  12.4960720  73.9961290  29.9136490
  13.2378860  72.9620850  29.0936830   2.9533140  74.4391640  20.9355380
   3.7461750  74.7280470  20.4837170   2.4337490  74.0083810  20.2567860
   7.6853740  70.5587270  38.2490800   7.0791900  70.5818870  37.5086550
   7.3807850  69.8270310  38.7858050   9.1154110  74.2867560  36.8600210
  10.0675860  74.2025580  36.8100450   8.9682330  74.9509270  37.5334000
  12.0063310  73.6661770  22.3592120  11.7204820  73.2526910  21.5446300
  11.8082860  74.5949480  22.2392640   3.4710540  69.6595050  20.7997730
   3.3661180  69.0447400  21.5259110   3.3034760  69.1360940  20.0160740
   3.6224860  68.3451850  36.7786960   2.8570530  68.9136850  36.6941630
   3.8040820  68.0528060  35.8855190   6.7113270  68.7215080  21.4039720
   6.1623370  69.1684380  22.0482460   7.3332530  68.2164330  21.9277390
  10.7648210  70.0757180  37.3361980  11.5057680  70.4132940  36.8329440
  10.0020890  70.2449240  36.7831750   2.3788390  67.6806000  23.3005020
   2.8004810  67.5145870  24.1436410   2.5039230  66.8706230  22.8060160
   4.8916030  66.7043610  20.5482120   5.4121690  65.9892630  20.1823270
   5.5384430  67.3429480  20.8482630   9.4393870  68.1272010  35.8717190
   9.8534890  68.2817090  36.7207610   8.5044870  68.2527230  36.0342970
   9.9116040  65.4668170  37.8756340  10.4936810  64.7120490  37.7876820
  10.0877810  65.9975610  37.0987820   3.7949550  59.1838160  33.2200680
   3.3466850  59.2062420  32.3746230   3.1614750  58.7857180  33.8170980
   4.2009100  68.0792490  33.8413120   4.6197210  68.9225220  33.6689360
   3.2817730  68.2164530  33.6119900   6.5373000  65.8108670  35.2250960
   6.6569210  65.2149810  35.9645800   7.3967000  65.8478360  34.8052260
   8.8760900  66.3645860  33.8013470   8.3496120  66.8888480  33.1978610
   9.2192240  66.9973250  34.4323200   2.0516520  74.3845500  34.9570850
   1.5137610  75.1091560  34.6379550   2.3050480  73.9075840  34.1668190
   3.3041770  62.3530020  36.4826780   3.8941460  62.0445870  37.1704600
   2.4862010  61.8809770  36.6386680   8.1235200  61.9695830  36.7159800
   7.4350720  61.3077370  36.6509790   8.8441220  61.5234100  37.1608260
   8.7535600  58.5647460  22.7750060   9.0337890  57.7215360  23.1309480
   7.9801330  58.7970570  23.2888810   4.9078730  75.6196710  35.2157500
   4.8337430  76.5231850  35.5229870   4.0057570  75.3008610  35.1879570
   3.2915020  59.7974470  21.2197260   2.9437020  59.1198460  20.6399710
   3.4927790  59.3363980  22.0340650   5.4564060  74.7855220  22.8383860
   6.3514850  75.1240190  22.8602620   5.4881690  74.0634630  22.2108140
  12.4358410  73.3158890  35.5450060  11.8360400  73.3751450  34.8013980
  12.5652310  72.3763870  35.6746910  13.6759860  71.0576710  20.8819770
  12.8452820  71.1253360  21.3527000  13.8531690  71.9480830  20.5786630
  13.1316320  67.8024190  23.3853970  13.8935230  68.3720840  23.4913660
  13.1470690  67.2351390  24.1562280  14.1376290  68.6574290  28.2295900
  14.5085120  67.8741610  27.8231870  14.7778220  69.3463390  28.0513200
  11.1210050  70.0410870  33.6426220  10.3069890  70.4708030  33.9052010
  11.5284250  70.6529280  33.0295270  13.1835490  68.0958560  20.5426490
  13.4584330  69.0037440  20.4145710  12.9946230  68.0321090  21.4788480
   9.5811100  61.1203410  21.8380120   9.9995980  60.9334390  20.9976780
   9.2747160  60.2682460  22.1483050  13.0800830  66.0327550  25.5355920
  12.7044430  65.2655480  25.1037210  12.3503950  66.4150250  26.0230850
  12.4700450  65.1799070  35.1695440  12.2386540  64.9511820  34.2693390
  12.7305000  66.0998620  35.1240330  10.9088520  60.4055500  37.9475140
  11.7858700  60.4138900  38.3309140  10.9209360  59.6686340  37.3367490
  12.3551790  64.2585040  28.8363160  12.8789270  63.7647690  28.2053330
  12.9411210  64.3935400  29.5810730  12.5341510  64.3424910  32.3582710
  11.5844220  64.3088450  32.4727700  12.7154520  65.2525020  32.1232480
  11.8451760  63.5158390  24.7755570  12.3410880  63.2829260  25.5604450
  11.6467830  62.6770230  24.3593210  13.2738920  62.1519340  27.3093250
  13.1638200  61.9975380  28.2475520  14.0346510  61.6240280  27.0668660
  11.6204640  58.0913470  33.7676250  12.2576860  58.7047610  34.1335440
  11.7679530  58.1274130  32.8225480  14.1629190  59.9827260  20.5499390
  15.0878500  59.8508440  20.3417680  14.1404980  60.0620080  21.5035840
  14.2367680  60.7537920  23.1756100  13.4419180  60.6883040  23.7049010
  14.4410960  61.6888560  23.1641450  11.1786100  74.7929470  27.1694490
  11.7745170  74.4714040  26.4928910  11.4364250  74.3201290  27.9607760
   2.7854700  72.7806970  32.9194840   2.5446060  73.0481530  32.0325360
   3.7257340  72.9512700  32.9745700   4.9909120  59.2439660  36.6751350
   4.9298010  59.8361490  37.4246760   5.9309500  59.1365620  36.5301610
   7.6283680  58.9009720  36.3143640   8.2424090  59.2189010  35.6524720
   8.1733240  58.4158310  36.9339500  14.0458860  74.8001350  33.7205480
  13.5517140  75.1970220  33.0032610  13.4372150  74.1750560  34.1142760
   8.3691720  57.4641860  32.6412930   7.4951560  57.7976970  32.4385860
   8.2602470  56.9915040  33.4664800   9.2763700  59.6712730  34.0254650
   8.9477060  58.8564490  33.6456380  10.2246000  59.6282540  33.9020340
  11.7298310  75.4424770  30.9992220  11.2701280  76.1940580  30.6250240
  11.1010770  74.7231240  30.9407020   2.1594030  73.7513010  30.1740350
   2.6759050  73.1400370  29.6488610   2.8091410  74.2541790  30.6651360
   4.8989530  74.6421500  31.0009330   5.1867340  74.3875800  30.1242340
   5.4112750  74.0898860  31.5914900   6.1166540  58.3811700  31.5805840
   5.3338330  58.8557200  31.8602600   5.8229470  57.4766530  31.4719020
  10.6687610  59.0834800  29.6254930  11.1095700  59.0279900  28.7776530
  10.3995200  59.9992810  29.6965110  12.5326180  58.7150040  27.6363750
  12.4714580  57.7711260  27.4894770  13.3118210  58.8230130  28.1817210
   4.0020760  60.7998450  27.0921870   3.1895270  60.4255340  26.7517750
   4.5062400  60.0443530  27.3943060   8.5045740  57.4640900  28.3304940
   9.1075110  58.0361110  28.8053460   7.7638730  58.0280340  28.1078840
  11.6480340  57.8662460  23.6045220  11.8430970  58.7645910  23.8712650
  10.8610210  57.6349540  24.0978170   2.0269940  58.9498370  25.6966920
   1.3972680  58.2485680  25.8637050   1.4875080  59.7102500  25.4800080
   4.9661890  75.5637600  38.3677530   5.8929200  75.3281870  38.4113490
   4.9512320  76.3909600  37.8863560  13.2006950  75.1063170  25.3651780
  13.3759140  74.4200910  24.7212700  12.5028520  75.6310220  24.9728450
   2.1525500  58.2282350  38.1319410   1.8709770  58.7315950  37.3680230
   2.5345200  57.4304100  37.7661540   8.7540960  57.6435930  38.7099880
   8.6406410  57.9630540  39.6051400   9.5710700  58.0448440  38.4137160
  11.5339450  74.7907460  38.1918570  12.3264770  74.2956690  37.9844530
  11.8272600  75.4697600  38.7994180   7.6599110  65.6628400   9.0734620
   7.5793160  64.7483010   8.8026330   7.2463530  66.1595470   8.3674330
   5.7917150  67.4407420  10.9543890   5.0159250  66.9607860  11.2442460
   6.4430080  66.7613070  10.7800050   9.8124580  71.8467610   9.7343020
   9.3506110  71.0754850  10.0630190  10.6250130  71.8733680  10.2395470
   6.0387890  74.1325620   9.3547010   5.4199330  74.5883120   8.7841450
   6.8939670  74.2877080   8.9536710   5.2326140  70.1164610  10.9614050
   5.1634420  69.1754550  10.8003180   5.9946000  70.2066020  11.5336620
   6.2631310  62.9234990  11.1882980   6.6396130  62.0506870  11.0756650
   6.1650820  63.2593690  10.2973420  10.0455430  60.4185430   8.1211320
  10.8665050  59.9282000   8.1636800  10.0789510  61.0083090   8.8743160
   2.2344050  64.2646990  10.9825600   2.7422270  64.7627960  11.6230620
   2.7657290  63.4882190  10.8064960  14.3354980  62.4352180  14.6854950
  13.6307150  62.8233890  14.1670060  14.6012900  63.1302470  15.2875880
   6.9051240  69.0164860   6.7478920   6.2868510  69.4814310   6.1841640
   7.4174490  69.7092340   7.1648430   1.7683000  68.5440730  13.4262520
   1.4352380  69.1709650  14.0683590   1.9449680  69.0702610  12.6464190
  10.2816910  62.3585810  10.8938860   9.5772480  62.6470700  11.4741970
  10.6429070  63.1685920  10.5338420  11.8979690  71.9760940  13.1566340
  11.2143210  72.6460050  13.1483010  12.4373980  72.1741590  12.3911200
  13.3503830  61.8040600  11.2848070  12.4028740  61.8379580  11.4163500
  13.6753820  62.6179550  11.6697430   3.8823370  58.1037780   9.5804060
   4.1898350  57.5484670   8.8639560   2.9524070  58.2382240   9.3977050
   9.4338430  73.8205070  11.8711520   9.4465590  73.4167360  11.0033780
   8.8813650  74.5952360  11.7672950  10.7283850  70.5421290   6.9601690
  10.6180180  69.5995620   7.0851110  10.7252100  70.9036930   7.8464450
   8.8323870  68.7234910  13.1994130   9.2492660  68.5095020  12.3647590
   9.5563690  68.9807700  13.7702750   6.2704130  66.1686610   6.3164180
   5.3433410  66.1023990   6.5452650   6.4228950  67.1066740   6.2019420
   6.2573210  62.4403610   3.3131340   5.3176880  62.6017570   3.3983800
   6.5756470  63.1589290   2.7667330  12.7785970  67.1222130  13.2910370
  11.9504600  67.1915220  12.8160500  13.3736450  67.7076440  12.8226200
  10.3001420  67.7306910   6.8199430   9.6813840  67.3926460   6.1725730
  10.2825870  67.0866670   7.5278620   9.7427980  63.9091450  14.2365240
   9.3299160  64.7345160  14.4905230   9.0103930  63.3236490  14.0441600
   1.8760770  66.6951350   9.0983910   1.4717770  65.9828600   8.6029810
   1.9623890  66.3504590   9.9871950   2.3442470  70.3818910  11.2623120
   2.0470760  69.7764380  10.5830900   3.2942290  70.4196220  11.1512480
  10.4328080  73.9550780  14.9246220   9.9558640  74.7622970  14.7318830
   9.7489870  73.3029110  15.0772430   8.4766120  66.9693720   3.8272180
   8.9159400  66.1316150   3.6810000   9.1894540  67.6023120   3.9136320
   6.5861500  71.9089790   7.7953420   7.0257410  72.6514120   7.3808810
   6.5248390  72.1516360   8.7192380   2.0612470  72.9335620  18.6973440
   2.0327900  73.3378570  17.8301870   1.8977440  72.0045980  18.5345040
  12.0583260  58.2236530   2.1413220  11.7455920  58.3163360   3.0412290
  12.8195730  58.8017560   2.0910650  14.0127290  73.7162720  19.9937610
  14.4887010  74.1945610  20.6726690  14.6334450  73.6480210  19.2683110
  13.4160540  70.9075570  17.1537620  13.5423600  70.6687450  16.2354800
  13.4581920  70.0760110  17.6259700   7.2777280  74.6103570  15.7232430
   7.7921950  74.5211580  16.5254860   6.4346360  74.9563270  16.0160340
   9.2531680  74.8958910   5.1516430   9.0932820  74.6061850   6.0498260
   9.0878390  74.1199040   4.6161660   8.9557810  72.4046470   3.7114430
   8.2622970  72.4023760   3.0516710   9.6980670  71.9805790   3.2808600
   8.5207740  74.0309180   7.7862920   8.9764690  73.2498560   8.1001540
   8.8600260  74.7416000   8.3304100  13.2684550  62.9608030  18.1187360
  12.6528820  63.4687700  17.5902820  12.9480970  62.0606360  18.0613300
   5.3298870  61.7999920  15.5849550   4.8678240  62.0082940  16.3969490
   4.9276980  60.9859270  15.2820220  10.3303380  63.0208870  16.7146210
   9.4796970  62.7214620  17.0355280  10.1705170  63.2650880  15.8030030
   7.4253090  64.5210620  18.8145000   7.7506500  63.6874370  18.4747230
   8.2133420  65.0439140  18.9623330   4.1587880  58.5542100   4.8620060
   3.5342060  58.5501970   5.5873370   4.0718000  57.6873060   4.4656030
   3.0804960  59.4778730  11.8403830   3.3777290  60.3841560  11.7595850
   3.6290520  58.9897510  11.2263400   8.0641040  64.0628340   6.3086130
   7.4649930  64.7864140   6.1249750   8.6120650  64.0005120   5.5262580
   3.2742490  64.9550550  18.3755750   3.1786090  64.0145280  18.2256150
   4.1174470  65.1765620  17.9803820   6.6705910  62.6991880   8.3389410
   7.0635480  63.0164080   7.5258100   7.0322760  61.8203760   8.4533930
   4.9798080  61.4499190  19.5986270   4.2896400  61.2571390  20.2332360
   5.7230380  61.7333830  20.1310570   7.2561050  65.2897630  12.4340190
   6.5242170  65.7984440  12.7830290   6.8585390  64.4727610  12.1328970
   3.6938440  61.9651830  10.8392680   3.6974500  61.5241780   9.9897220
   4.5889560  62.2869160  10.9464500   3.7558590  62.9663910   3.8299440
   3.8771410  62.9250390   4.7785260   3.3707100  63.8288060   3.6746170
   7.7186960  60.7431310  11.8463130   7.7359700  61.1939960  12.6904980
   7.4702540  59.8436950  12.0596570   2.7680090  65.2765050   3.2282740
   2.1996990  64.8283300   2.6018650   3.4769090  65.6357830   2.6947890
  11.1457710  58.1563490  17.6849510  11.4703480  57.4253150  18.2107490
  11.1814220  57.8377130  16.7830500   3.9946410  66.0253610  12.5858090
   4.3616540  65.5512180  13.3319430   3.8051470  66.8995180  12.9266430
   1.7845780  65.0662250  14.9042300   1.4802850  65.9454230  15.1292660
   2.7392240  65.1262040  14.9399740  11.0715550  68.2688600  11.2935540
  11.7914670  68.7643890  10.9031650  10.8697370  67.5906490  10.6489410
   6.5325490  59.6626560   5.4364930   5.7190100  59.1639730   5.3610240
   6.3387440  60.5024810   5.0201280   6.4534350  68.3397660  17.1804540
   6.3871660  67.4193330  16.9262130   5.8239490  68.4373100  17.8949180
   9.2473880  64.0346210   3.7327090  10.1353500  64.3463440   3.5578430
   9.2178970  63.1618460   3.3407670   5.2434470  70.2069900   4.4115260
   5.5850170  70.9512130   3.9158580   4.4147180  70.5201020   4.7740090
   6.3851080  71.1618230  16.9308340   6.3995620  70.2299190  16.7127250
   5.6776180  71.2477990  17.5698110  11.5188150  65.3458050   3.2006950
  11.4351870  65.7772270   2.3503390  12.2382340  65.8056400   3.6333770
  12.5962290  67.8025570  16.2776920  11.8710480  68.3954350  16.0806310
  13.1237750  67.7949110  15.4790290  12.5475400  72.2000310   5.9289080
  11.9051560  71.5455930   6.2032800  12.1606060  72.6055400   5.1529750
   8.1261880  69.5285740   9.7760770   8.4785700  68.9313870   9.1162140
   7.2424210  69.2029970   9.9469020   4.2125160  70.2883430   7.1831180
   4.8996290  70.8352640   7.5638770   3.4257580  70.8324160   7.2180790
   3.5152370  67.2929460   6.7956540   3.9715150  68.1034710   7.0216730
   3.1640580  66.9752600   7.6275030   5.8184980  72.8035800  14.0248840
   6.4627200  73.0095180  14.7022260   6.1814420  72.0424200  13.5719690
   7.0917060  70.8068150  12.7426290   7.7339290  70.1061310  12.8558460
   7.6166410  71.5866590  12.5623180  10.9372780  71.0916770   2.4665430
  10.7110360  70.3747210   3.0590070  10.5468980  70.8429210   1.6287180
   8.8654680  71.6063050  15.9462350   9.2010920  72.1929740  16.6240270
   7.9455020  71.4755760  16.1760140  10.5189030  69.0088710   4.1279590
  10.2310730  69.4701400   4.9157470  11.3141200  68.5486480   4.3963810
   4.6943260  71.6554380  19.1150410   4.3740130  70.9363620  19.6596100
   4.0201620  72.3309450  19.1886470   2.7357430  72.5014830   4.0583560
   2.7267530  73.2344520   3.4428070   1.8155790  72.2546410   4.1510520
   7.9096860  61.8880540  14.4787210   8.2777680  61.0675750  14.8066780
   7.0495060  61.9482430  14.8942860  11.2758890  60.8437480   5.2874770
  10.6472050  60.9483150   4.5733000  10.7810810  61.0634260   6.0768650
   5.7217030  72.5643070   2.7208750   5.8229010  72.3607060   1.7910730
   4.8218770  72.3101350   2.9256530   3.2442920  63.1223430   6.7032650
   2.5359070  63.5909770   7.1446260   3.5287400  62.4645440   7.3377840
   4.8698850  64.5420130  14.7025180   5.3684100  65.0165950  15.3677030
   5.0121800  63.6183650  14.9095210   7.2758350  59.8474090   8.1428440
   7.1526130  59.8660220   7.1937950   8.2242910  59.8953030   8.2626840
   4.3635140  75.0829390   7.4156420   4.6176640  75.0450780   6.4935790
   3.4147620  74.9562720   7.4084670  12.0765710  60.7588090  15.5453570
  11.5739310  61.4993490  15.8847380  12.8922370  61.1472090  15.2290360
  10.3687720  66.0021270   8.9914930   9.4277860  66.0171500   9.1662620
  10.6831790  65.2157230   9.4375230  12.3713300  73.1730120  10.6669190
  12.4960720  73.9961290  11.1393000  13.2378860  72.9620850  10.3193340
   7.6853740  70.5587270  19.4747310   7.0791900  70.5818870  18.7343060
   7.3807850  69.8270310  20.0114560   9.1154110  74.2867560  18.0856720
  10.0675860  74.2025580  18.0356960   8.9682330  74.9509270  18.7590510
  12.0063310  73.6661770   3.5848630  11.7204820  73.2526910   2.7702810
  11.8082860  74.5949480   3.4649150   3.6224860  68.3451850  18.0043470
   2.8570530  68.9136850  17.9198140   3.8040820  68.0528060  17.1111700
   6.7113270  68.7215080   2.6296230   6.1623370  69.1684380   3.2738970
   7.3332530  68.2164330   3.1533900  10.7648210  70.0757180  18.5618490
  11.5057680  70.4132940  18.0585950  10.0020890  70.2449240  18.0088260
   2.3788390  67.6806000   4.5261530   2.8004810  67.5145870   5.3692920
   2.5039230  66.8706230   4.0316670   9.4393870  68.1272010  17.0973700
   9.8534890  68.2817090  17.9464120   8.5044870  68.2527230  17.2599480
   9.9116040  65.4668170  19.1012850  10.4936810  64.7120490  19.0133330
  10.0877810  65.9975610  18.3244330   3.7949550  59.1838160  14.4457190
   3.3466850  59.2062420  13.6002740   3.1614750  58.7857180  15.0427490
   4.2009100  68.0792490  15.0669630   4.6197210  68.9225220  14.8945870
   3.2817730  68.2164530  14.8376410   6.5373000  65.8108670  16.4507470
   6.6569210  65.2149810  17.1902310   7.3967000  65.8478360  16.0308770
   8.8760900  66.3645860  15.0269980   8.3496120  66.8888480  14.4235120
   9.2192240  66.9973250  15.6579710   2.0516520  74.3845500  16.1827360
   1.5137610  75.1091560  15.8636060   2.3050480  73.9075840  15.3924700
   3.3041770  62.3530020  17.7083290   3.8941460  62.0445870  18.3961110
   2.4862010  61.8809770  17.8643190   8.1235200  61.9695830  17.9416310
   7.4350720  61.3077370  17.8766300   8.8441220  61.5234100  18.3864770
   8.7535600  58.5647460   4.0006570   9.0337890  57.7215360   4.3565990
   7.9801330  58.7970570   4.5145320   4.9078730  75.6196710  16.4414010
   4.8337430  76.5231850  16.7486380   4.0057570  75.3008610  16.4136080
   3.2915020  59.7974470   2.4453770   2.9437020  59.1198460   1.8656220
   3.4927790  59.3363980   3.2597160   5.4564060  74.7855220   4.0640370
   6.3514850  75.1240190   4.0859130   5.4881690  74.0634630   3.4364650
  12.4358410  73.3158890  16.7706570  11.8360400  73.3751450  16.0270490
  12.5652310  72.3763870  16.9003420  13.6759860  71.0576710   2.1076280
  12.8452820  71.1253360   2.5783510  13.8531690  71.9480830   1.8043140
  13.1316320  67.8024190   4.6110480  13.8935230  68.3720840   4.7170170
  13.1470690  67.2351390   5.3818790  14.1376290  68.6574290   9.4552410
  14.5085120  67.8741610   9.0488380  14.7778220  69.3463390   9.2769710
  11.1210050  70.0410870  14.8682730  10.3069890  70.4708030  15.1308520
  11.5284250  70.6529280  14.2551780  13.1835490  68.0958560   1.7683000
  13.4584330  69.0037440   1.6402220  12.9946230  68.0321090   2.7044990
   9.5811100  61.1203410   3.0636630   9.9995980  60.9334390   2.2233290
   9.2747160  60.2682460   3.3739560  13.0800830  66.0327550   6.7612430
  12.7044430  65.2655480   6.3293720  12.3503950  66.4150250   7.2487360
  12.4700450  65.1799070  16.3951950  12.2386540  64.9511820  15.4949900
  12.7305000  66.0998620  16.3496840  10.9088520  60.4055500  19.1731650
  11.7858700  60.4138900  19.5565650  10.9209360  59.6686340  18.5624000
  12.3551790  64.2585040  10.0619670  12.8789270  63.7647690   9.4309840
  12.9411210  64.3935400  10.8067240  12.5341510  64.3424910  13.5839220
  11.5844220  64.3088450  13.6984210  12.7154520  65.2525020  13.3488990
  11.8451760  63.5158390   6.0012080  12.3410880  63.2829260   6.7860960
  11.6467830  62.6770230   5.5849720  13.2738920  62.1519340   8.5349760
  13.1638200  61.9975380   9.4732030  14.0346510  61.6240280   8.2925170
  11.6204640  58.0913470  14.9932760  12.2576860  58.7047610  15.3591950
  11.7679530  58.1274130  14.0481990  14.1629190  59.9827260   1.7755900
  15.0878500  59.8508440   1.5674190  14.1404980  60.0620080   2.7292350
  14.2367680  60.7537920   4.4012610  13.4419180  60.6883040   4.9305520
  14.4410960  61.6888560   4.3897960  11.1786100  74.7929470   8.3951000
  11.7745170  74.4714040   7.7185420  11.4364250  74.3201290   9.1864270
   2.7854700  72.7806970  14.1451350   2.5446060  73.0481530  13.2581870
   3.7257340  72.9512700  14.2002210   4.9909120  59.2439660  17.9007860
   4.9298010  59.8361490  18.6503270   5.9309500  59.1365620  17.7558120
   7.6283680  58.9009720  17.5400150   8.2424090  59.2189010  16.8781230
   8.1733240  58.4158310  18.1596010  14.0458860  74.8001350  14.9461990
  13.5517140  75.1970220  14.2289120  13.4372150  74.1750560  15.3399270
   8.3691720  57.4641860  13.8669440   7.4951560  57.7976970  13.6642370
   8.2602470  56.9915040  14.6921310   9.2763700  59.6712730  15.2511160
   8.9477060  58.8564490  14.8712890  10.2246000  59.6282540  15.1276850
  11.7298310  75.4424770  12.2248730  11.2701280  76.1940580  11.8506750
  11.1010770  74.7231240  12.1663530   2.1594030  73.7513010  11.3996860
   2.6759050  73.1400370  10.8745120   2.8091410  74.2541790  11.8907870
   4.8989530  74.6421500  12.2265840   5.1867340  74.3875800  11.3498850
   5.4112750  74.0898860  12.8171410   6.1166540  58.3811700  12.8062350
   5.3338330  58.8557200  13.0859110   5.8229470  57.4766530  12.6975530
  10.6687610  59.0834800  10.8511440  11.1095700  59.0279900  10.0033040
  10.3995200  59.9992810  10.9221620  12.5326180  58.7150040   8.8620260
  12.4714580  57.7711260   8.7151280  13.3118210  58.8230130   9.4073720
   4.0020760  60.7998450   8.3178380   3.1895270  60.4255340   7.9774260
   4.5062400  60.0443530   8.6199570   8.5045740  57.4640900   9.5561450
   9.1075110  58.0361110  10.0309970   7.7638730  58.0280340   9.3335350
  11.6480340  57.8662460   4.8301730  11.8430970  58.7645910   5.0969160
  10.8610210  57.6349540   5.3234680   2.0269940  58.9498370   6.9223430
   1.3972680  58.2485680   7.0893560   1.4875080  59.7102500   6.7056590
   4.9661890  75.5637600  19.5934040   5.8929200  75.3281870  19.6370000
   4.9512320  76.3909600  19.1120070  13.2006950  75.1063170   6.5908290
  13.3759140  74.4200910   5.9469210  12.5028520  75.6310220   6.1984960
   2.1525500  58.2282350  19.3575920   1.8709770  58.7315950  18.5936740
   2.5345200  57.4304100  18.9918050   8.7540960  57.6435930  19.9356390
   8.6406410  57.9630540  20.8307910   9.5710700  58.0448440  19.6393670
  11.5339450  74.7907460  19.4175080  12.3264770  74.2956690  19.2101040
  11.8272600  75.4697600  20.0250690   7.6599110  46.8884910  65.3965090
   7.5793160  45.9739520  65.1256800   7.2463530  47.3851980  64.6904800
   5.7917150  48.6663930  67.2774360   5.0159250  48.1864370  67.5672930
   6.4430080  47.9869580  67.1030520   9.8124580  53.0724120  66.0573490
   9.3506110  52.3011360  66.3860660  10.6250130  53.0990190  66.5625940
   6.0387890  55.3582130  65.6777480   5.4199330  55.8139630  65.1071920
   6.8939670  55.5133590  65.2767180   5.2326140  51.3421120  67.2844520
   5.1634420  50.4011060  67.1233650   5.9946000  51.4322530  67.8567090
   6.2631310  44.1491500  67.5113450   6.6396130  43.2763380  67.3987120
   6.1650820  44.4850200  66.6203890  10.0455430  41.6441940  64.4441790
  10.8665050  41.1538510  64.4867270  10.0789510  42.2339600  65.1973630
   2.2344050  45.4903500  67.3056070   2.7422270  45.9884470  67.9461090
   2.7657290  44.7138700  67.1295430  14.3354980  43.6608690  71.0085420
  13.6307150  44.0490400  70.4900530  14.6012900  44.3558980  71.6106350
   6.9051240  50.2421370  63.0709390   6.2868510  50.7070820  62.5072110
   7.4174490  50.9348850  63.4878900   1.7683000  49.7697240  69.7492990
   1.4352380  50.3966160  70.3914060   1.9449680  50.2959120  68.9694660
  10.2816910  43.5842320  67.2169330   9.5772480  43.8727210  67.7972440
  10.6429070  44.3942430  66.8568890  11.8979690  53.2017450  69.4796810
  11.2143210  53.8716560  69.4713480  12.4373980  53.3998100  68.7141670
  13.3503830  43.0297110  67.6078540  12.4028740  43.0636090  67.7393970
  13.6753820  43.8436060  67.9927900   3.8823370  39.3294290  65.9034530
   4.1898350  38.7741180  65.1870030   2.9524070  39.4638750  65.7207520
   9.4338430  55.0461580  68.1941990   9.4465590  54.6423870  67.3264250
   8.8813650  55.8208870  68.0903420  10.7283850  51.7677800  63.2832160
  10.6180180  50.8252130  63.4081580  10.7252100  52.1293440  64.1694920
   8.8323870  49.9491420  69.5224600   9.2492660  49.7351530  68.6878060
   9.5563690  50.2064210  70.0933220   6.2704130  47.3943120  62.6394650
   5.3433410  47.3280500  62.8683120   6.4228950  48.3323250  62.5249890
   6.2573210  43.6660120  59.6361810   5.3176880  43.8274080  59.7214270
   6.5756470  44.3845800  59.0897800  12.7785970  48.3478640  69.6140840
  11.9504600  48.4171730  69.1390970  13.3736450  48.9332950  69.1456670
  10.3001420  48.9563420  63.1429900   9.6813840  48.6182970  62.4956200
  10.2825870  48.3123180  63.8509090   9.7427980  45.1347960  70.5595710
   9.3299160  45.9601670  70.8135700   9.0103930  44.5493000  70.3672070
   1.8760770  47.9207860  65.4214380   1.4717770  47.2085110  64.9260280
   1.9623890  47.5761100  66.3102420   2.3442470  51.6075420  67.5853590
   2.0470760  51.0020890  66.9061370   3.2942290  51.6452730  67.4742950
  10.4328080  55.1807290  71.2476690   9.9558640  55.9879480  71.0549300
   9.7489870  54.5285620  71.4002900   8.4766120  48.1950230  60.1502650
   8.9159400  47.3572660  60.0040470   9.1894540  48.8279630  60.2366790
   6.5861500  53.1346300  64.1183890   7.0257410  53.8770630  63.7039280
   6.5248390  53.3772870  65.0422850   2.0612470  54.1592130  75.0203910
   2.0327900  54.5635080  74.1532340   1.8977440  53.2302490  74.8575510
  12.0583260  39.4493040  58.4643690  11.7455920  39.5419870  59.3642760
  12.8195730  40.0274070  58.4141120  13.4160540  52.1332080  73.4768090
  13.5423600  51.8943960  72.5585270  13.4581920  51.3016620  73.9490170
   7.2777280  55.8360080  72.0462900   7.7921950  55.7468090  72.8485330
   6.4346360  56.1819780  72.3390810   9.2531680  56.1215420  61.4746900
   9.0932820  55.8318360  62.3728730   9.0878390  55.3455550  60.9392130
   8.9557810  53.6302980  60.0344900   8.2622970  53.6280270  59.3747180
   9.6980670  53.2062300  59.6039070   8.5207740  55.2565690  64.1093390
   8.9764690  54.4755070  64.4232010   8.8600260  55.9672510  64.6534570
  13.2684550  44.1864540  74.4417830  12.6528820  44.6944210  73.9133290
  12.9480970  43.2862870  74.3843770   5.3298870  43.0256430  71.9080020
   4.8678240  43.2339450  72.7199960   4.9276980  42.2115780  71.6050690
  10.3303380  44.2465380  73.0376680   9.4796970  43.9471130  73.3585750
  10.1705170  44.4907390  72.1260500   7.4253090  45.7467130  75.1375470
   7.7506500  44.9130880  74.7977700   8.2133420  46.2695650  75.2853800
   4.1587880  39.7798610  61.1850530   3.5342060  39.7758480  61.9103840
   4.0718000  38.9129570  60.7886500   3.0804960  40.7035240  68.1634300
   3.3777290  41.6098070  68.0826320   3.6290520  40.2154020  67.5493870
   8.0641040  45.2884850  62.6316600   7.4649930  46.0120650  62.4480220
   8.6120650  45.2261630  61.8493050   3.2742490  46.1807060  74.6986220
   3.1786090  45.2401790  74.5486620   4.1174470  46.4022130  74.3034290
   6.6705910  43.9248390  64.6619880   7.0635480  44.2420590  63.8488570
   7.0322760  43.0460270  64.7764400   7.2561050  46.5154140  68.7570660
   6.5242170  47.0240950  69.1060760   6.8585390  45.6984120  68.4559440
   3.6938440  43.1908340  67.1623150   3.6974500  42.7498290  66.3127690
   4.5889560  43.5125670  67.2694970   3.7558590  44.1920420  60.1529910
   3.8771410  44.1506900  61.1015730   3.3707100  45.0544570  59.9976640
   7.7186960  41.9687820  68.1693600   7.7359700  42.4196470  69.0135450
   7.4702540  41.0693460  68.3827040   2.7680090  46.5021560  59.5513210
   2.1996990  46.0539810  58.9249120   3.4769090  46.8614340  59.0178360
  11.1457710  39.3820000  74.0079980  11.4703480  38.6509660  74.5337960
  11.1814220  39.0633640  73.1060970   3.9946410  47.2510120  68.9088560
   4.3616540  46.7768690  69.6549900   3.8051470  48.1251690  69.2496900
   1.7845780  46.2918760  71.2272770   1.4802850  47.1710740  71.4523130
   2.7392240  46.3518550  71.2630210  11.0715550  49.4945110  67.6166010
  11.7914670  49.9900400  67.2262120  10.8697370  48.8163000  66.9719880
   6.5325490  40.8883070  61.7595400   5.7190100  40.3896240  61.6840710
   6.3387440  41.7281320  61.3431750   6.4534350  49.5654170  73.5035010
   6.3871660  48.6449840  73.2492600   5.8239490  49.6629610  74.2179650
   9.2473880  45.2602720  60.0557560  10.1353500  45.5719950  59.8808900
   9.2178970  44.3874970  59.6638140   5.2434470  51.4326410  60.7345730
   5.5850170  52.1768640  60.2389050   4.4147180  51.7457530  61.0970560
   6.3851080  52.3874740  73.2538810   6.3995620  51.4555700  73.0357720
   5.6776180  52.4734500  73.8928580  11.5188150  46.5714560  59.5237420
  11.4351870  47.0028780  58.6733860  12.2382340  47.0312910  59.9564240
  12.5962290  49.0282080  72.6007390  11.8710480  49.6210860  72.4036780
  13.1237750  49.0205620  71.8020760  12.5475400  53.4256820  62.2519550
  11.9051560  52.7712440  62.5263270  12.1606060  53.8311910  61.4760220
   8.1261880  50.7542250  66.0991240   8.4785700  50.1570380  65.4392610
   7.2424210  50.4286480  66.2699490   4.2125160  51.5139940  63.5061650
   4.8996290  52.0609150  63.8869240   3.4257580  52.0580670  63.5411260
   3.5152370  48.5185970  63.1187010   3.9715150  49.3291220  63.3447200
   3.1640580  48.2009110  63.9505500   5.8184980  54.0292310  70.3479310
   6.4627200  54.2351690  71.0252730   6.1814420  53.2680710  69.8950160
   7.0917060  52.0324660  69.0656760   7.7339290  51.3317820  69.1788930
   7.6166410  52.8123100  68.8853650  10.9372780  52.3173280  58.7895900
  10.7110360  51.6003720  59.3820540  10.5468980  52.0685720  57.9517650
   8.8654680  52.8319560  72.2692820   9.2010920  53.4186250  72.9470740
   7.9455020  52.7012270  72.4990610  10.5189030  50.2345220  60.4510060
  10.2310730  50.6957910  61.2387940  11.3141200  49.7742990  60.7194280
   4.6943260  52.8810890  75.4380880   4.3740130  52.1620130  75.9826570
   4.0201620  53.5565960  75.5116940   2.7357430  53.7271340  60.3814030
   2.7267530  54.4601030  59.7658540   1.8155790  53.4802920  60.4740990
   7.9096860  43.1137050  70.8017680   8.2777680  42.2932260  71.1297250
   7.0495060  43.1738940  71.2173330  11.2758890  42.0693990  61.6105240
  10.6472050  42.1739660  60.8963470  10.7810810  42.2890770  62.3999120
   5.7217030  53.7899580  59.0439220   5.8229010  53.5863570  58.1141200
   4.8218770  53.5357860  59.2487000   3.2442920  44.3479940  63.0263120
   2.5359070  44.8166280  63.4676730   3.5287400  43.6901950  63.6608310
   4.8698850  45.7676640  71.0255650   5.3684100  46.2422460  71.6907500
   5.0121800  44.8440160  71.2325680   7.2758350  41.0730600  64.4658910
   7.1526130  41.0916730  63.5168420   8.2242910  41.1209540  64.5857310
   4.3635140  56.3085900  63.7386890   4.6176640  56.2707290  62.8166260
   3.4147620  56.1819230  63.7315140  12.0765710  41.9844600  71.8684040
  11.5739310  42.7250000  72.2077850  12.8922370  42.3728600  71.5520830
  10.3687720  47.2277780  65.3145400   9.4277860  47.2428010  65.4893090
  10.6831790  46.4413740  65.7605700  12.3713300  54.3986630  66.9899660
  12.4960720  55.2217800  67.4623470  13.2378860  54.1877360  66.6423810
   2.9533140  55.6648150  58.4842360   3.7461750  55.9536980  58.0324150
   2.4337490  55.2340320  57.8054840   9.1154110  55.5124070  74.4087190
  10.0675860  55.4282090  74.3587430   8.9682330  56.1765780  75.0820980
  12.0063310  54.8918280  59.9079100  11.7204820  54.4783420  59.0933280
  11.8082860  55.8205990  59.7879620   3.4710540  50.8851560  58.3484710
   3.3661180  50.2703910  59.0746090   3.3034760  50.3617450  57.5647720
   3.6224860  49.5708360  74.3273940   2.8570530  50.1393360  74.2428610
   3.8040820  49.2784570  73.4342170   6.7113270  49.9471590  58.9526700
   6.1623370  50.3940890  59.5969440   7.3332530  49.4420840  59.4764370
  10.7648210  51.3013690  74.8848960  11.5057680  51.6389450  74.3816420
  10.0020890  51.4705750  74.3318730   2.3788390  48.9062510  60.8492000
   2.8004810  48.7402380  61.6923390   2.5039230  48.0962740  60.3547140
   4.8916030  47.9300120  58.0969100   5.4121690  47.2149140  57.7310250
   5.5384430  48.5685990  58.3969610   9.4393870  49.3528520  73.4204170
   9.8534890  49.5073600  74.2694590   8.5044870  49.4783740  73.5829950
   9.9116040  46.6924680  75.4243320  10.4936810  45.9377000  75.3363800
  10.0877810  47.2232120  74.6474800   3.7949550  40.4094670  70.7687660
   3.3466850  40.4318930  69.9233210   3.1614750  40.0113690  71.3657960
   4.2009100  49.3049000  71.3900100   4.6197210  50.1481730  71.2176340
   3.2817730  49.4421040  71.1606880   6.5373000  47.0365180  72.7737940
   6.6569210  46.4406320  73.5132780   7.3967000  47.0734870  72.3539240
   8.8760900  47.5902370  71.3500450   8.3496120  48.1144990  70.7465590
   9.2192240  48.2229760  71.9810180   2.0516520  55.6102010  72.5057830
   1.5137610  56.3348070  72.1866530   2.3050480  55.1332350  71.7155170
   3.3041770  43.5786530  74.0313760   3.8941460  43.2702380  74.7191580
   2.4862010  43.1066280  74.1873660   8.1235200  43.1952340  74.2646780
   7.4350720  42.5333880  74.1996770   8.8441220  42.7490610  74.7095240
   8.7535600  39.7903970  60.3237040   9.0337890  38.9471870  60.6796460
   7.9801330  40.0227080  60.8375790   4.9078730  56.8453220  72.7644480
   4.8337430  57.7488360  73.0716850   4.0057570  56.5265120  72.7366550
   3.2915020  41.0230980  58.7684240   2.9437020  40.3454970  58.1886690
   3.4927790  40.5620490  59.5827630   5.4564060  56.0111730  60.3870840
   6.3514850  56.3496700  60.4089600   5.4881690  55.2891140  59.7595120
  12.4358410  54.5415400  73.0937040  11.8360400  54.6007960  72.3500960
  12.5652310  53.6020380  73.2233890  13.6759860  52.2833220  58.4306750
  12.8452820  52.3509870  58.9013980  13.8531690  53.1737340  58.1273610
  13.1316320  49.0280700  60.9340950  13.8935230  49.5977350  61.0400640
  13.1470690  48.4607900  61.7049260  14.1376290  49.8830800  65.7782880
  14.5085120  49.0998120  65.3718850  14.7778220  50.5719900  65.6000180
  11.1210050  51.2667380  71.1913200  10.3069890  51.6964540  71.4538990
  11.5284250  51.8785790  70.5782250  13.1835490  49.3215070  58.0913470
  13.4584330  50.2293950  57.9632690  12.9946230  49.2577600  59.0275460
   9.5811100  42.3459920  59.3867100   9.9995980  42.1590900  58.5463760
   9.2747160  41.4938970  59.6970030  13.0800830  47.2584060  63.0842900
  12.7044430  46.4911990  62.6524190  12.3503950  47.6406760  63.5717830
  12.4700450  46.4055580  72.7182420  12.2386540  46.1768330  71.8180370
  12.7305000  47.3255130  72.6727310  10.9088520  41.6312010  75.4962120
  11.7858700  41.6395410  75.8796120  10.9209360  40.8942850  74.8854470
  12.3551790  45.4841550  66.3850140  12.8789270  44.9904200  65.7540310
  12.9411210  45.6191910  67.1297710  12.5341510  45.5681420  69.9069690
  11.5844220  45.5344960  70.0214680  12.7154520  46.4781530  69.6719460
  11.8451760  44.7414900  62.3242550  12.3410880  44.5085770  63.1091430
  11.6467830  43.9026740  61.9080190  13.2738920  43.3775850  64.8580230
  13.1638200  43.2231890  65.7962500  14.0346510  42.8496790  64.6155640
  11.6204640  39.3169980  71.3163230  12.2576860  39.9304120  71.6822420
  11.7679530  39.3530640  70.3712460  14.1629190  41.2083770  58.0986370
  15.0878500  41.0764950  57.8904660  14.1404980  41.2876590  59.0522820
  14.2367680  41.9794430  60.7243080  13.4419180  41.9139550  61.2535990
  14.4410960  42.9145070  60.7128430  11.1786100  56.0185980  64.7181470
  11.7745170  55.6970550  64.0415890  11.4364250  55.5457800  65.5094740
   2.7854700  54.0063480  70.4681820   2.5446060  54.2738040  69.5812340
   3.7257340  54.1769210  70.5232680   4.9909120  40.4696170  74.2238330
   4.9298010  41.0618000  74.9733740   5.9309500  40.3622130  74.0788590
   7.6283680  40.1266230  73.8630620   8.2424090  40.4445520  73.2011700
   8.1733240  39.6414820  74.4826480  14.0458860  56.0257860  71.2692460
  13.5517140  56.4226730  70.5519590  13.4372150  55.4007070  71.6629740
   8.3691720  38.6898370  70.1899910   7.4951560  39.0233480  69.9872840
   8.2602470  38.2171550  71.0151780   9.2763700  40.8969240  71.5741630
   8.9477060  40.0821000  71.1943360  10.2246000  40.8539050  71.4507320
  11.7298310  56.6681280  68.5479200  11.2701280  57.4197090  68.1737220
  11.1010770  55.9487750  68.4894000   2.1594030  54.9769520  67.7227330
   2.6759050  54.3656880  67.1975590   2.8091410  55.4798300  68.2138340
   4.8989530  55.8678010  68.5496310   5.1867340  55.6132310  67.6729320
   5.4112750  55.3155370  69.1401880   6.1166540  39.6068210  69.1292820
   5.3338330  40.0813710  69.4089580   5.8229470  38.7023040  69.0206000
  10.6687610  40.3091310  67.1741910  11.1095700  40.2536410  66.3263510
  10.3995200  41.2249320  67.2452090  12.5326180  39.9406550  65.1850730
  12.4714580  38.9967770  65.0381750  13.3118210  40.0486640  65.7304190
   4.0020760  42.0254960  64.6408850   3.1895270  41.6511850  64.3004730
   4.5062400  41.2700040  64.9430040   8.5045740  38.6897410  65.8791920
   9.1075110  39.2617620  66.3540440   7.7638730  39.2536850  65.6565820
  11.6480340  39.0918970  61.1532200  11.8430970  39.9902420  61.4199630
  10.8610210  38.8606050  61.6465150   2.0269940  40.1754880  63.2453900
   1.3972680  39.4742190  63.4124030   1.4875080  40.9359010  63.0287060
   4.9661890  56.7894110  75.9164510   5.8929200  56.5538380  75.9600470
   4.9512320  57.6166110  75.4350540  13.2006950  56.3319680  62.9138760
  13.3759140  55.6457420  62.2699680  12.5028520  56.8566730  62.5215430
   2.1525500  39.4538860  75.6806390   1.8709770  39.9572460  74.9167210
   2.5345200  38.6560610  75.3148520   7.6599110  46.8884910  46.6221600
   7.5793160  45.9739520  46.3513310   7.2463530  47.3851980  45.9161310
   5.7917150  48.6663930  48.5030870   5.0159250  48.1864370  48.7929440
   6.4430080  47.9869580  48.3287030   9.8124580  53.0724120  47.2830000
   9.3506110  52.3011360  47.6117170  10.6250130  53.0990190  47.7882450
   6.0387890  55.3582130  46.9033990   5.4199330  55.8139630  46.3328430
   6.8939670  55.5133590  46.5023690   5.2326140  51.3421120  48.5101030
   5.1634420  50.4011060  48.3490160   5.9946000  51.4322530  49.0823600
   6.2631310  44.1491500  48.7369960   6.6396130  43.2763380  48.6243630
   6.1650820  44.4850200  47.8460400  10.0455430  41.6441940  45.6698300
  10.8665050  41.1538510  45.7123780  10.0789510  42.2339600  46.4230140
   2.2344050  45.4903500  48.5312580   2.7422270  45.9884470  49.1717600
   2.7657290  44.7138700  48.3551940  14.3354980  43.6608690  52.2341930
  13.6307150  44.0490400  51.7157040  14.6012900  44.3558980  52.8362860
   6.9051240  50.2421370  44.2965900   6.2868510  50.7070820  43.7328620
   7.4174490  50.9348850  44.7135410   1.7683000  49.7697240  50.9749500
   1.4352380  50.3966160  51.6170570   1.9449680  50.2959120  50.1951170
  10.2816910  43.5842320  48.4425840   9.5772480  43.8727210  49.0228950
  10.6429070  44.3942430  48.0825400  11.8979690  53.2017450  50.7053320
  11.2143210  53.8716560  50.6969990  12.4373980  53.3998100  49.9398180
  13.3503830  43.0297110  48.8335050  12.4028740  43.0636090  48.9650480
  13.6753820  43.8436060  49.2184410   3.8823370  39.3294290  47.1291040
   4.1898350  38.7741180  46.4126540   2.9524070  39.4638750  46.9464030
   9.4338430  55.0461580  49.4198500   9.4465590  54.6423870  48.5520760
   8.8813650  55.8208870  49.3159930  10.7283850  51.7677800  44.5088670
  10.6180180  50.8252130  44.6338090  10.7252100  52.1293440  45.3951430
   8.8323870  49.9491420  50.7481110   9.2492660  49.7351530  49.9134570
   9.5563690  50.2064210  51.3189730   6.2704130  47.3943120  43.8651160
   5.3433410  47.3280500  44.0939630   6.4228950  48.3323250  43.7506400
   6.2573210  43.6660120  40.8618320   5.3176880  43.8274080  40.9470780
   6.5756470  44.3845800  40.3154310  12.7785970  48.3478640  50.8397350
  11.9504600  48.4171730  50.3647480  13.3736450  48.9332950  50.3713180
  10.3001420  48.9563420  44.3686410   9.6813840  48.6182970  43.7212710
  10.2825870  48.3123180  45.0765600   9.7427980  45.1347960  51.7852220
   9.3299160  45.9601670  52.0392210   9.0103930  44.5493000  51.5928580
   1.8760770  47.9207860  46.6470890   1.4717770  47.2085110  46.1516790
   1.9623890  47.5761100  47.5358930   2.3442470  51.6075420  48.8110100
   2.0470760  51.0020890  48.1317880   3.2942290  51.6452730  48.6999460
  10.4328080  55.1807290  52.4733200   9.9558640  55.9879480  52.2805810
   9.7489870  54.5285620  52.6259410   8.4766120  48.1950230  41.3759160
   8.9159400  47.3572660  41.2296980   9.1894540  48.8279630  41.4623300
   6.5861500  53.1346300  45.3440400   7.0257410  53.8770630  44.9295790
   6.5248390  53.3772870  46.2679360   2.0612470  54.1592130  56.2460420
   2.0327900  54.5635080  55.3788850   1.8977440  53.2302490  56.0832020
  12.0583260  39.4493040  39.6900200  11.7455920  39.5419870  40.5899270
  12.8195730  40.0274070  39.6397630  14.0127290  54.9419230  57.5424590
  14.4887010  55.4202120  58.2213670  14.6334450  54.8736720  56.8170090
  13.4160540  52.1332080  54.7024600  13.5423600  51.8943960  53.7841780
  13.4581920  51.3016620  55.1746680   7.2777280  55.8360080  53.2719410
   7.7921950  55.7468090  54.0741840   6.4346360  56.1819780  53.5647320
   9.2531680  56.1215420  42.7003410   9.0932820  55.8318360  43.5985240
   9.0878390  55.3455550  42.1648640   8.9557810  53.6302980  41.2601410
   8.2622970  53.6280270  40.6003690   9.6980670  53.2062300  40.8295580
   8.5207740  55.2565690  45.3349900   8.9764690  54.4755070  45.6488520
   8.8600260  55.9672510  45.8791080  13.2684550  44.1864540  55.6674340
  12.6528820  44.6944210  55.1389800  12.9480970  43.2862870  55.6100280
   5.3298870  43.0256430  53.1336530   4.8678240  43.2339450  53.9456470
   4.9276980  42.2115780  52.8307200  10.3303380  44.2465380  54.2633190
   9.4796970  43.9471130  54.5842260  10.1705170  44.4907390  53.3517010
   7.4253090  45.7467130  56.3631980   7.7506500  44.9130880  56.0234210
   8.2133420  46.2695650  56.5110310   4.1587880  39.7798610  42.4107040
   3.5342060  39.7758480  43.1360350   4.0718000  38.9129570  42.0143010
   3.0804960  40.7035240  49.3890810   3.3777290  41.6098070  49.3082830
   3.6290520  40.2154020  48.7750380   8.0641040  45.2884850  43.8573110
   7.4649930  46.0120650  43.6736730   8.6120650  45.2261630  43.0749560
   3.2742490  46.1807060  55.9242730   3.1786090  45.2401790  55.7743130
   4.1174470  46.4022130  55.5290800   6.6705910  43.9248390  45.8876390
   7.0635480  44.2420590  45.0745080   7.0322760  43.0460270  46.0020910
   4.9798080  42.6755700  57.1473250   4.2896400  42.4827900  57.7819340
   5.7230380  42.9590340  57.6797550   7.2561050  46.5154140  49.9827170
   6.5242170  47.0240950  50.3317270   6.8585390  45.6984120  49.6815950
   3.6938440  43.1908340  48.3879660   3.6974500  42.7498290  47.5384200
   4.5889560  43.5125670  48.4951480   3.7558590  44.1920420  41.3786420
   3.8771410  44.1506900  42.3272240   3.3707100  45.0544570  41.2233150
   7.7186960  41.9687820  49.3950110   7.7359700  42.4196470  50.2391960
   7.4702540  41.0693460  49.6083550   2.7680090  46.5021560  40.7769720
   2.1996990  46.0539810  40.1505630   3.4769090  46.8614340  40.2434870
  11.1457710  39.3820000  55.2336490  11.4703480  38.6509660  55.7594470
  11.1814220  39.0633640  54.3317480   3.9946410  47.2510120  50.1345070
   4.3616540  46.7768690  50.8806410   3.8051470  48.1251690  50.4753410
   1.7845780  46.2918760  52.4529280   1.4802850  47.1710740  52.6779640
   2.7392240  46.3518550  52.4886720  11.0715550  49.4945110  48.8422520
  11.7914670  49.9900400  48.4518630  10.8697370  48.8163000  48.1976390
   6.5325490  40.8883070  42.9851910   5.7190100  40.3896240  42.9097220
   6.3387440  41.7281320  42.5688260   6.4534350  49.5654170  54.7291520
   6.3871660  48.6449840  54.4749110   5.8239490  49.6629610  55.4436160
   9.2473880  45.2602720  41.2814070  10.1353500  45.5719950  41.1065410
   9.2178970  44.3874970  40.8894650   5.2434470  51.4326410  41.9602240
   5.5850170  52.1768640  41.4645560   4.4147180  51.7457530  42.3227070
   6.3851080  52.3874740  54.4795320   6.3995620  51.4555700  54.2614230
   5.6776180  52.4734500  55.1185090  11.5188150  46.5714560  40.7493930
  11.4351870  47.0028780  39.8990370  12.2382340  47.0312910  41.1820750
  12.5962290  49.0282080  53.8263900  11.8710480  49.6210860  53.6293290
  13.1237750  49.0205620  53.0277270  12.5475400  53.4256820  43.4776060
  11.9051560  52.7712440  43.7519780  12.1606060  53.8311910  42.7016730
   8.1261880  50.7542250  47.3247750   8.4785700  50.1570380  46.6649120
   7.2424210  50.4286480  47.4956000   4.2125160  51.5139940  44.7318160
   4.8996290  52.0609150  45.1125750   3.4257580  52.0580670  44.7667770
   3.5152370  48.5185970  44.3443520   3.9715150  49.3291220  44.5703710
   3.1640580  48.2009110  45.1762010   5.8184980  54.0292310  51.5735820
   6.4627200  54.2351690  52.2509240   6.1814420  53.2680710  51.1206670
   7.0917060  52.0324660  50.2913270   7.7339290  51.3317820  50.4045440
   7.6166410  52.8123100  50.1110160  10.9372780  52.3173280  40.0152410
  10.7110360  51.6003720  40.6077050  10.5468980  52.0685720  39.1774160
   8.8654680  52.8319560  53.4949330   9.2010920  53.4186250  54.1727250
   7.9455020  52.7012270  53.7247120  10.5189030  50.2345220  41.6766570
  10.2310730  50.6957910  42.4644450  11.3141200  49.7742990  41.9450790
   4.6943260  52.8810890  56.6637390   4.3740130  52.1620130  57.2083080
   4.0201620  53.5565960  56.7373450   2.7357430  53.7271340  41.6070540
   2.7267530  54.4601030  40.9915050   1.8155790  53.4802920  41.6997500
   7.9096860  43.1137050  52.0274190   8.2777680  42.2932260  52.3553760
   7.0495060  43.1738940  52.4429840  11.2758890  42.0693990  42.8361750
  10.6472050  42.1739660  42.1219980  10.7810810  42.2890770  43.6255630
   5.7217030  53.7899580  40.2695730   5.8229010  53.5863570  39.3397710
   4.8218770  53.5357860  40.4743510   3.2442920  44.3479940  44.2519630
   2.5359070  44.8166280  44.6933240   3.5287400  43.6901950  44.8864820
   4.8698850  45.7676640  52.2512160   5.3684100  46.2422460  52.9164010
   5.0121800  44.8440160  52.4582190   7.2758350  41.0730600  45.6915420
   7.1526130  41.0916730  44.7424930   8.2242910  41.1209540  45.8113820
   4.3635140  56.3085900  44.9643400   4.6176640  56.2707290  44.0422770
   3.4147620  56.1819230  44.9571650  12.0765710  41.9844600  53.0940550
  11.5739310  42.7250000  53.4334360  12.8922370  42.3728600  52.7777340
  10.3687720  47.2277780  46.5401910   9.4277860  47.2428010  46.7149600
  10.6831790  46.4413740  46.9862210  12.3713300  54.3986630  48.2156170
  12.4960720  55.2217800  48.6879980  13.2378860  54.1877360  47.8680320
   2.9533140  55.6648150  39.7098870   3.7461750  55.9536980  39.2580660
   2.4337490  55.2340320  39.0311350   7.6853740  51.7843780  57.0234290
   7.0791900  51.8075380  56.2830040   7.3807850  51.0526820  57.5601540
   9.1154110  55.5124070  55.6343700  10.0675860  55.4282090  55.5843940
   8.9682330  56.1765780  56.3077490  12.0063310  54.8918280  41.1335610
  11.7204820  54.4783420  40.3189790  11.8082860  55.8205990  41.0136130
   3.4710540  50.8851560  39.5741220   3.3661180  50.2703910  40.3002600
   3.3034760  50.3617450  38.7904230   3.6224860  49.5708360  55.5530450
   2.8570530  50.1393360  55.4685120   3.8040820  49.2784570  54.6598680
   6.7113270  49.9471590  40.1783210   6.1623370  50.3940890  40.8225950
   7.3332530  49.4420840  40.7020880  10.7648210  51.3013690  56.1105470
  11.5057680  51.6389450  55.6072930  10.0020890  51.4705750  55.5575240
   2.3788390  48.9062510  42.0748510   2.8004810  48.7402380  42.9179900
   2.5039230  48.0962740  41.5803650   4.8916030  47.9300120  39.3225610
   5.4121690  47.2149140  38.9566760   5.5384430  48.5685990  39.6226120
   9.4393870  49.3528520  54.6460680   9.8534890  49.5073600  55.4951100
   8.5044870  49.4783740  54.8086460   9.9116040  46.6924680  56.6499830
  10.4936810  45.9377000  56.5620310  10.0877810  47.2232120  55.8731310
   3.7949550  40.4094670  51.9944170   3.3466850  40.4318930  51.1489720
   3.1614750  40.0113690  52.5914470   4.2009100  49.3049000  52.6156610
   4.6197210  50.1481730  52.4432850   3.2817730  49.4421040  52.3863390
   6.5373000  47.0365180  53.9994450   6.6569210  46.4406320  54.7389290
   7.3967000  47.0734870  53.5795750   8.8760900  47.5902370  52.5756960
   8.3496120  48.1144990  51.9722100   9.2192240  48.2229760  53.2066690
   2.0516520  55.6102010  53.7314340   1.5137610  56.3348070  53.4123040
   2.3050480  55.1332350  52.9411680   3.3041770  43.5786530  55.2570270
   3.8941460  43.2702380  55.9448090   2.4862010  43.1066280  55.4130170
   8.1235200  43.1952340  55.4903290   7.4350720  42.5333880  55.4253280
   8.8441220  42.7490610  55.9351750   8.7535600  39.7903970  41.5493550
   9.0337890  38.9471870  41.9052970   7.9801330  40.0227080  42.0632300
   4.9078730  56.8453220  53.9900990   4.8337430  57.7488360  54.2973360
   4.0057570  56.5265120  53.9623060   3.2915020  41.0230980  39.9940750
   2.9437020  40.3454970  39.4143200   3.4927790  40.5620490  40.8084140
   5.4564060  56.0111730  41.6127350   6.3514850  56.3496700  41.6346110
   5.4881690  55.2891140  40.9851630  12.4358410  54.5415400  54.3193550
  11.8360400  54.6007960  53.5757470  12.5652310  53.6020380  54.4490400
  13.6759860  52.2833220  39.6563260  12.8452820  52.3509870  40.1270490
  13.8531690  53.1737340  39.3530120  13.1316320  49.0280700  42.1597460
  13.8935230  49.5977350  42.2657150  13.1470690  48.4607900  42.9305770
  14.1376290  49.8830800  47.0039390  14.5085120  49.0998120  46.5975360
  14.7778220  50.5719900  46.8256690  11.1210050  51.2667380  52.4169710
  10.3069890  51.6964540  52.6795500  11.5284250  51.8785790  51.8038760
  13.1835490  49.3215070  39.3169980  13.4584330  50.2293950  39.1889200
  12.9946230  49.2577600  40.2531970   9.5811100  42.3459920  40.6123610
   9.9995980  42.1590900  39.7720270   9.2747160  41.4938970  40.9226540
  13.0800830  47.2584060  44.3099410  12.7044430  46.4911990  43.8780700
  12.3503950  47.6406760  44.7974340  12.4700450  46.4055580  53.9438930
  12.2386540  46.1768330  53.0436880  12.7305000  47.3255130  53.8983820
  10.9088520  41.6312010  56.7218630  11.7858700  41.6395410  57.1052630
  10.9209360  40.8942850  56.1110980  12.3551790  45.4841550  47.6106650
  12.8789270  44.9904200  46.9796820  12.9411210  45.6191910  48.3554220
  12.5341510  45.5681420  51.1326200  11.5844220  45.5344960  51.2471190
  12.7154520  46.4781530  50.8975970  11.8451760  44.7414900  43.5499060
  12.3410880  44.5085770  44.3347940  11.6467830  43.9026740  43.1336700
  13.2738920  43.3775850  46.0836740  13.1638200  43.2231890  47.0219010
  14.0346510  42.8496790  45.8412150  11.6204640  39.3169980  52.5419740
  12.2576860  39.9304120  52.9078930  11.7679530  39.3530640  51.5968970
  14.1629190  41.2083770  39.3242880  15.0878500  41.0764950  39.1161170
  14.1404980  41.2876590  40.2779330  14.2367680  41.9794430  41.9499590
  13.4419180  41.9139550  42.4792500  14.4410960  42.9145070  41.9384940
  11.1786100  56.0185980  45.9437980  11.7745170  55.6970550  45.2672400
  11.4364250  55.5457800  46.7351250   2.7854700  54.0063480  51.6938330
   2.5446060  54.2738040  50.8068850   3.7257340  54.1769210  51.7489190
   4.9909120  40.4696170  55.4494840   4.9298010  41.0618000  56.1990250
   5.9309500  40.3622130  55.3045100   7.6283680  40.1266230  55.0887130
   8.2424090  40.4445520  54.4268210   8.1733240  39.6414820  55.7082990
  14.0458860  56.0257860  52.4948970  13.5517140  56.4226730  51.7776100
  13.4372150  55.4007070  52.8886250   8.3691720  38.6898370  51.4156420
   7.4951560  39.0233480  51.2129350   8.2602470  38.2171550  52.2408290
   9.2763700  40.8969240  52.7998140   8.9477060  40.0821000  52.4199870
  10.2246000  40.8539050  52.6763830  11.7298310  56.6681280  49.7735710
  11.2701280  57.4197090  49.3993730  11.1010770  55.9487750  49.7150510
   2.1594030  54.9769520  48.9483840   2.6759050  54.3656880  48.4232100
   2.8091410  55.4798300  49.4394850   4.8989530  55.8678010  49.7752820
   5.1867340  55.6132310  48.8985830   5.4112750  55.3155370  50.3658390
   6.1166540  39.6068210  50.3549330   5.3338330  40.0813710  50.6346090
   5.8229470  38.7023040  50.2462510  10.6687610  40.3091310  48.3998420
  11.1095700  40.2536410  47.5520020  10.3995200  41.2249320  48.4708600
  12.5326180  39.9406550  46.4107240  12.4714580  38.9967770  46.2638260
  13.3118210  40.0486640  46.9560700   4.0020760  42.0254960  45.8665360
   3.1895270  41.6511850  45.5261240   4.5062400  41.2700040  46.1686550
   8.5045740  38.6897410  47.1048430   9.1075110  39.2617620  47.5796950
   7.7638730  39.2536850  46.8822330  11.6480340  39.0918970  42.3788710
  11.8430970  39.9902420  42.6456140  10.8610210  38.8606050  42.8721660
   2.0269940  40.1754880  44.4710410   1.3972680  39.4742190  44.6380540
   1.4875080  40.9359010  44.2543570   4.9661890  56.7894110  57.1421020
   5.8929200  56.5538380  57.1856980   4.9512320  57.6166110  56.6607050
  13.2006950  56.3319680  44.1395270  13.3759140  55.6457420  43.4956190
  12.5028520  56.8566730  43.7471940   2.1525500  39.4538860  56.9062900
   1.8709770  39.9572460  56.1423720   2.5345200  38.6560610  56.5405030
   8.7540960  38.8692440  57.4843370   8.6406410  39.1887050  58.3794890
   9.5710700  39.2704950  57.1880650  11.5339450  56.0163970  56.9662060
  12.3264770  55.5213200  56.7588020  11.8272600  56.6954110  57.5737670
   7.6599110  46.8884910  27.8478110   7.5793160  45.9739520  27.5769820
   7.2463530  47.3851980  27.1417820   5.7917150  48.6663930  29.7287380
   5.0159250  48.1864370  30.0185950   6.4430080  47.9869580  29.5543540
   9.8124580  53.0724120  28.5086510   9.3506110  52.3011360  28.8373680
  10.6250130  53.0990190  29.0138960   6.0387890  55.3582130  28.1290500
   5.4199330  55.8139630  27.5584940   6.8939670  55.5133590  27.7280200
   5.2326140  51.3421120  29.7357540   5.1634420  50.4011060  29.5746670
   5.9946000  51.4322530  30.3080110   6.2631310  44.1491500  29.9626470
   6.6396130  43.2763380  29.8500140   6.1650820  44.4850200  29.0716910
  10.0455430  41.6441940  26.8954810  10.8665050  41.1538510  26.9380290
  10.0789510  42.2339600  27.6486650   2.2344050  45.4903500  29.7569090
   2.7422270  45.9884470  30.3974110   2.7657290  44.7138700  29.5808450
  14.3354980  43.6608690  33.4598440  13.6307150  44.0490400  32.9413550
  14.6012900  44.3558980  34.0619370   6.9051240  50.2421370  25.5222410
   6.2868510  50.7070820  24.9585130   7.4174490  50.9348850  25.9391920
   1.7683000  49.7697240  32.2006010   1.4352380  50.3966160  32.8427080
   1.9449680  50.2959120  31.4207680  10.2816910  43.5842320  29.6682350
   9.5772480  43.8727210  30.2485460  10.6429070  44.3942430  29.3081910
  11.8979690  53.2017450  31.9309830  11.2143210  53.8716560  31.9226500
  12.4373980  53.3998100  31.1654690  13.3503830  43.0297110  30.0591560
  12.4028740  43.0636090  30.1906990  13.6753820  43.8436060  30.4440920
   3.8823370  39.3294290  28.3547550   4.1898350  38.7741180  27.6383050
   2.9524070  39.4638750  28.1720540   9.4338430  55.0461580  30.6455010
   9.4465590  54.6423870  29.7777270   8.8813650  55.8208870  30.5416440
  10.7283850  51.7677800  25.7345180  10.6180180  50.8252130  25.8594600
  10.7252100  52.1293440  26.6207940   8.8323870  49.9491420  31.9737620
   9.2492660  49.7351530  31.1391080   9.5563690  50.2064210  32.5446240
   6.2704130  47.3943120  25.0907670   5.3433410  47.3280500  25.3196140
   6.4228950  48.3323250  24.9762910   6.2573210  43.6660120  22.0874830
   5.3176880  43.8274080  22.1727290   6.5756470  44.3845800  21.5410820
  12.7785970  48.3478640  32.0653860  11.9504600  48.4171730  31.5903990
  13.3736450  48.9332950  31.5969690  10.3001420  48.9563420  25.5942920
   9.6813840  48.6182970  24.9469220  10.2825870  48.3123180  26.3022110
   9.7427980  45.1347960  33.0108730   9.3299160  45.9601670  33.2648720
   9.0103930  44.5493000  32.8185090   1.8760770  47.9207860  27.8727400
   1.4717770  47.2085110  27.3773300   1.9623890  47.5761100  28.7615440
   2.3442470  51.6075420  30.0366610   2.0470760  51.0020890  29.3574390
   3.2942290  51.6452730  29.9255970  10.4328080  55.1807290  33.6989710
   9.9558640  55.9879480  33.5062320   9.7489870  54.5285620  33.8515920
   8.4766120  48.1950230  22.6015670   8.9159400  47.3572660  22.4553490
   9.1894540  48.8279630  22.6879810   6.5861500  53.1346300  26.5696910
   7.0257410  53.8770630  26.1552300   6.5248390  53.3772870  27.4935870
   2.0612470  54.1592130  37.4716930   2.0327900  54.5635080  36.6045360
   1.8977440  53.2302490  37.3088530  12.0583260  39.4493040  20.9156710
  11.7455920  39.5419870  21.8155780  12.8195730  40.0274070  20.8654140
  14.0127290  54.9419230  38.7681100  14.4887010  55.4202120  39.4470180
  14.6334450  54.8736720  38.0426600  13.4160540  52.1332080  35.9281110
  13.5423600  51.8943960  35.0098290  13.4581920  51.3016620  36.4003190
   7.2777280  55.8360080  34.4975920   7.7921950  55.7468090  35.2998350
   6.4346360  56.1819780  34.7903830   9.2531680  56.1215420  23.9259920
   9.0932820  55.8318360  24.8241750   9.0878390  55.3455550  23.3905150
   8.9557810  53.6302980  22.4857920   8.2622970  53.6280270  21.8260200
   9.6980670  53.2062300  22.0552090   8.5207740  55.2565690  26.5606410
   8.9764690  54.4755070  26.8745030   8.8600260  55.9672510  27.1047590
  13.2684550  44.1864540  36.8930850  12.6528820  44.6944210  36.3646310
  12.9480970  43.2862870  36.8356790   5.3298870  43.0256430  34.3593040
   4.8678240  43.2339450  35.1712980   4.9276980  42.2115780  34.0563710
  10.3303380  44.2465380  35.4889700   9.4796970  43.9471130  35.8098770
  10.1705170  44.4907390  34.5773520   7.4253090  45.7467130  37.5888490
   7.7506500  44.9130880  37.2490720   8.2133420  46.2695650  37.7366820
   4.1587880  39.7798610  23.6363550   3.5342060  39.7758480  24.3616860
   4.0718000  38.9129570  23.2399520   3.0804960  40.7035240  30.6147320
   3.3777290  41.6098070  30.5339340   3.6290520  40.2154020  30.0006890
   8.0641040  45.2884850  25.0829620   7.4649930  46.0120650  24.8993240
   8.6120650  45.2261630  24.3006070   3.2742490  46.1807060  37.1499240
   3.1786090  45.2401790  36.9999640   4.1174470  46.4022130  36.7547310
   6.6705910  43.9248390  27.1132900   7.0635480  44.2420590  26.3001590
   7.0322760  43.0460270  27.2277420   4.9798080  42.6755700  38.3729760
   4.2896400  42.4827900  39.0075850   5.7230380  42.9590340  38.9054060
   7.2561050  46.5154140  31.2083680   6.5242170  47.0240950  31.5573780
   6.8585390  45.6984120  30.9072460   3.6938440  43.1908340  29.6136170
   3.6974500  42.7498290  28.7640710   4.5889560  43.5125670  29.7207990
   3.7558590  44.1920420  22.6042930   3.8771410  44.1506900  23.5528750
   3.3707100  45.0544570  22.4489660   7.7186960  41.9687820  30.6206620
   7.7359700  42.4196470  31.4648470   7.4702540  41.0693460  30.8340060
   2.7680090  46.5021560  22.0026230   2.1996990  46.0539810  21.3762140
   3.4769090  46.8614340  21.4691380  11.1457710  39.3820000  36.4593000
  11.4703480  38.6509660  36.9850980  11.1814220  39.0633640  35.5573990
   3.9946410  47.2510120  31.3601580   4.3616540  46.7768690  32.1062920
   3.8051470  48.1251690  31.7009920   1.7845780  46.2918760  33.6785790
   1.4802850  47.1710740  33.9036150   2.7392240  46.3518550  33.7143230
  11.0715550  49.4945110  30.0679030  11.7914670  49.9900400  29.6775140
  10.8697370  48.8163000  29.4232900   6.5325490  40.8883070  24.2108420
   5.7190100  40.3896240  24.1353730   6.3387440  41.7281320  23.7944770
   6.4534350  49.5654170  35.9548030   6.3871660  48.6449840  35.7005620
   5.8239490  49.6629610  36.6692670   9.2473880  45.2602720  22.5070580
  10.1353500  45.5719950  22.3321920   9.2178970  44.3874970  22.1151160
   5.2434470  51.4326410  23.1858750   5.5850170  52.1768640  22.6902070
   4.4147180  51.7457530  23.5483580   6.3851080  52.3874740  35.7051830
   6.3995620  51.4555700  35.4870740   5.6776180  52.4734500  36.3441600
  11.5188150  46.5714560  21.9750440  11.4351870  47.0028780  21.1246880
  12.2382340  47.0312910  22.4077260  12.5962290  49.0282080  35.0520410
  11.8710480  49.6210860  34.8549800  13.1237750  49.0205620  34.2533780
  12.5475400  53.4256820  24.7032570  11.9051560  52.7712440  24.9776290
  12.1606060  53.8311910  23.9273240   8.1261880  50.7542250  28.5504260
   8.4785700  50.1570380  27.8905630   7.2424210  50.4286480  28.7212510
   4.2125160  51.5139940  25.9574670   4.8996290  52.0609150  26.3382260
   3.4257580  52.0580670  25.9924280   3.5152370  48.5185970  25.5700030
   3.9715150  49.3291220  25.7960220   3.1640580  48.2009110  26.4018520
   5.8184980  54.0292310  32.7992330   6.4627200  54.2351690  33.4765750
   6.1814420  53.2680710  32.3463180   7.0917060  52.0324660  31.5169780
   7.7339290  51.3317820  31.6301950   7.6166410  52.8123100  31.3366670
  10.9372780  52.3173280  21.2408920  10.7110360  51.6003720  21.8333560
  10.5468980  52.0685720  20.4030670   8.8654680  52.8319560  34.7205840
   9.2010920  53.4186250  35.3983760   7.9455020  52.7012270  34.9503630
  10.5189030  50.2345220  22.9023080  10.2310730  50.6957910  23.6900960
  11.3141200  49.7742990  23.1707300   4.6943260  52.8810890  37.8893900
   4.3740130  52.1620130  38.4339590   4.0201620  53.5565960  37.9629960
   2.7357430  53.7271340  22.8327050   2.7267530  54.4601030  22.2171560
   1.8155790  53.4802920  22.9254010   7.9096860  43.1137050  33.2530700
   8.2777680  42.2932260  33.5810270   7.0495060  43.1738940  33.6686350
  11.2758890  42.0693990  24.0618260  10.6472050  42.1739660  23.3476490
  10.7810810  42.2890770  24.8512140   5.7217030  53.7899580  21.4952240
   5.8229010  53.5863570  20.5654220   4.8218770  53.5357860  21.7000020
   3.2442920  44.3479940  25.4776140   2.5359070  44.8166280  25.9189750
   3.5287400  43.6901950  26.1121330   4.8698850  45.7676640  33.4768670
   5.3684100  46.2422460  34.1420520   5.0121800  44.8440160  33.6838700
   7.2758350  41.0730600  26.9171930   7.1526130  41.0916730  25.9681440
   8.2242910  41.1209540  27.0370330   4.3635140  56.3085900  26.1899910
   4.6176640  56.2707290  25.2679280   3.4147620  56.1819230  26.1828160
  12.0765710  41.9844600  34.3197060  11.5739310  42.7250000  34.6590870
  12.8922370  42.3728600  34.0033850  10.3687720  47.2277780  27.7658420
   9.4277860  47.2428010  27.9406110  10.6831790  46.4413740  28.2118720
  12.3713300  54.3986630  29.4412680  12.4960720  55.2217800  29.9136490
  13.2378860  54.1877360  29.0936830   2.9533140  55.6648150  20.9355380
   3.7461750  55.9536980  20.4837170   2.4337490  55.2340320  20.2567860
   7.6853740  51.7843780  38.2490800   7.0791900  51.8075380  37.5086550
   7.3807850  51.0526820  38.7858050   9.1154110  55.5124070  36.8600210
  10.0675860  55.4282090  36.8100450   8.9682330  56.1765780  37.5334000
  12.0063310  54.8918280  22.3592120  11.7204820  54.4783420  21.5446300
  11.8082860  55.8205990  22.2392640   3.4710540  50.8851560  20.7997730
   3.3661180  50.2703910  21.5259110   3.3034760  50.3617450  20.0160740
   3.6224860  49.5708360  36.7786960   2.8570530  50.1393360  36.6941630
   3.8040820  49.2784570  35.8855190   6.7113270  49.9471590  21.4039720
   6.1623370  50.3940890  22.0482460   7.3332530  49.4420840  21.9277390
  10.7648210  51.3013690  37.3361980  11.5057680  51.6389450  36.8329440
  10.0020890  51.4705750  36.7831750   2.3788390  48.9062510  23.3005020
   2.8004810  48.7402380  24.1436410   2.5039230  48.0962740  22.8060160
   4.8916030  47.9300120  20.5482120   5.4121690  47.2149140  20.1823270
   5.5384430  48.5685990  20.8482630   9.4393870  49.3528520  35.8717190
   9.8534890  49.5073600  36.7207610   8.5044870  49.4783740  36.0342970
   9.9116040  46.6924680  37.8756340  10.4936810  45.9377000  37.7876820
  10.0877810  47.2232120  37.0987820   3.7949550  40.4094670  33.2200680
   3.3466850  40.4318930  32.3746230   3.1614750  40.0113690  33.8170980
   4.2009100  49.3049000  33.8413120   4.6197210  50.1481730  33.6689360
   3.2817730  49.4421040  33.6119900   6.5373000  47.0365180  35.2250960
   6.6569210  46.4406320  35.9645800   7.3967000  47.0734870  34.8052260
   8.8760900  47.5902370  33.8013470   8.3496120  48.1144990  33.1978610
   9.2192240  48.2229760  34.4323200   2.0516520  55.6102010  34.9570850
   1.5137610  56.3348070  34.6379550   2.3050480  55.1332350  34.1668190
   3.3041770  43.5786530  36.4826780   3.8941460  43.2702380  37.1704600
   2.4862010  43.1066280  36.6386680   8.1235200  43.1952340  36.7159800
   7.4350720  42.5333880  36.6509790   8.8441220  42.7490610  37.1608260
   8.7535600  39.7903970  22.7750060   9.0337890  38.9471870  23.1309480
   7.9801330  40.0227080  23.2888810   4.9078730  56.8453220  35.2157500
   4.8337430  57.7488360  35.5229870   4.0057570  56.5265120  35.1879570
   3.2915020  41.0230980  21.2197260   2.9437020  40.3454970  20.6399710
   3.4927790  40.5620490  22.0340650   5.4564060  56.0111730  22.8383860
   6.3514850  56.3496700  22.8602620   5.4881690  55.2891140  22.2108140
  12.4358410  54.5415400  35.5450060  11.8360400  54.6007960  34.8013980
  12.5652310  53.6020380  35.6746910  13.6759860  52.2833220  20.8819770
  12.8452820  52.3509870  21.3527000  13.8531690  53.1737340  20.5786630
  13.1316320  49.0280700  23.3853970  13.8935230  49.5977350  23.4913660
  13.1470690  48.4607900  24.1562280  14.1376290  49.8830800  28.2295900
  14.5085120  49.0998120  27.8231870  14.7778220  50.5719900  28.0513200
  11.1210050  51.2667380  33.6426220  10.3069890  51.6964540  33.9052010
  11.5284250  51.8785790  33.0295270  13.1835490  49.3215070  20.5426490
  13.4584330  50.2293950  20.4145710  12.9946230  49.2577600  21.4788480
   9.5811100  42.3459920  21.8380120   9.9995980  42.1590900  20.9976780
   9.2747160  41.4938970  22.1483050  13.0800830  47.2584060  25.5355920
  12.7044430  46.4911990  25.1037210  12.3503950  47.6406760  26.0230850
  12.4700450  46.4055580  35.1695440  12.2386540  46.1768330  34.2693390
  12.7305000  47.3255130  35.1240330  10.9088520  41.6312010  37.9475140
  11.7858700  41.6395410  38.3309140  10.9209360  40.8942850  37.3367490
  12.3551790  45.4841550  28.8363160  12.8789270  44.9904200  28.2053330
  12.9411210  45.6191910  29.5810730  12.5341510  45.5681420  32.3582710
  11.5844220  45.5344960  32.4727700  12.7154520  46.4781530  32.1232480
  11.8451760  44.7414900  24.7755570  12.3410880  44.5085770  25.5604450
  11.6467830  43.9026740  24.3593210  13.2738920  43.3775850  27.3093250
  13.1638200  43.2231890  28.2475520  14.0346510  42.8496790  27.0668660
  11.6204640  39.3169980  33.7676250  12.2576860  39.9304120  34.1335440
  11.7679530  39.3530640  32.8225480  14.1629190  41.2083770  20.5499390
  15.0878500  41.0764950  20.3417680  14.1404980  41.2876590  21.5035840
  14.2367680  41.9794430  23.1756100  13.4419180  41.9139550  23.7049010
  14.4410960  42.9145070  23.1641450  11.1786100  56.0185980  27.1694490
  11.7745170  55.6970550  26.4928910  11.4364250  55.5457800  27.9607760
   2.7854700  54.0063480  32.9194840   2.5446060  54.2738040  32.0325360
   3.7257340  54.1769210  32.9745700   4.9909120  40.4696170  36.6751350
   4.9298010  41.0618000  37.4246760   5.9309500  40.3622130  36.5301610
   7.6283680  40.1266230  36.3143640   8.2424090  40.4445520  35.6524720
   8.1733240  39.6414820  36.9339500  14.0458860  56.0257860  33.7205480
  13.5517140  56.4226730  33.0032610  13.4372150  55.4007070  34.1142760
   8.3691720  38.6898370  32.6412930   7.4951560  39.0233480  32.4385860
   8.2602470  38.2171550  33.4664800   9.2763700  40.8969240  34.0254650
   8.9477060  40.0821000  33.6456380  10.2246000  40.8539050  33.9020340
  11.7298310  56.6681280  30.9992220  11.2701280  57.4197090  30.6250240
  11.1010770  55.9487750  30.9407020   2.1594030  54.9769520  30.1740350
   2.6759050  54.3656880  29.6488610   2.8091410  55.4798300  30.6651360
   4.8989530  55.8678010  31.0009330   5.1867340  55.6132310  30.1242340
   5.4112750  55.3155370  31.5914900   6.1166540  39.6068210  31.5805840
   5.3338330  40.0813710  31.8602600   5.8229470  38.7023040  31.4719020
  10.6687610  40.3091310  29.6254930  11.1095700  40.2536410  28.7776530
  10.3995200  41.2249320  29.6965110  12.5326180  39.9406550  27.6363750
  12.4714580  38.9967770  27.4894770  13.3118210  40.0486640  28.1817210
   4.0020760  42.0254960  27.0921870   3.1895270  41.6511850  26.7517750
   4.5062400  41.2700040  27.3943060   8.5045740  38.6897410  28.3304940
   9.1075110  39.2617620  28.8053460   7.7638730  39.2536850  28.1078840
  11.6480340  39.0918970  23.6045220  11.8430970  39.9902420  23.8712650
  10.8610210  38.8606050  24.0978170   2.0269940  40.1754880  25.6966920
   1.3972680  39.4742190  25.8637050   1.4875080  40.9359010  25.4800080
   4.9661890  56.7894110  38.3677530   5.8929200  56.5538380  38.4113490
   4.9512320  57.6166110  37.8863560  13.2006950  56.3319680  25.3651780
  13.3759140  55.6457420  24.7212700  12.5028520  56.8566730  24.9728450
   2.1525500  39.4538860  38.1319410   1.8709770  39.9572460  37.3680230
   2.5345200  38.6560610  37.7661540   8.7540960  38.8692440  38.7099880
   8.6406410  39.1887050  39.6051400   9.5710700  39.2704950  38.4137160
  11.5339450  56.0163970  38.1918570  12.3264770  55.5213200  37.9844530
  11.8272600  56.6954110  38.7994180   7.6599110  46.8884910   9.0734620
   7.5793160  45.9739520   8.8026330   7.2463530  47.3851980   8.3674330
   5.7917150  48.6663930  10.9543890   5.0159250  48.1864370  11.2442460
   6.4430080  47.9869580  10.7800050   9.8124580  53.0724120   9.7343020
   9.3506110  52.3011360  10.0630190  10.6250130  53.0990190  10.2395470
   6.0387890  55.3582130   9.3547010   5.4199330  55.8139630   8.7841450
   6.8939670  55.5133590   8.9536710   5.2326140  51.3421120  10.9614050
   5.1634420  50.4011060  10.8003180   5.9946000  51.4322530  11.5336620
   6.2631310  44.1491500  11.1882980   6.6396130  43.2763380  11.0756650
   6.1650820  44.4850200  10.2973420  10.0455430  41.6441940   8.1211320
  10.8665050  41.1538510   8.1636800  10.0789510  42.2339600   8.8743160
   2.2344050  45.4903500  10.9825600   2.7422270  45.9884470  11.6230620
   2.7657290  44.7138700  10.8064960  14.3354980  43.6608690  14.6854950
  13.6307150  44.0490400  14.1670060  14.6012900  44.3558980  15.2875880
   6.9051240  50.2421370   6.7478920   6.2868510  50.7070820   6.1841640
   7.4174490  50.9348850   7.1648430   1.7683000  49.7697240  13.4262520
   1.4352380  50.3966160  14.0683590   1.9449680  50.2959120  12.6464190
  10.2816910  43.5842320  10.8938860   9.5772480  43.8727210  11.4741970
  10.6429070  44.3942430  10.5338420  11.8979690  53.2017450  13.1566340
  11.2143210  53.8716560  13.1483010  12.4373980  53.3998100  12.3911200
  13.3503830  43.0297110  11.2848070  12.4028740  43.0636090  11.4163500
  13.6753820  43.8436060  11.6697430   3.8823370  39.3294290   9.5804060
   4.1898350  38.7741180   8.8639560   2.9524070  39.4638750   9.3977050
   9.4338430  55.0461580  11.8711520   9.4465590  54.6423870  11.0033780
   8.8813650  55.8208870  11.7672950  10.7283850  51.7677800   6.9601690
  10.6180180  50.8252130   7.0851110  10.7252100  52.1293440   7.8464450
   8.8323870  49.9491420  13.1994130   9.2492660  49.7351530  12.3647590
   9.5563690  50.2064210  13.7702750   6.2704130  47.3943120   6.3164180
   5.3433410  47.3280500   6.5452650   6.4228950  48.3323250   6.2019420
   6.2573210  43.6660120   3.3131340   5.3176880  43.8274080   3.3983800
   6.5756470  44.3845800   2.7667330  12.7785970  48.3478640  13.2910370
  11.9504600  48.4171730  12.8160500  13.3736450  48.9332950  12.8226200
  10.3001420  48.9563420   6.8199430   9.6813840  48.6182970   6.1725730
  10.2825870  48.3123180   7.5278620   9.7427980  45.1347960  14.2365240
   9.3299160  45.9601670  14.4905230   9.0103930  44.5493000  14.0441600
   1.8760770  47.9207860   9.0983910   1.4717770  47.2085110   8.6029810
   1.9623890  47.5761100   9.9871950   2.3442470  51.6075420  11.2623120
   2.0470760  51.0020890  10.5830900   3.2942290  51.6452730  11.1512480
  10.4328080  55.1807290  14.9246220   9.9558640  55.9879480  14.7318830
   9.7489870  54.5285620  15.0772430   8.4766120  48.1950230   3.8272180
   8.9159400  47.3572660   3.6810000   9.1894540  48.8279630   3.9136320
   6.5861500  53.1346300   7.7953420   7.0257410  53.8770630   7.3808810
   6.5248390  53.3772870   8.7192380   2.0612470  54.1592130  18.6973440
   2.0327900  54.5635080  17.8301870   1.8977440  53.2302490  18.5345040
  12.0583260  39.4493040   2.1413220  11.7455920  39.5419870   3.0412290
  12.8195730  40.0274070   2.0910650  14.0127290  54.9419230  19.9937610
  14.4887010  55.4202120  20.6726690  14.6334450  54.8736720  19.2683110
  13.4160540  52.1332080  17.1537620  13.5423600  51.8943960  16.2354800
  13.4581920  51.3016620  17.6259700   7.2777280  55.8360080  15.7232430
   7.7921950  55.7468090  16.5254860   6.4346360  56.1819780  16.0160340
   9.2531680  56.1215420   5.1516430   9.0932820  55.8318360   6.0498260
   9.0878390  55.3455550   4.6161660   8.9557810  53.6302980   3.7114430
   8.2622970  53.6280270   3.0516710   9.6980670  53.2062300   3.2808600
   8.5207740  55.2565690   7.7862920   8.9764690  54.4755070   8.1001540
   8.8600260  55.9672510   8.3304100  13.2684550  44.1864540  18.1187360
  12.6528820  44.6944210  17.5902820  12.9480970  43.2862870  18.0613300
   5.3298870  43.0256430  15.5849550   4.8678240  43.2339450  16.3969490
   4.9276980  42.2115780  15.2820220  10.3303380  44.2465380  16.7146210
   9.4796970  43.9471130  17.0355280  10.1705170  44.4907390  15.8030030
   7.4253090  45.7467130  18.8145000   7.7506500  44.9130880  18.4747230
   8.2133420  46.2695650  18.9623330   4.1587880  39.7798610   4.8620060
   3.5342060  39.7758480   5.5873370   4.0718000  38.9129570   4.4656030
   3.0804960  40.7035240  11.8403830   3.3777290  41.6098070  11.7595850
   3.6290520  40.2154020  11.2263400   8.0641040  45.2884850   6.3086130
   7.4649930  46.0120650   6.1249750   8.6120650  45.2261630   5.5262580
   3.2742490  46.1807060  18.3755750   3.1786090  45.2401790  18.2256150
   4.1174470  46.4022130  17.9803820   6.6705910  43.9248390   8.3389410
   7.0635480  44.2420590   7.5258100   7.0322760  43.0460270   8.4533930
   4.9798080  42.6755700  19.5986270   4.2896400  42.4827900  20.2332360
   5.7230380  42.9590340  20.1310570   7.2561050  46.5154140  12.4340190
   6.5242170  47.0240950  12.7830290   6.8585390  45.6984120  12.1328970
   3.6938440  43.1908340  10.8392680   3.6974500  42.7498290   9.9897220
   4.5889560  43.5125670  10.9464500   3.7558590  44.1920420   3.8299440
   3.8771410  44.1506900   4.7785260   3.3707100  45.0544570   3.6746170
   7.7186960  41.9687820  11.8463130   7.7359700  42.4196470  12.6904980
   7.4702540  41.0693460  12.0596570   2.7680090  46.5021560   3.2282740
   2.1996990  46.0539810   2.6018650   3.4769090  46.8614340   2.6947890
  11.1457710  39.3820000  17.6849510  11.4703480  38.6509660  18.2107490
  11.1814220  39.0633640  16.7830500   3.9946410  47.2510120  12.5858090
   4.3616540  46.7768690  13.3319430   3.8051470  48.1251690  12.9266430
   1.7845780  46.2918760  14.9042300   1.4802850  47.1710740  15.1292660
   2.7392240  46.3518550  14.9399740  11.0715550  49.4945110  11.2935540
  11.7914670  49.9900400  10.9031650  10.8697370  48.8163000  10.6489410
   6.5325490  40.8883070   5.4364930   5.7190100  40.3896240   5.3610240
   6.3387440  41.7281320   5.0201280   6.4534350  49.5654170  17.1804540
   6.3871660  48.6449840  16.9262130   5.8239490  49.6629610  17.8949180
   9.2473880  45.2602720   3.7327090  10.1353500  45.5719950   3.5578430
   9.2178970  44.3874970   3.3407670   5.2434470  51.4326410   4.4115260
   5.5850170  52.1768640   3.9158580   4.4147180  51.7457530   4.7740090
   6.3851080  52.3874740  16.9308340   6.3995620  51.4555700  16.7127250
   5.6776180  52.4734500  17.5698110  11.5188150  46.5714560   3.2006950
  11.4351870  47.0028780   2.3503390  12.2382340  47.0312910   3.6333770
  12.5962290  49.0282080  16.2776920  11.8710480  49.6210860  16.0806310
  13.1237750  49.0205620  15.4790290  12.5475400  53.4256820   5.9289080
  11.9051560  52.7712440   6.2032800  12.1606060  53.8311910   5.1529750
   8.1261880  50.7542250   9.7760770   8.4785700  50.1570380   9.1162140
   7.2424210  50.4286480   9.9469020   4.2125160  51.5139940   7.1831180
   4.8996290  52.0609150   7.5638770   3.4257580  52.0580670   7.2180790
   3.5152370  48.5185970   6.7956540   3.9715150  49.3291220   7.0216730
   3.1640580  48.2009110   7.6275030   5.8184980  54.0292310  14.0248840
   6.4627200  54.2351690  14.7022260   6.1814420  53.2680710  13.5719690
   7.0917060  52.0324660  12.7426290   7.7339290  51.3317820  12.8558460
   7.6166410  52.8123100  12.5623180  10.9372780  52.3173280   2.4665430
  10.7110360  51.6003720   3.0590070  10.5468980  52.0685720   1.6287180
   8.8654680  52.8319560  15.9462350   9.2010920  53.4186250  16.6240270
   7.9455020  52.7012270  16.1760140  10.5189030  50.2345220   4.1279590
  10.2310730  50.6957910   4.9157470  11.3141200  49.7742990   4.3963810
   4.6943260  52.8810890  19.1150410   4.3740130  52.1620130  19.6596100
   4.0201620  53.5565960  19.1886470   2.7357430  53.7271340   4.0583560
   2.7267530  54.4601030   3.4428070   1.8155790  53.4802920   4.1510520
   7.9096860  43.1137050  14.4787210   8.2777680  42.2932260  14.8066780
   7.0495060  43.1738940  14.8942860  11.2758890  42.0693990   5.2874770
  10.6472050  42.1739660   4.5733000  10.7810810  42.2890770   6.0768650
   5.7217030  53.7899580   2.7208750   5.8229010  53.5863570   1.7910730
   4.8218770  53.5357860   2.9256530   3.2442920  44.3479940   6.7032650
   2.5359070  44.8166280   7.1446260   3.5287400  43.6901950   7.3377840
   4.8698850  45.7676640  14.7025180   5.3684100  46.2422460  15.3677030
   5.0121800  44.8440160  14.9095210   7.2758350  41.0730600   8.1428440
   7.1526130  41.0916730   7.1937950   8.2242910  41.1209540   8.2626840
   4.3635140  56.3085900   7.4156420   4.6176640  56.2707290   6.4935790
   3.4147620  56.1819230   7.4084670  12.0765710  41.9844600  15.5453570
  11.5739310  42.7250000  15.8847380  12.8922370  42.3728600  15.2290360
  10.3687720  47.2277780   8.9914930   9.4277860  47.2428010   9.1662620
  10.6831790  46.4413740   9.4375230  12.3713300  54.3986630  10.6669190
  12.4960720  55.2217800  11.1393000  13.2378860  54.1877360  10.3193340
   7.6853740  51.7843780  19.4747310   7.0791900  51.8075380  18.7343060
   7.3807850  51.0526820  20.0114560   9.1154110  55.5124070  18.0856720
  10.0675860  55.4282090  18.0356960   8.9682330  56.1765780  18.7590510
  12.0063310  54.8918280   3.5848630  11.7204820  54.4783420   2.7702810
  11.8082860  55.8205990   3.4649150   3.6224860  49.5708360  18.0043470
   2.8570530  50.1393360  17.9198140   3.8040820  49.2784570  17.1111700
   6.7113270  49.9471590   2.6296230   6.1623370  50.3940890   3.2738970
   7.3332530  49.4420840   3.1533900  10.7648210  51.3013690  18.5618490
  11.5057680  51.6389450  18.0585950  10.0020890  51.4705750  18.0088260
   2.3788390  48.9062510   4.5261530   2.8004810  48.7402380   5.3692920
   2.5039230  48.0962740   4.0316670   9.4393870  49.3528520  17.0973700
   9.8534890  49.5073600  17.9464120   8.5044870  49.4783740  17.2599480
   9.9116040  46.6924680  19.1012850  10.4936810  45.9377000  19.0133330
  10.0877810  47.2232120  18.3244330   3.7949550  40.4094670  14.4457190
   3.3466850  40.4318930  13.6002740   3.1614750  40.0113690  15.0427490
   4.2009100  49.3049000  15.0669630   4.6197210  50.1481730  14.8945870
   3.2817730  49.4421040  14.8376410   6.5373000  47.0365180  16.4507470
   6.6569210  46.4406320  17.1902310   7.3967000  47.0734870  16.0308770
   8.8760900  47.5902370  15.0269980   8.3496120  48.1144990  14.4235120
   9.2192240  48.2229760  15.6579710   2.0516520  55.6102010  16.1827360
   1.5137610  56.3348070  15.8636060   2.3050480  55.1332350  15.3924700
   3.3041770  43.5786530  17.7083290   3.8941460  43.2702380  18.3961110
   2.4862010  43.1066280  17.8643190   8.1235200  43.1952340  17.9416310
   7.4350720  42.5333880  17.8766300   8.8441220  42.7490610  18.3864770
   8.7535600  39.7903970   4.0006570   9.0337890  38.9471870   4.3565990
   7.9801330  40.0227080   4.5145320   4.9078730  56.8453220  16.4414010
   4.8337430  57.7488360  16.7486380   4.0057570  56.5265120  16.4136080
   3.2915020  41.0230980   2.4453770   2.9437020  40.3454970   1.8656220
   3.4927790  40.5620490   3.2597160   5.4564060  56.0111730   4.0640370
   6.3514850  56.3496700   4.0859130   5.4881690  55.2891140   3.4364650
  12.4358410  54.5415400  16.7706570  11.8360400  54.6007960  16.0270490
  12.5652310  53.6020380  16.9003420  13.6759860  52.2833220   2.1076280
  12.8452820  52.3509870   2.5783510  13.8531690  53.1737340   1.8043140
  13.1316320  49.0280700   4.6110480  13.8935230  49.5977350   4.7170170
  13.1470690  48.4607900   5.3818790  14.1376290  49.8830800   9.4552410
  14.5085120  49.0998120   9.0488380  14.7778220  50.5719900   9.2769710
  11.1210050  51.2667380  14.8682730  10.3069890  51.6964540  15.1308520
  11.5284250  51.8785790  14.2551780  13.1835490  49.3215070   1.7683000
  13.4584330  50.2293950   1.6402220  12.9946230  49.2577600   2.7044990
   9.5811100  42.3459920   3.0636630   9.9995980  42.1590900   2.2233290
   9.2747160  41.4938970   3.3739560  13.0800830  47.2584060   6.7612430
  12.7044430  46.4911990   6.3293720  12.3503950  47.6406760   7.2487360
  12.4700450  46.4055580  16.3951950  12.2386540  46.1768330  15.4949900
  12.7305000  47.3255130  16.3496840  10.9088520  41.6312010  19.1731650
  11.7858700  41.6395410  19.5565650  10.9209360  40.8942850  18.5624000
  12.3551790  45.4841550  10.0619670  12.8789270  44.9904200   9.4309840
  12.9411210  45.6191910  10.8067240  12.5341510  45.5681420  13.5839220
  11.5844220  45.5344960  13.6984210  12.7154520  46.4781530  13.3488990
  11.8451760  44.7414900   6.0012080  12.3410880  44.5085770   6.7860960
  11.6467830  43.9026740   5.5849720  13.2738920  43.3775850   8.5349760
  13.1638200  43.2231890   9.4732030  14.0346510  42.8496790   8.2925170
  11.6204640  39.3169980  14.9932760  12.2576860  39.9304120  15.3591950
  11.7679530  39.3530640  14.0481990  14.1629190  41.2083770   1.7755900
  15.0878500  41.0764950   1.5674190  14.1404980  41.2876590   2.7292350
  14.2367680  41.9794430   4.4012610  13.4419180  41.9139550   4.9305520
  14.4410960  42.9145070   4.3897960  11.1786100  56.0185980   8.3951000
  11.7745170  55.6970550   7.7185420  11.4364250  55.5457800   9.1864270
   2.7854700  54.0063480  14.1451350   2.5446060  54.2738040  13.2581870
   3.7257340  54.1769210  14.2002210   4.9909120  40.4696170  17.9007860
   4.9298010  41.0618000  18.6503270   5.9309500  40.3622130  17.7558120
   7.6283680  40.1266230  17.5400150   8.2424090  40.4445520  16.8781230
   8.1733240  39.6414820  18.1596010  14.0458860  56.0257860  14.9461990
  13.5517140  56.4226730  14.2289120  13.4372150  55.4007070  15.3399270
   8.3691720  38.6898370  13.8669440   7.4951560  39.0233480  13.6642370
   8.2602470  38.2171550  14.6921310   9.2763700  40.8969240  15.2511160
   8.9477060  40.0821000  14.8712890  10.2246000  40.8539050  15.1276850
  11.7298310  56.6681280  12.2248730  11.2701280  57.4197090  11.8506750
  11.1010770  55.9487750  12.1663530   2.1594030  54.9769520  11.3996860
   2.6759050  54.3656880  10.8745120   2.8091410  55.4798300  11.8907870
   4.8989530  55.8678010  12.2265840   5.1867340  55.6132310  11.3498850
   5.4112750  55.3155370  12.8171410   6.1166540  39.6068210  12.8062350
   5.3338330  40.0813710  13.0859110   5.8229470  38.7023040  12.6975530
  10.6687610  40.3091310  10.8511440  11.1095700  40.2536410  10.0033040
  10.3995200  41.2249320  10.9221620  12.5326180  39.9406550   8.8620260
  12.4714580  38.9967770   8.7151280  13.3118210  40.0486640   9.4073720
   4.0020760  42.0254960   8.3178380   3.1895270  41.6511850   7.9774260
   4.5062400  41.2700040   8.6199570   8.5045740  38.6897410   9.5561450
   9.1075110  39.2617620  10.0309970   7.7638730  39.2536850   9.3335350
  11.6480340  39.0918970   4.8301730  11.8430970  39.9902420   5.0969160
  10.8610210  38.8606050   5.3234680   2.0269940  40.1754880   6.9223430
   1.3972680  39.4742190   7.0893560   1.4875080  40.9359010   6.7056590
   4.9661890  56.7894110  19.5934040   5.8929200  56.5538380  19.6370000
   4.9512320  57.6166110  19.1120070  13.2006950  56.3319680   6.5908290
  13.3759140  55.6457420   5.9469210  12.5028520  56.8566730   6.1984960
   2.1525500  39.4538860  19.3575920   1.8709770  39.9572460  18.5936740
   2.5345200  38.6560610  18.9918050   8.7540960  38.8692440  19.9356390
   8.6406410  39.1887050  20.8307910   9.5710700  39.2704950  19.6393670
  11.5339450  56.0163970  19.4175080  12.3264770  55.5213200  19.2101040
  11.8272600  56.6954110  20.0250690   7.6599110  28.1141420  65.3965090
   7.5793160  27.1996030  65.1256800   7.2463530  28.6108490  64.6904800
   5.7917150  29.8920440  67.2774360   5.0159250  29.4120880  67.5672930
   6.4430080  29.2126090  67.1030520   9.8124580  34.2980630  66.0573490
   9.3506110  33.5267870  66.3860660  10.6250130  34.3246700  66.5625940
   6.0387890  36.5838640  65.6777480   5.4199330  37.0396140  65.1071920
   6.8939670  36.7390100  65.2767180   5.2326140  32.5677630  67.2844520
   5.1634420  31.6267570  67.1233650   5.9946000  32.6579040  67.8567090
   6.2631310  25.3748010  67.5113450   6.6396130  24.5019890  67.3987120
   6.1650820  25.7106710  66.6203890  10.0455430  22.8698450  64.4441790
  10.8665050  22.3795020  64.4867270  10.0789510  23.4596110  65.1973630
   2.2344050  26.7160010  67.3056070   2.7422270  27.2140980  67.9461090
   2.7657290  25.9395210  67.1295430  14.3354980  24.8865200  71.0085420
  13.6307150  25.2746910  70.4900530  14.6012900  25.5815490  71.6106350
   6.9051240  31.4677880  63.0709390   6.2868510  31.9327330  62.5072110
   7.4174490  32.1605360  63.4878900   1.7683000  30.9953750  69.7492990
   1.4352380  31.6222670  70.3914060   1.9449680  31.5215630  68.9694660
  10.2816910  24.8098830  67.2169330   9.5772480  25.0983720  67.7972440
  10.6429070  25.6198940  66.8568890  11.8979690  34.4273960  69.4796810
  11.2143210  35.0973070  69.4713480  12.4373980  34.6254610  68.7141670
  13.3503830  24.2553620  67.6078540  12.4028740  24.2892600  67.7393970
  13.6753820  25.0692570  67.9927900   3.8823370  20.5550800  65.9034530
   4.1898350  19.9997690  65.1870030   2.9524070  20.6895260  65.7207520
   9.4338430  36.2718090  68.1941990   9.4465590  35.8680380  67.3264250
   8.8813650  37.0465380  68.0903420  10.7283850  32.9934310  63.2832160
  10.6180180  32.0508640  63.4081580  10.7252100  33.3549950  64.1694920
   8.8323870  31.1747930  69.5224600   9.2492660  30.9608040  68.6878060
   9.5563690  31.4320720  70.0933220   6.2704130  28.6199630  62.6394650
   5.3433410  28.5537010  62.8683120   6.4228950  29.5579760  62.5249890
   6.2573210  24.8916630  59.6361810   5.3176880  25.0530590  59.7214270
   6.5756470  25.6102310  59.0897800  12.7785970  29.5735150  69.6140840
  11.9504600  29.6428240  69.1390970  13.3736450  30.1589460  69.1456670
  10.3001420  30.1819930  63.1429900   9.6813840  29.8439480  62.4956200
  10.2825870  29.5379690  63.8509090   9.7427980  26.3604470  70.5595710
   9.3299160  27.1858180  70.8135700   9.0103930  25.7749510  70.3672070
   1.8760770  29.1464370  65.4214380   1.4717770  28.4341620  64.9260280
   1.9623890  28.8017610  66.3102420   2.3442470  32.8331930  67.5853590
   2.0470760  32.2277400  66.9061370   3.2942290  32.8709240  67.4742950
  10.4328080  36.4063800  71.2476690   9.9558640  37.2135990  71.0549300
   9.7489870  35.7542130  71.4002900   8.4766120  29.4206740  60.1502650
   8.9159400  28.5829170  60.0040470   9.1894540  30.0536140  60.2366790
   6.5861500  34.3602810  64.1183890   7.0257410  35.1027140  63.7039280
   6.5248390  34.6029380  65.0422850   2.0612470  35.3848640  75.0203910
   2.0327900  35.7891590  74.1532340   1.8977440  34.4559000  74.8575510
  12.0583260  20.6749550  58.4643690  11.7455920  20.7676380  59.3642760
  12.8195730  21.2530580  58.4141120  13.4160540  33.3588590  73.4768090
  13.5423600  33.1200470  72.5585270  13.4581920  32.5273130  73.9490170
   7.2777280  37.0616590  72.0462900   7.7921950  36.9724600  72.8485330
   6.4346360  37.4076290  72.3390810   9.2531680  37.3471930  61.4746900
   9.0932820  37.0574870  62.3728730   9.0878390  36.5712060  60.9392130
   8.9557810  34.8559490  60.0344900   8.2622970  34.8536780  59.3747180
   9.6980670  34.4318810  59.6039070   8.5207740  36.4822200  64.1093390
   8.9764690  35.7011580  64.4232010   8.8600260  37.1929020  64.6534570
  13.2684550  25.4121050  74.4417830  12.6528820  25.9200720  73.9133290
  12.9480970  24.5119380  74.3843770   5.3298870  24.2512940  71.9080020
   4.8678240  24.4595960  72.7199960   4.9276980  23.4372290  71.6050690
  10.3303380  25.4721890  73.0376680   9.4796970  25.1727640  73.3585750
  10.1705170  25.7163900  72.1260500   7.4253090  26.9723640  75.1375470
   7.7506500  26.1387390  74.7977700   8.2133420  27.4952160  75.2853800
   4.1587880  21.0055120  61.1850530   3.5342060  21.0014990  61.9103840
   4.0718000  20.1386080  60.7886500   3.0804960  21.9291750  68.1634300
   3.3777290  22.8354580  68.0826320   3.6290520  21.4410530  67.5493870
   8.0641040  26.5141360  62.6316600   7.4649930  27.2377160  62.4480220
   8.6120650  26.4518140  61.8493050   3.2742490  27.4063570  74.6986220
   3.1786090  26.4658300  74.5486620   4.1174470  27.6278640  74.3034290
   6.6705910  25.1504900  64.6619880   7.0635480  25.4677100  63.8488570
   7.0322760  24.2716780  64.7764400   7.2561050  27.7410650  68.7570660
   6.5242170  28.2497460  69.1060760   6.8585390  26.9240630  68.4559440
   3.6938440  24.4164850  67.1623150   3.6974500  23.9754800  66.3127690
   4.5889560  24.7382180  67.2694970   3.7558590  25.4176930  60.1529910
   3.8771410  25.3763410  61.1015730   3.3707100  26.2801080  59.9976640
   7.7186960  23.1944330  68.1693600   7.7359700  23.6452980  69.0135450
   7.4702540  22.2949970  68.3827040   2.7680090  27.7278070  59.5513210
   2.1996990  27.2796320  58.9249120   3.4769090  28.0870850  59.0178360
  11.1457710  20.6076510  74.0079980  11.4703480  19.8766170  74.5337960
  11.1814220  20.2890150  73.1060970   3.9946410  28.4766630  68.9088560
   4.3616540  28.0025200  69.6549900   3.8051470  29.3508200  69.2496900
   1.7845780  27.5175270  71.2272770   1.4802850  28.3967250  71.4523130
   2.7392240  27.5775060  71.2630210  11.0715550  30.7201620  67.6166010
  11.7914670  31.2156910  67.2262120  10.8697370  30.0419510  66.9719880
   6.5325490  22.1139580  61.7595400   5.7190100  21.6152750  61.6840710
   6.3387440  22.9537830  61.3431750   6.4534350  30.7910680  73.5035010
   6.3871660  29.8706350  73.2492600   5.8239490  30.8886120  74.2179650
   9.2473880  26.4859230  60.0557560  10.1353500  26.7976460  59.8808900
   9.2178970  25.6131480  59.6638140   5.2434470  32.6582920  60.7345730
   5.5850170  33.4025150  60.2389050   4.4147180  32.9714040  61.0970560
   6.3851080  33.6131250  73.2538810   6.3995620  32.6812210  73.0357720
   5.6776180  33.6991010  73.8928580  11.5188150  27.7971070  59.5237420
  11.4351870  28.2285290  58.6733860  12.2382340  28.2569420  59.9564240
  12.5962290  30.2538590  72.6007390  11.8710480  30.8467370  72.4036780
  13.1237750  30.2462130  71.8020760  12.5475400  34.6513330  62.2519550
  11.9051560  33.9968950  62.5263270  12.1606060  35.0568420  61.4760220
   8.1261880  31.9798760  66.0991240   8.4785700  31.3826890  65.4392610
   7.2424210  31.6542990  66.2699490   4.2125160  32.7396450  63.5061650
   4.8996290  33.2865660  63.8869240   3.4257580  33.2837180  63.5411260
   3.5152370  29.7442480  63.1187010   3.9715150  30.5547730  63.3447200
   3.1640580  29.4265620  63.9505500   5.8184980  35.2548820  70.3479310
   6.4627200  35.4608200  71.0252730   6.1814420  34.4937220  69.8950160
   7.0917060  33.2581170  69.0656760   7.7339290  32.5574330  69.1788930
   7.6166410  34.0379610  68.8853650  10.9372780  33.5429790  58.7895900
  10.7110360  32.8260230  59.3820540  10.5468980  33.2942230  57.9517650
   8.8654680  34.0576070  72.2692820   9.2010920  34.6442760  72.9470740
   7.9455020  33.9268780  72.4990610  10.5189030  31.4601730  60.4510060
  10.2310730  31.9214420  61.2387940  11.3141200  30.9999500  60.7194280
   4.6943260  34.1067400  75.4380880   4.3740130  33.3876640  75.9826570
   4.0201620  34.7822470  75.5116940   2.7357430  34.9527850  60.3814030
   2.7267530  35.6857540  59.7658540   1.8155790  34.7059430  60.4740990
   7.9096860  24.3393560  70.8017680   8.2777680  23.5188770  71.1297250
   7.0495060  24.3995450  71.2173330  11.2758890  23.2950500  61.6105240
  10.6472050  23.3996170  60.8963470  10.7810810  23.5147280  62.3999120
   5.7217030  35.0156090  59.0439220   5.8229010  34.8120080  58.1141200
   4.8218770  34.7614370  59.2487000   3.2442920  25.5736450  63.0263120
   2.5359070  26.0422790  63.4676730   3.5287400  24.9158460  63.6608310
   4.8698850  26.9933150  71.0255650   5.3684100  27.4678970  71.6907500
   5.0121800  26.0696670  71.2325680   7.2758350  22.2987110  64.4658910
   7.1526130  22.3173240  63.5168420   8.2242910  22.3466050  64.5857310
   4.3635140  37.5342410  63.7386890   4.6176640  37.4963800  62.8166260
   3.4147620  37.4075740  63.7315140  12.0765710  23.2101110  71.8684040
  11.5739310  23.9506510  72.2077850  12.8922370  23.5985110  71.5520830
  10.3687720  28.4534290  65.3145400   9.4277860  28.4684520  65.4893090
  10.6831790  27.6670250  65.7605700  12.3713300  35.6243140  66.9899660
  12.4960720  36.4474310  67.4623470  13.2378860  35.4133870  66.6423810
   2.9533140  36.8904660  58.4842360   3.7461750  37.1793490  58.0324150
   2.4337490  36.4596830  57.8054840   9.1154110  36.7380580  74.4087190
  10.0675860  36.6538600  74.3587430   8.9682330  37.4022290  75.0820980
  12.0063310  36.1174790  59.9079100  11.7204820  35.7039930  59.0933280
  11.8082860  37.0462500  59.7879620   3.4710540  32.1108070  58.3484710
   3.3661180  31.4960420  59.0746090   3.3034760  31.5873960  57.5647720
   3.6224860  30.7964870  74.3273940   2.8570530  31.3649870  74.2428610
   3.8040820  30.5041080  73.4342170   6.7113270  31.1728100  58.9526700
   6.1623370  31.6197400  59.5969440   7.3332530  30.6677350  59.4764370
  10.7648210  32.5270200  74.8848960  11.5057680  32.8645960  74.3816420
  10.0020890  32.6962260  74.3318730   2.3788390  30.1319020  60.8492000
   2.8004810  29.9658890  61.6923390   2.5039230  29.3219250  60.3547140
   4.8916030  29.1556630  58.0969100   5.4121690  28.4405650  57.7310250
   5.5384430  29.7942500  58.3969610   9.4393870  30.5785030  73.4204170
   9.8534890  30.7330110  74.2694590   8.5044870  30.7040250  73.5829950
   9.9116040  27.9181190  75.4243320  10.4936810  27.1633510  75.3363800
  10.0877810  28.4488630  74.6474800   3.7949550  21.6351180  70.7687660
   3.3466850  21.6575440  69.9233210   3.1614750  21.2370200  71.3657960
   4.2009100  30.5305510  71.3900100   4.6197210  31.3738240  71.2176340
   3.2817730  30.6677550  71.1606880   6.5373000  28.2621690  72.7737940
   6.6569210  27.6662830  73.5132780   7.3967000  28.2991380  72.3539240
   8.8760900  28.8158880  71.3500450   8.3496120  29.3401500  70.7465590
   9.2192240  29.4486270  71.9810180   2.0516520  36.8358520  72.5057830
   1.5137610  37.5604580  72.1866530   2.3050480  36.3588860  71.7155170
   3.3041770  24.8043040  74.0313760   3.8941460  24.4958890  74.7191580
   2.4862010  24.3322790  74.1873660   8.1235200  24.4208850  74.2646780
   7.4350720  23.7590390  74.1996770   8.8441220  23.9747120  74.7095240
   8.7535600  21.0160480  60.3237040   9.0337890  20.1728380  60.6796460
   7.9801330  21.2483590  60.8375790   4.9078730  38.0709730  72.7644480
   4.8337430  38.9744870  73.0716850   4.0057570  37.7521630  72.7366550
   3.2915020  22.2487490  58.7684240   2.9437020  21.5711480  58.1886690
   3.4927790  21.7877000  59.5827630   5.4564060  37.2368240  60.3870840
   6.3514850  37.5753210  60.4089600   5.4881690  36.5147650  59.7595120
  12.4358410  35.7671910  73.0937040  11.8360400  35.8264470  72.3500960
  12.5652310  34.8276890  73.2233890  13.6759860  33.5089730  58.4306750
  12.8452820  33.5766380  58.9013980  13.8531690  34.3993850  58.1273610
  13.1316320  30.2537210  60.9340950  13.8935230  30.8233860  61.0400640
  13.1470690  29.6864410  61.7049260  14.1376290  31.1087310  65.7782880
  14.5085120  30.3254630  65.3718850  14.7778220  31.7976410  65.6000180
  11.1210050  32.4923890  71.1913200  10.3069890  32.9221050  71.4538990
  11.5284250  33.1042300  70.5782250  13.1835490  30.5471580  58.0913470
  13.4584330  31.4550460  57.9632690  12.9946230  30.4834110  59.0275460
   9.5811100  23.5716430  59.3867100   9.9995980  23.3847410  58.5463760
   9.2747160  22.7195480  59.6970030  13.0800830  28.4840570  63.0842900
  12.7044430  27.7168500  62.6524190  12.3503950  28.8663270  63.5717830
  12.4700450  27.6312090  72.7182420  12.2386540  27.4024840  71.8180370
  12.7305000  28.5511640  72.6727310  10.9088520  22.8568520  75.4962120
  11.7858700  22.8651920  75.8796120  10.9209360  22.1199360  74.8854470
  12.3551790  26.7098060  66.3850140  12.8789270  26.2160710  65.7540310
  12.9411210  26.8448420  67.1297710  12.5341510  26.7937930  69.9069690
  11.5844220  26.7601470  70.0214680  12.7154520  27.7038040  69.6719460
  11.8451760  25.9671410  62.3242550  12.3410880  25.7342280  63.1091430
  11.6467830  25.1283250  61.9080190  13.2738920  24.6032360  64.8580230
  13.1638200  24.4488400  65.7962500  14.0346510  24.0753300  64.6155640
  11.6204640  20.5426490  71.3163230  12.2576860  21.1560630  71.6822420
  11.7679530  20.5787150  70.3712460  14.1629190  22.4340280  58.0986370
  15.0878500  22.3021460  57.8904660  14.1404980  22.5133100  59.0522820
  14.2367680  23.2050940  60.7243080  13.4419180  23.1396060  61.2535990
  14.4410960  24.1401580  60.7128430  11.1786100  37.2442490  64.7181470
  11.7745170  36.9227060  64.0415890  11.4364250  36.7714310  65.5094740
   2.7854700  35.2319990  70.4681820   2.5446060  35.4994550  69.5812340
   3.7257340  35.4025720  70.5232680   4.9909120  21.6952680  74.2238330
   4.9298010  22.2874510  74.9733740   5.9309500  21.5878640  74.0788590
   7.6283680  21.3522740  73.8630620   8.2424090  21.6702030  73.2011700
   8.1733240  20.8671330  74.4826480  14.0458860  37.2514370  71.2692460
  13.5517140  37.6483240  70.5519590  13.4372150  36.6263580  71.6629740
   8.3691720  19.9154880  70.1899910   7.4951560  20.2489990  69.9872840
   8.2602470  19.4428060  71.0151780   9.2763700  22.1225750  71.5741630
   8.9477060  21.3077510  71.1943360  10.2246000  22.0795560  71.4507320
  11.7298310  37.8937790  68.5479200  11.2701280  38.6453600  68.1737220
  11.1010770  37.1744260  68.4894000   2.1594030  36.2026030  67.7227330
   2.6759050  35.5913390  67.1975590   2.8091410  36.7054810  68.2138340
   4.8989530  37.0934520  68.5496310   5.1867340  36.8388820  67.6729320
   5.4112750  36.5411880  69.1401880   6.1166540  20.8324720  69.1292820
   5.3338330  21.3070220  69.4089580   5.8229470  19.9279550  69.0206000
  10.6687610  21.5347820  67.1741910  11.1095700  21.4792920  66.3263510
  10.3995200  22.4505830  67.2452090  12.5326180  21.1663060  65.1850730
  12.4714580  20.2224280  65.0381750  13.3118210  21.2743150  65.7304190
   4.0020760  23.2511470  64.6408850   3.1895270  22.8768360  64.3004730
   4.5062400  22.4956550  64.9430040   8.5045740  19.9153920  65.8791920
   9.1075110  20.4874130  66.3540440   7.7638730  20.4793360  65.6565820
  11.6480340  20.3175480  61.1532200  11.8430970  21.2158930  61.4199630
  10.8610210  20.0862560  61.6465150   2.0269940  21.4011390  63.2453900
   1.3972680  20.6998700  63.4124030   1.4875080  22.1615520  63.0287060
   4.9661890  38.0150620  75.9164510   5.8929200  37.7794890  75.9600470
   4.9512320  38.8422620  75.4350540  13.2006950  37.5576190  62.9138760
  13.3759140  36.8713930  62.2699680  12.5028520  38.0823240  62.5215430
   2.1525500  20.6795370  75.6806390   1.8709770  21.1828970  74.9167210
   2.5345200  19.8817120  75.3148520   7.6599110  28.1141420  46.6221600
   7.5793160  27.1996030  46.3513310   7.2463530  28.6108490  45.9161310
   5.7917150  29.8920440  48.5030870   5.0159250  29.4120880  48.7929440
   6.4430080  29.2126090  48.3287030   9.8124580  34.2980630  47.2830000
   9.3506110  33.5267870  47.6117170  10.6250130  34.3246700  47.7882450
   6.0387890  36.5838640  46.9033990   5.4199330  37.0396140  46.3328430
   6.8939670  36.7390100  46.5023690   5.2326140  32.5677630  48.5101030
   5.1634420  31.6267570  48.3490160   5.9946000  32.6579040  49.0823600
   6.2631310  25.3748010  48.7369960   6.6396130  24.5019890  48.6243630
   6.1650820  25.7106710  47.8460400  10.0455430  22.8698450  45.6698300
  10.8665050  22.3795020  45.7123780  10.0789510  23.4596110  46.4230140
   2.2344050  26.7160010  48.5312580   2.7422270  27.2140980  49.1717600
   2.7657290  25.9395210  48.3551940  14.3354980  24.8865200  52.2341930
  13.6307150  25.2746910  51.7157040  14.6012900  25.5815490  52.8362860
   6.9051240  31.4677880  44.2965900   6.2868510  31.9327330  43.7328620
   7.4174490  32.1605360  44.7135410   1.7683000  30.9953750  50.9749500
   1.4352380  31.6222670  51.6170570   1.9449680  31.5215630  50.1951170
  10.2816910  24.8098830  48.4425840   9.5772480  25.0983720  49.0228950
  10.6429070  25.6198940  48.0825400  11.8979690  34.4273960  50.7053320
  11.2143210  35.0973070  50.6969990  12.4373980  34.6254610  49.9398180
  13.3503830  24.2553620  48.8335050  12.4028740  24.2892600  48.9650480
  13.6753820  25.0692570  49.2184410   3.8823370  20.5550800  47.1291040
   4.1898350  19.9997690  46.4126540   2.9524070  20.6895260  46.9464030
   9.4338430  36.2718090  49.4198500   9.4465590  35.8680380  48.5520760
   8.8813650  37.0465380  49.3159930  10.7283850  32.9934310  44.5088670
  10.6180180  32.0508640  44.6338090  10.7252100  33.3549950  45.3951430
   8.8323870  31.1747930  50.7481110   9.2492660  30.9608040  49.9134570
   9.5563690  31.4320720  51.3189730   6.2704130  28.6199630  43.8651160
   5.3433410  28.5537010  44.0939630   6.4228950  29.5579760  43.7506400
   6.2573210  24.8916630  40.8618320   5.3176880  25.0530590  40.9470780
   6.5756470  25.6102310  40.3154310  12.7785970  29.5735150  50.8397350
  11.9504600  29.6428240  50.3647480  13.3736450  30.1589460  50.3713180
  10.3001420  30.1819930  44.3686410   9.6813840  29.8439480  43.7212710
  10.2825870  29.5379690  45.0765600   9.7427980  26.3604470  51.7852220
   9.3299160  27.1858180  52.0392210   9.0103930  25.7749510  51.5928580
   1.8760770  29.1464370  46.6470890   1.4717770  28.4341620  46.1516790
   1.9623890  28.8017610  47.5358930   2.3442470  32.8331930  48.8110100
   2.0470760  32.2277400  48.1317880   3.2942290  32.8709240  48.6999460
  10.4328080  36.4063800  52.4733200   9.9558640  37.2135990  52.2805810
   9.7489870  35.7542130  52.6259410   8.4766120  29.4206740  41.3759160
   8.9159400  28.5829170  41.2296980   9.1894540  30.0536140  41.4623300
   6.5861500  34.3602810  45.3440400   7.0257410  35.1027140  44.9295790
   6.5248390  34.6029380  46.2679360   2.0612470  35.3848640  56.2460420
   2.0327900  35.7891590  55.3788850   1.8977440  34.4559000  56.0832020
  12.0583260  20.6749550  39.6900200  11.7455920  20.7676380  40.5899270
  12.8195730  21.2530580  39.6397630  14.0127290  36.1675740  57.5424590
  14.4887010  36.6458630  58.2213670  14.6334450  36.0993230  56.8170090
  13.4160540  33.3588590  54.7024600  13.5423600  33.1200470  53.7841780
  13.4581920  32.5273130  55.1746680   7.2777280  37.0616590  53.2719410
   7.7921950  36.9724600  54.0741840   6.4346360  37.4076290  53.5647320
   9.2531680  37.3471930  42.7003410   9.0932820  37.0574870  43.5985240
   9.0878390  36.5712060  42.1648640   8.9557810  34.8559490  41.2601410
   8.2622970  34.8536780  40.6003690   9.6980670  34.4318810  40.8295580
   8.5207740  36.4822200  45.3349900   8.9764690  35.7011580  45.6488520
   8.8600260  37.1929020  45.8791080  13.2684550  25.4121050  55.6674340
  12.6528820  25.9200720  55.1389800  12.9480970  24.5119380  55.6100280
   5.3298870  24.2512940  53.1336530   4.8678240  24.4595960  53.9456470
   4.9276980  23.4372290  52.8307200  10.3303380  25.4721890  54.2633190
   9.4796970  25.1727640  54.5842260  10.1705170  25.7163900  53.3517010
   7.4253090  26.9723640  56.3631980   7.7506500  26.1387390  56.0234210
   8.2133420  27.4952160  56.5110310   4.1587880  21.0055120  42.4107040
   3.5342060  21.0014990  43.1360350   4.0718000  20.1386080  42.0143010
   3.0804960  21.9291750  49.3890810   3.3777290  22.8354580  49.3082830
   3.6290520  21.4410530  48.7750380   8.0641040  26.5141360  43.8573110
   7.4649930  27.2377160  43.6736730   8.6120650  26.4518140  43.0749560
   3.2742490  27.4063570  55.9242730   3.1786090  26.4658300  55.7743130
   4.1174470  27.6278640  55.5290800   6.6705910  25.1504900  45.8876390
   7.0635480  25.4677100  45.0745080   7.0322760  24.2716780  46.0020910
   4.9798080  23.9012210  57.1473250   4.2896400  23.7084410  57.7819340
   5.7230380  24.1846850  57.6797550   7.2561050  27.7410650  49.9827170
   6.5242170  28.2497460  50.3317270   6.8585390  26.9240630  49.6815950
   3.6938440  24.4164850  48.3879660   3.6974500  23.9754800  47.5384200
   4.5889560  24.7382180  48.4951480   3.7558590  25.4176930  41.3786420
   3.8771410  25.3763410  42.3272240   3.3707100  26.2801080  41.2233150
   7.7186960  23.1944330  49.3950110   7.7359700  23.6452980  50.2391960
   7.4702540  22.2949970  49.6083550   2.7680090  27.7278070  40.7769720
   2.1996990  27.2796320  40.1505630   3.4769090  28.0870850  40.2434870
  11.1457710  20.6076510  55.2336490  11.4703480  19.8766170  55.7594470
  11.1814220  20.2890150  54.3317480   3.9946410  28.4766630  50.1345070
   4.3616540  28.0025200  50.8806410   3.8051470  29.3508200  50.4753410
   1.7845780  27.5175270  52.4529280   1.4802850  28.3967250  52.6779640
   2.7392240  27.5775060  52.4886720  11.0715550  30.7201620  48.8422520
  11.7914670  31.2156910  48.4518630  10.8697370  30.0419510  48.1976390
   6.5325490  22.1139580  42.9851910   5.7190100  21.6152750  42.9097220
   6.3387440  22.9537830  42.5688260   6.4534350  30.7910680  54.7291520
   6.3871660  29.8706350  54.4749110   5.8239490  30.8886120  55.4436160
   9.2473880  26.4859230  41.2814070  10.1353500  26.7976460  41.1065410
   9.2178970  25.6131480  40.8894650   5.2434470  32.6582920  41.9602240
   5.5850170  33.4025150  41.4645560   4.4147180  32.9714040  42.3227070
   6.3851080  33.6131250  54.4795320   6.3995620  32.6812210  54.2614230
   5.6776180  33.6991010  55.1185090  11.5188150  27.7971070  40.7493930
  11.4351870  28.2285290  39.8990370  12.2382340  28.2569420  41.1820750
  12.5962290  30.2538590  53.8263900  11.8710480  30.8467370  53.6293290
  13.1237750  30.2462130  53.0277270  12.5475400  34.6513330  43.4776060
  11.9051560  33.9968950  43.7519780  12.1606060  35.0568420  42.7016730
   8.1261880  31.9798760  47.3247750   8.4785700  31.3826890  46.6649120
   7.2424210  31.6542990  47.4956000   4.2125160  32.7396450  44.7318160
   4.8996290  33.2865660  45.1125750   3.4257580  33.2837180  44.7667770
   3.5152370  29.7442480  44.3443520   3.9715150  30.5547730  44.5703710
   3.1640580  29.4265620  45.1762010   5.8184980  35.2548820  51.5735820
   6.4627200  35.4608200  52.2509240   6.1814420  34.4937220  51.1206670
   7.0917060  33.2581170  50.2913270   7.7339290  32.5574330  50.4045440
   7.6166410  34.0379610  50.1110160  10.9372780  33.5429790  40.0152410
  10.7110360  32.8260230  40.6077050  10.5468980  33.2942230  39.1774160
   8.8654680  34.0576070  53.4949330   9.2010920  34.6442760  54.1727250
   7.9455020  33.9268780  53.7247120  10.5189030  31.4601730  41.6766570
  10.2310730  31.9214420  42.4644450  11.3141200  30.9999500  41.9450790
   4.6943260  34.1067400  56.6637390   4.3740130  33.3876640  57.2083080
   4.0201620  34.7822470  56.7373450   2.7357430  34.9527850  41.6070540
   2.7267530  35.6857540  40.9915050   1.8155790  34.7059430  41.6997500
   7.9096860  24.3393560  52.0274190   8.2777680  23.5188770  52.3553760
   7.0495060  24.3995450  52.4429840  11.2758890  23.2950500  42.8361750
  10.6472050  23.3996170  42.1219980  10.7810810  23.5147280  43.6255630
   5.7217030  35.0156090  40.2695730   5.8229010  34.8120080  39.3397710
   4.8218770  34.7614370  40.4743510   3.2442920  25.5736450  44.2519630
   2.5359070  26.0422790  44.6933240   3.5287400  24.9158460  44.8864820
   4.8698850  26.9933150  52.2512160   5.3684100  27.4678970  52.9164010
   5.0121800  26.0696670  52.4582190   7.2758350  22.2987110  45.6915420
   7.1526130  22.3173240  44.7424930   8.2242910  22.3466050  45.8113820
   4.3635140  37.5342410  44.9643400   4.6176640  37.4963800  44.0422770
   3.4147620  37.4075740  44.9571650  12.0765710  23.2101110  53.0940550
  11.5739310  23.9506510  53.4334360  12.8922370  23.5985110  52.7777340
  10.3687720  28.4534290  46.5401910   9.4277860  28.4684520  46.7149600
  10.6831790  27.6670250  46.9862210  12.3713300  35.6243140  48.2156170
  12.4960720  36.4474310  48.6879980  13.2378860  35.4133870  47.8680320
   2.9533140  36.8904660  39.7098870   3.7461750  37.1793490  39.2580660
   2.4337490  36.4596830  39.0311350   7.6853740  33.0100290  57.0234290
   7.0791900  33.0331890  56.2830040   7.3807850  32.2783330  57.5601540
   9.1154110  36.7380580  55.6343700  10.0675860  36.6538600  55.5843940
   8.9682330  37.4022290  56.3077490  12.0063310  36.1174790  41.1335610
  11.7204820  35.7039930  40.3189790  11.8082860  37.0462500  41.0136130
   3.4710540  32.1108070  39.5741220   3.3661180  31.4960420  40.3002600
   3.3034760  31.5873960  38.7904230   3.6224860  30.7964870  55.5530450
   2.8570530  31.3649870  55.4685120   3.8040820  30.5041080  54.6598680
   6.7113270  31.1728100  40.1783210   6.1623370  31.6197400  40.8225950
   7.3332530  30.6677350  40.7020880  10.7648210  32.5270200  56.1105470
  11.5057680  32.8645960  55.6072930  10.0020890  32.6962260  55.5575240
   2.3788390  30.1319020  42.0748510   2.8004810  29.9658890  42.9179900
   2.5039230  29.3219250  41.5803650   4.8916030  29.1556630  39.3225610
   5.4121690  28.4405650  38.9566760   5.5384430  29.7942500  39.6226120
   9.4393870  30.5785030  54.6460680   9.8534890  30.7330110  55.4951100
   8.5044870  30.7040250  54.8086460   9.9116040  27.9181190  56.6499830
  10.4936810  27.1633510  56.5620310  10.0877810  28.4488630  55.8731310
   3.7949550  21.6351180  51.9944170   3.3466850  21.6575440  51.1489720
   3.1614750  21.2370200  52.5914470   4.2009100  30.5305510  52.6156610
   4.6197210  31.3738240  52.4432850   3.2817730  30.6677550  52.3863390
   6.5373000  28.2621690  53.9994450   6.6569210  27.6662830  54.7389290
   7.3967000  28.2991380  53.5795750   8.8760900  28.8158880  52.5756960
   8.3496120  29.3401500  51.9722100   9.2192240  29.4486270  53.2066690
   2.0516520  36.8358520  53.7314340   1.5137610  37.5604580  53.4123040
   2.3050480  36.3588860  52.9411680   3.3041770  24.8043040  55.2570270
   3.8941460  24.4958890  55.9448090   2.4862010  24.3322790  55.4130170
   8.1235200  24.4208850  55.4903290   7.4350720  23.7590390  55.4253280
   8.8441220  23.9747120  55.9351750   8.7535600  21.0160480  41.5493550
   9.0337890  20.1728380  41.9052970   7.9801330  21.2483590  42.0632300
   4.9078730  38.0709730  53.9900990   4.8337430  38.9744870  54.2973360
   4.0057570  37.7521630  53.9623060   3.2915020  22.2487490  39.9940750
   2.9437020  21.5711480  39.4143200   3.4927790  21.7877000  40.8084140
   5.4564060  37.2368240  41.6127350   6.3514850  37.5753210  41.6346110
   5.4881690  36.5147650  40.9851630  12.4358410  35.7671910  54.3193550
  11.8360400  35.8264470  53.5757470  12.5652310  34.8276890  54.4490400
  13.6759860  33.5089730  39.6563260  12.8452820  33.5766380  40.1270490
  13.8531690  34.3993850  39.3530120  13.1316320  30.2537210  42.1597460
  13.8935230  30.8233860  42.2657150  13.1470690  29.6864410  42.9305770
  14.1376290  31.1087310  47.0039390  14.5085120  30.3254630  46.5975360
  14.7778220  31.7976410  46.8256690  11.1210050  32.4923890  52.4169710
  10.3069890  32.9221050  52.6795500  11.5284250  33.1042300  51.8038760
  13.1835490  30.5471580  39.3169980  13.4584330  31.4550460  39.1889200
  12.9946230  30.4834110  40.2531970   9.5811100  23.5716430  40.6123610
   9.9995980  23.3847410  39.7720270   9.2747160  22.7195480  40.9226540
  13.0800830  28.4840570  44.3099410  12.7044430  27.7168500  43.8780700
  12.3503950  28.8663270  44.7974340  12.4700450  27.6312090  53.9438930
  12.2386540  27.4024840  53.0436880  12.7305000  28.5511640  53.8983820
  10.9088520  22.8568520  56.7218630  11.7858700  22.8651920  57.1052630
  10.9209360  22.1199360  56.1110980  12.3551790  26.7098060  47.6106650
  12.8789270  26.2160710  46.9796820  12.9411210  26.8448420  48.3554220
  12.5341510  26.7937930  51.1326200  11.5844220  26.7601470  51.2471190
  12.7154520  27.7038040  50.8975970  11.8451760  25.9671410  43.5499060
  12.3410880  25.7342280  44.3347940  11.6467830  25.1283250  43.1336700
  13.2738920  24.6032360  46.0836740  13.1638200  24.4488400  47.0219010
  14.0346510  24.0753300  45.8412150  11.6204640  20.5426490  52.5419740
  12.2576860  21.1560630  52.9078930  11.7679530  20.5787150  51.5968970
  14.1629190  22.4340280  39.3242880  15.0878500  22.3021460  39.1161170
  14.1404980  22.5133100  40.2779330  14.2367680  23.2050940  41.9499590
  13.4419180  23.1396060  42.4792500  14.4410960  24.1401580  41.9384940
  11.1786100  37.2442490  45.9437980  11.7745170  36.9227060  45.2672400
  11.4364250  36.7714310  46.7351250   2.7854700  35.2319990  51.6938330
   2.5446060  35.4994550  50.8068850   3.7257340  35.4025720  51.7489190
   4.9909120  21.6952680  55.4494840   4.9298010  22.2874510  56.1990250
   5.9309500  21.5878640  55.3045100   7.6283680  21.3522740  55.0887130
   8.2424090  21.6702030  54.4268210   8.1733240  20.8671330  55.7082990
  14.0458860  37.2514370  52.4948970  13.5517140  37.6483240  51.7776100
  13.4372150  36.6263580  52.8886250   8.3691720  19.9154880  51.4156420
   7.4951560  20.2489990  51.2129350   8.2602470  19.4428060  52.2408290
   9.2763700  22.1225750  52.7998140   8.9477060  21.3077510  52.4199870
  10.2246000  22.0795560  52.6763830  11.7298310  37.8937790  49.7735710
  11.2701280  38.6453600  49.3993730  11.1010770  37.1744260  49.7150510
   2.1594030  36.2026030  48.9483840   2.6759050  35.5913390  48.4232100
   2.8091410  36.7054810  49.4394850   4.8989530  37.0934520  49.7752820
   5.1867340  36.8388820  48.8985830   5.4112750  36.5411880  50.3658390
   6.1166540  20.8324720  50.3549330   5.3338330  21.3070220  50.6346090
   5.8229470  19.9279550  50.2462510  10.6687610  21.5347820  48.3998420
  11.1095700  21.4792920  47.5520020  10.3995200  22.4505830  48.4708600
  12.5326180  21.1663060  46.4107240  12.4714580  20.2224280  46.2638260
  13.3118210  21.2743150  46.9560700   4.0020760  23.2511470  45.8665360
   3.1895270  22.8768360  45.5261240   4.5062400  22.4956550  46.1686550
   8.5045740  19.9153920  47.1048430   9.1075110  20.4874130  47.5796950
   7.7638730  20.4793360  46.8822330  11.6480340  20.3175480  42.3788710
  11.8430970  21.2158930  42.6456140  10.8610210  20.0862560  42.8721660
   2.0269940  21.4011390  44.4710410   1.3972680  20.6998700  44.6380540
   1.4875080  22.1615520  44.2543570   4.9661890  38.0150620  57.1421020
   5.8929200  37.7794890  57.1856980   4.9512320  38.8422620  56.6607050
  13.2006950  37.5576190  44.1395270  13.3759140  36.8713930  43.4956190
  12.5028520  38.0823240  43.7471940   2.1525500  20.6795370  56.9062900
   1.8709770  21.1828970  56.1423720   2.5345200  19.8817120  56.5405030
   8.7540960  20.0948950  57.4843370   8.6406410  20.4143560  58.3794890
   9.5710700  20.4961460  57.1880650  11.5339450  37.2420480  56.9662060
  12.3264770  36.7469710  56.7588020  11.8272600  37.9210620  57.5737670
   7.6599110  28.1141420  27.8478110   7.5793160  27.1996030  27.5769820
   7.2463530  28.6108490  27.1417820   5.7917150  29.8920440  29.7287380
   5.0159250  29.4120880  30.0185950   6.4430080  29.2126090  29.5543540
   9.8124580  34.2980630  28.5086510   9.3506110  33.5267870  28.8373680
  10.6250130  34.3246700  29.0138960   6.0387890  36.5838640  28.1290500
   5.4199330  37.0396140  27.5584940   6.8939670  36.7390100  27.7280200
   5.2326140  32.5677630  29.7357540   5.1634420  31.6267570  29.5746670
   5.9946000  32.6579040  30.3080110   6.2631310  25.3748010  29.9626470
   6.6396130  24.5019890  29.8500140   6.1650820  25.7106710  29.0716910
  10.0455430  22.8698450  26.8954810  10.8665050  22.3795020  26.9380290
  10.0789510  23.4596110  27.6486650   2.2344050  26.7160010  29.7569090
   2.7422270  27.2140980  30.3974110   2.7657290  25.9395210  29.5808450
  14.3354980  24.8865200  33.4598440  13.6307150  25.2746910  32.9413550
  14.6012900  25.5815490  34.0619370   6.9051240  31.4677880  25.5222410
   6.2868510  31.9327330  24.9585130   7.4174490  32.1605360  25.9391920
   1.7683000  30.9953750  32.2006010   1.4352380  31.6222670  32.8427080
   1.9449680  31.5215630  31.4207680  10.2816910  24.8098830  29.6682350
   9.5772480  25.0983720  30.2485460  10.6429070  25.6198940  29.3081910
  11.8979690  34.4273960  31.9309830  11.2143210  35.0973070  31.9226500
  12.4373980  34.6254610  31.1654690  13.3503830  24.2553620  30.0591560
  12.4028740  24.2892600  30.1906990  13.6753820  25.0692570  30.4440920
   3.8823370  20.5550800  28.3547550   4.1898350  19.9997690  27.6383050
   2.9524070  20.6895260  28.1720540   9.4338430  36.2718090  30.6455010
   9.4465590  35.8680380  29.7777270   8.8813650  37.0465380  30.5416440
  10.7283850  32.9934310  25.7345180  10.6180180  32.0508640  25.8594600
  10.7252100  33.3549950  26.6207940   8.8323870  31.1747930  31.9737620
   9.2492660  30.9608040  31.1391080   9.5563690  31.4320720  32.5446240
   6.2704130  28.6199630  25.0907670   5.3433410  28.5537010  25.3196140
   6.4228950  29.5579760  24.9762910   6.2573210  24.8916630  22.0874830
   5.3176880  25.0530590  22.1727290   6.5756470  25.6102310  21.5410820
  12.7785970  29.5735150  32.0653860  11.9504600  29.6428240  31.5903990
  13.3736450  30.1589460  31.5969690  10.3001420  30.1819930  25.5942920
   9.6813840  29.8439480  24.9469220  10.2825870  29.5379690  26.3022110
   9.7427980  26.3604470  33.0108730   9.3299160  27.1858180  33.2648720
   9.0103930  25.7749510  32.8185090   1.8760770  29.1464370  27.8727400
   1.4717770  28.4341620  27.3773300   1.9623890  28.8017610  28.7615440
   2.3442470  32.8331930  30.0366610   2.0470760  32.2277400  29.3574390
   3.2942290  32.8709240  29.9255970  10.4328080  36.4063800  33.6989710
   9.9558640  37.2135990  33.5062320   9.7489870  35.7542130  33.8515920
   8.4766120  29.4206740  22.6015670   8.9159400  28.5829170  22.4553490
   9.1894540  30.0536140  22.6879810   6.5861500  34.3602810  26.5696910
   7.0257410  35.1027140  26.1552300   6.5248390  34.6029380  27.4935870
   2.0612470  35.3848640  37.4716930   2.0327900  35.7891590  36.6045360
   1.8977440  34.4559000  37.3088530  12.0583260  20.6749550  20.9156710
  11.7455920  20.7676380  21.8155780  12.8195730  21.2530580  20.8654140
  14.0127290  36.1675740  38.7681100  14.4887010  36.6458630  39.4470180
  14.6334450  36.0993230  38.0426600  13.4160540  33.3588590  35.9281110
  13.5423600  33.1200470  35.0098290  13.4581920  32.5273130  36.4003190
   7.2777280  37.0616590  34.4975920   7.7921950  36.9724600  35.2998350
   6.4346360  37.4076290  34.7903830   9.2531680  37.3471930  23.9259920
   9.0932820  37.0574870  24.8241750   9.0878390  36.5712060  23.3905150
   8.9557810  34.8559490  22.4857920   8.2622970  34.8536780  21.8260200
   9.6980670  34.4318810  22.0552090   8.5207740  36.4822200  26.5606410
   8.9764690  35.7011580  26.8745030   8.8600260  37.1929020  27.1047590
  13.2684550  25.4121050  36.8930850  12.6528820  25.9200720  36.3646310
  12.9480970  24.5119380  36.8356790   5.3298870  24.2512940  34.3593040
   4.8678240  24.4595960  35.1712980   4.9276980  23.4372290  34.0563710
  10.3303380  25.4721890  35.4889700   9.4796970  25.1727640  35.8098770
  10.1705170  25.7163900  34.5773520   7.4253090  26.9723640  37.5888490
   7.7506500  26.1387390  37.2490720   8.2133420  27.4952160  37.7366820
   4.1587880  21.0055120  23.6363550   3.5342060  21.0014990  24.3616860
   4.0718000  20.1386080  23.2399520   3.0804960  21.9291750  30.6147320
   3.3777290  22.8354580  30.5339340   3.6290520  21.4410530  30.0006890
   8.0641040  26.5141360  25.0829620   7.4649930  27.2377160  24.8993240
   8.6120650  26.4518140  24.3006070   3.2742490  27.4063570  37.1499240
   3.1786090  26.4658300  36.9999640   4.1174470  27.6278640  36.7547310
   6.6705910  25.1504900  27.1132900   7.0635480  25.4677100  26.3001590
   7.0322760  24.2716780  27.2277420   4.9798080  23.9012210  38.3729760
   4.2896400  23.7084410  39.0075850   5.7230380  24.1846850  38.9054060
   7.2561050  27.7410650  31.2083680   6.5242170  28.2497460  31.5573780
   6.8585390  26.9240630  30.9072460   3.6938440  24.4164850  29.6136170
   3.6974500  23.9754800  28.7640710   4.5889560  24.7382180  29.7207990
   3.7558590  25.4176930  22.6042930   3.8771410  25.3763410  23.5528750
   3.3707100  26.2801080  22.4489660   7.7186960  23.1944330  30.6206620
   7.7359700  23.6452980  31.4648470   7.4702540  22.2949970  30.8340060
   2.7680090  27.7278070  22.0026230   2.1996990  27.2796320  21.3762140
   3.4769090  28.0870850  21.4691380  11.1457710  20.6076510  36.4593000
  11.4703480  19.8766170  36.9850980  11.1814220  20.2890150  35.5573990
   3.9946410  28.4766630  31.3601580   4.3616540  28.0025200  32.1062920
   3.8051470  29.3508200  31.7009920   1.7845780  27.5175270  33.6785790
   1.4802850  28.3967250  33.9036150   2.7392240  27.5775060  33.7143230
  11.0715550  30.7201620  30.0679030  11.7914670  31.2156910  29.6775140
  10.8697370  30.0419510  29.4232900   6.5325490  22.1139580  24.2108420
   5.7190100  21.6152750  24.1353730   6.3387440  22.9537830  23.7944770
   6.4534350  30.7910680  35.9548030   6.3871660  29.8706350  35.7005620
   5.8239490  30.8886120  36.6692670   9.2473880  26.4859230  22.5070580
  10.1353500  26.7976460  22.3321920   9.2178970  25.6131480  22.1151160
   5.2434470  32.6582920  23.1858750   5.5850170  33.4025150  22.6902070
   4.4147180  32.9714040  23.5483580   6.3851080  33.6131250  35.7051830
   6.3995620  32.6812210  35.4870740   5.6776180  33.6991010  36.3441600
  11.5188150  27.7971070  21.9750440  11.4351870  28.2285290  21.1246880
  12.2382340  28.2569420  22.4077260  12.5962290  30.2538590  35.0520410
  11.8710480  30.8467370  34.8549800  13.1237750  30.2462130  34.2533780
  12.5475400  34.6513330  24.7032570  11.9051560  33.9968950  24.9776290
  12.1606060  35.0568420  23.9273240   8.1261880  31.9798760  28.5504260
   8.4785700  31.3826890  27.8905630   7.2424210  31.6542990  28.7212510
   4.2125160  32.7396450  25.9574670   4.8996290  33.2865660  26.3382260
   3.4257580  33.2837180  25.9924280   3.5152370  29.7442480  25.5700030
   3.9715150  30.5547730  25.7960220   3.1640580  29.4265620  26.4018520
   5.8184980  35.2548820  32.7992330   6.4627200  35.4608200  33.4765750
   6.1814420  34.4937220  32.3463180   7.0917060  33.2581170  31.5169780
   7.7339290  32.5574330  31.6301950   7.6166410  34.0379610  31.3366670
  10.9372780  33.5429790  21.2408920  10.7110360  32.8260230  21.8333560
  10.5468980  33.2942230  20.4030670   8.8654680  34.0576070  34.7205840
   9.2010920  34.6442760  35.3983760   7.9455020  33.9268780  34.9503630
  10.5189030  31.4601730  22.9023080  10.2310730  31.9214420  23.6900960
  11.3141200  30.9999500  23.1707300   4.6943260  34.1067400  37.8893900
   4.3740130  33.3876640  38.4339590   4.0201620  34.7822470  37.9629960
   2.7357430  34.9527850  22.8327050   2.7267530  35.6857540  22.2171560
   1.8155790  34.7059430  22.9254010   7.9096860  24.3393560  33.2530700
   8.2777680  23.5188770  33.5810270   7.0495060  24.3995450  33.6686350
  11.2758890  23.2950500  24.0618260  10.6472050  23.3996170  23.3476490
  10.7810810  23.5147280  24.8512140   5.7217030  35.0156090  21.4952240
   5.8229010  34.8120080  20.5654220   4.8218770  34.7614370  21.7000020
   3.2442920  25.5736450  25.4776140   2.5359070  26.0422790  25.9189750
   3.5287400  24.9158460  26.1121330   4.8698850  26.9933150  33.4768670
   5.3684100  27.4678970  34.1420520   5.0121800  26.0696670  33.6838700
   7.2758350  22.2987110  26.9171930   7.1526130  22.3173240  25.9681440
   8.2242910  22.3466050  27.0370330   4.3635140  37.5342410  26.1899910
   4.6176640  37.4963800  25.2679280   3.4147620  37.4075740  26.1828160
  12.0765710  23.2101110  34.3197060  11.5739310  23.9506510  34.6590870
  12.8922370  23.5985110  34.0033850  10.3687720  28.4534290  27.7658420
   9.4277860  28.4684520  27.9406110  10.6831790  27.6670250  28.2118720
  12.3713300  35.6243140  29.4412680  12.4960720  36.4474310  29.9136490
  13.2378860  35.4133870  29.0936830   2.9533140  36.8904660  20.9355380
   3.7461750  37.1793490  20.4837170   2.4337490  36.4596830  20.2567860
   7.6853740  33.0100290  38.2490800   7.0791900  33.0331890  37.5086550
   7.3807850  32.2783330  38.7858050   9.1154110  36.7380580  36.8600210
  10.0675860  36.6538600  36.8100450   8.9682330  37.4022290  37.5334000
  12.0063310  36.1174790  22.3592120  11.7204820  35.7039930  21.5446300
  11.8082860  37.0462500  22.2392640   3.4710540  32.1108070  20.7997730
   3.3661180  31.4960420  21.5259110   3.3034760  31.5873960  20.0160740
   3.6224860  30.7964870  36.7786960   2.8570530  31.3649870  36.6941630
   3.8040820  30.5041080  35.8855190   6.7113270  31.1728100  21.4039720
   6.1623370  31.6197400  22.0482460   7.3332530  30.6677350  21.9277390
  10.7648210  32.5270200  37.3361980  11.5057680  32.8645960  36.8329440
  10.0020890  32.6962260  36.7831750   2.3788390  30.1319020  23.3005020
   2.8004810  29.9658890  24.1436410   2.5039230  29.3219250  22.8060160
   4.8916030  29.1556630  20.5482120   5.4121690  28.4405650  20.1823270
   5.5384430  29.7942500  20.8482630   9.4393870  30.5785030  35.8717190
   9.8534890  30.7330110  36.7207610   8.5044870  30.7040250  36.0342970
   9.9116040  27.9181190  37.8756340  10.4936810  27.1633510  37.7876820
  10.0877810  28.4488630  37.0987820   3.7949550  21.6351180  33.2200680
   3.3466850  21.6575440  32.3746230   3.1614750  21.2370200  33.8170980
   4.2009100  30.5305510  33.8413120   4.6197210  31.3738240  33.6689360
   3.2817730  30.6677550  33.6119900   6.5373000  28.2621690  35.2250960
   6.6569210  27.6662830  35.9645800   7.3967000  28.2991380  34.8052260
   8.8760900  28.8158880  33.8013470   8.3496120  29.3401500  33.1978610
   9.2192240  29.4486270  34.4323200   2.0516520  36.8358520  34.9570850
   1.5137610  37.5604580  34.6379550   2.3050480  36.3588860  34.1668190
   3.3041770  24.8043040  36.4826780   3.8941460  24.4958890  37.1704600
   2.4862010  24.3322790  36.6386680   8.1235200  24.4208850  36.7159800
   7.4350720  23.7590390  36.6509790   8.8441220  23.9747120  37.1608260
   8.7535600  21.0160480  22.7750060   9.0337890  20.1728380  23.1309480
   7.9801330  21.2483590  23.2888810   4.9078730  38.0709730  35.2157500
   4.8337430  38.9744870  35.5229870   4.0057570  37.7521630  35.1879570
   3.2915020  22.2487490  21.2197260   2.9437020  21.5711480  20.6399710
   3.4927790  21.7877000  22.0340650   5.4564060  37.2368240  22.8383860
   6.3514850  37.5753210  22.8602620   5.4881690  36.5147650  22.2108140
  12.4358410  35.7671910  35.5450060  11.8360400  35.8264470  34.8013980
  12.5652310  34.8276890  35.6746910  13.6759860  33.5089730  20.8819770
  12.8452820  33.5766380  21.3527000  13.8531690  34.3993850  20.5786630
  13.1316320  30.2537210  23.3853970  13.8935230  30.8233860  23.4913660
  13.1470690  29.6864410  24.1562280  14.1376290  31.1087310  28.2295900
  14.5085120  30.3254630  27.8231870  14.7778220  31.7976410  28.0513200
  11.1210050  32.4923890  33.6426220  10.3069890  32.9221050  33.9052010
  11.5284250  33.1042300  33.0295270  13.1835490  30.5471580  20.5426490
  13.4584330  31.4550460  20.4145710  12.9946230  30.4834110  21.4788480
   9.5811100  23.5716430  21.8380120   9.9995980  23.3847410  20.9976780
   9.2747160  22.7195480  22.1483050  13.0800830  28.4840570  25.5355920
  12.7044430  27.7168500  25.1037210  12.3503950  28.8663270  26.0230850
  12.4700450  27.6312090  35.1695440  12.2386540  27.4024840  34.2693390
  12.7305000  28.5511640  35.1240330  10.9088520  22.8568520  37.9475140
  11.7858700  22.8651920  38.3309140  10.9209360  22.1199360  37.3367490
  12.3551790  26.7098060  28.8363160  12.8789270  26.2160710  28.2053330
  12.9411210  26.8448420  29.5810730  12.5341510  26.7937930  32.3582710
  11.5844220  26.7601470  32.4727700  12.7154520  27.7038040  32.1232480
  11.8451760  25.9671410  24.7755570  12.3410880  25.7342280  25.5604450
  11.6467830  25.1283250  24.3593210  13.2738920  24.6032360  27.3093250
  13.1638200  24.4488400  28.2475520  14.0346510  24.0753300  27.0668660
  11.6204640  20.5426490  33.7676250  12.2576860  21.1560630  34.1335440
  11.7679530  20.5787150  32.8225480  14.1629190  22.4340280  20.5499390
  15.0878500  22.3021460  20.3417680  14.1404980  22.5133100  21.5035840
  14.2367680  23.2050940  23.1756100  13.4419180  23.1396060  23.7049010
  14.4410960  24.1401580  23.1641450  11.1786100  37.2442490  27.1694490
  11.7745170  36.9227060  26.4928910  11.4364250  36.7714310  27.9607760
   2.7854700  35.2319990  32.9194840   2.5446060  35.4994550  32.0325360
   3.7257340  35.4025720  32.9745700   4.9909120  21.6952680  36.6751350
   4.9298010  22.2874510  37.4246760   5.9309500  21.5878640  36.5301610
   7.6283680  21.3522740  36.3143640   8.2424090  21.6702030  35.6524720
   8.1733240  20.8671330  36.9339500  14.0458860  37.2514370  33.7205480
  13.5517140  37.6483240  33.0032610  13.4372150  36.6263580  34.1142760
   8.3691720  19.9154880  32.6412930   7.4951560  20.2489990  32.4385860
   8.2602470  19.4428060  33.4664800   9.2763700  22.1225750  34.0254650
   8.9477060  21.3077510  33.6456380  10.2246000  22.0795560  33.9020340
  11.7298310  37.8937790  30.9992220  11.2701280  38.6453600  30.6250240
  11.1010770  37.1744260  30.9407020   2.1594030  36.2026030  30.1740350
   2.6759050  35.5913390  29.6488610   2.8091410  36.7054810  30.6651360
   4.8989530  37.0934520  31.0009330   5.1867340  36.8388820  30.1242340
   5.4112750  36.5411880  31.5914900   6.1166540  20.8324720  31.5805840
   5.3338330  21.3070220  31.8602600   5.8229470  19.9279550  31.4719020
  10.6687610  21.5347820  29.6254930  11.1095700  21.4792920  28.7776530
  10.3995200  22.4505830  29.6965110  12.5326180  21.1663060  27.6363750
  12.4714580  20.2224280  27.4894770  13.3118210  21.2743150  28.1817210
   4.0020760  23.2511470  27.0921870   3.1895270  22.8768360  26.7517750
   4.5062400  22.4956550  27.3943060   8.5045740  19.9153920  28.3304940
   9.1075110  20.4874130  28.8053460   7.7638730  20.4793360  28.1078840
  11.6480340  20.3175480  23.6045220  11.8430970  21.2158930  23.8712650
  10.8610210  20.0862560  24.0978170   2.0269940  21.4011390  25.6966920
   1.3972680  20.6998700  25.8637050   1.4875080  22.1615520  25.4800080
   4.9661890  38.0150620  38.3677530   5.8929200  37.7794890  38.4113490
   4.9512320  38.8422620  37.8863560  13.2006950  37.5576190  25.3651780
  13.3759140  36.8713930  24.7212700  12.5028520  38.0823240  24.9728450
   2.1525500  20.6795370  38.1319410   1.8709770  21.1828970  37.3680230
   2.5345200  19.8817120  37.7661540   8.7540960  20.0948950  38.7099880
   8.6406410  20.4143560  39.6051400   9.5710700  20.4961460  38.4137160
  11.5339450  37.2420480  38.1918570  12.3264770  36.7469710  37.9844530
  11.8272600  37.9210620  38.7994180   7.6599110  28.1141420   9.0734620
   7.5793160  27.1996030   8.8026330   7.2463530  28.6108490   8.3674330
   5.7917150  29.8920440  10.9543890   5.0159250  29.4120880  11.2442460
   6.4430080  29.2126090  10.7800050   9.8124580  34.2980630   9.7343020
   9.3506110  33.5267870  10.0630190  10.6250130  34.3246700  10.2395470
   6.0387890  36.5838640   9.3547010   5.4199330  37.0396140   8.7841450
   6.8939670  36.7390100   8.9536710   5.2326140  32.5677630  10.9614050
   5.1634420  31.6267570  10.8003180   5.9946000  32.6579040  11.5336620
   6.2631310  25.3748010  11.1882980   6.6396130  24.5019890  11.0756650
   6.1650820  25.7106710  10.2973420  10.0455430  22.8698450   8.1211320
  10.8665050  22.3795020   8.1636800  10.0789510  23.4596110   8.8743160
   2.2344050  26.7160010  10.9825600   2.7422270  27.2140980  11.6230620
   2.7657290  25.9395210  10.8064960  14.3354980  24.8865200  14.6854950
  13.6307150  25.2746910  14.1670060  14.6012900  25.5815490  15.2875880
   6.9051240  31.4677880   6.7478920   6.2868510  31.9327330   6.1841640
   7.4174490  32.1605360   7.1648430   1.7683000  30.9953750  13.4262520
   1.4352380  31.6222670  14.0683590   1.9449680  31.5215630  12.6464190
  10.2816910  24.8098830  10.8938860   9.5772480  25.0983720  11.4741970
  10.6429070  25.6198940  10.5338420  11.8979690  34.4273960  13.1566340
  11.2143210  35.0973070  13.1483010  12.4373980  34.6254610  12.3911200
  13.3503830  24.2553620  11.2848070  12.4028740  24.2892600  11.4163500
  13.6753820  25.0692570  11.6697430   3.8823370  20.5550800   9.5804060
   4.1898350  19.9997690   8.8639560   2.9524070  20.6895260   9.3977050
   9.4338430  36.2718090  11.8711520   9.4465590  35.8680380  11.0033780
   8.8813650  37.0465380  11.7672950  10.7283850  32.9934310   6.9601690
  10.6180180  32.0508640   7.0851110  10.7252100  33.3549950   7.8464450
   8.8323870  31.1747930  13.1994130   9.2492660  30.9608040  12.3647590
   9.5563690  31.4320720  13.7702750   6.2704130  28.6199630   6.3164180
   5.3433410  28.5537010   6.5452650   6.4228950  29.5579760   6.2019420
   6.2573210  24.8916630   3.3131340   5.3176880  25.0530590   3.3983800
   6.5756470  25.6102310   2.7667330  12.7785970  29.5735150  13.2910370
  11.9504600  29.6428240  12.8160500  13.3736450  30.1589460  12.8226200
  10.3001420  30.1819930   6.8199430   9.6813840  29.8439480   6.1725730
  10.2825870  29.5379690   7.5278620   9.7427980  26.3604470  14.2365240
   9.3299160  27.1858180  14.4905230   9.0103930  25.7749510  14.0441600
   1.8760770  29.1464370   9.0983910   1.4717770  28.4341620   8.6029810
   1.9623890  28.8017610   9.9871950   2.3442470  32.8331930  11.2623120
   2.0470760  32.2277400  10.5830900   3.2942290  32.8709240  11.1512480
  10.4328080  36.4063800  14.9246220   9.9558640  37.2135990  14.7318830
   9.7489870  35.7542130  15.0772430   8.4766120  29.4206740   3.8272180
   8.9159400  28.5829170   3.6810000   9.1894540  30.0536140   3.9136320
   6.5861500  34.3602810   7.7953420   7.0257410  35.1027140   7.3808810
   6.5248390  34.6029380   8.7192380   2.0612470  35.3848640  18.6973440
   2.0327900  35.7891590  17.8301870   1.8977440  34.4559000  18.5345040
  12.0583260  20.6749550   2.1413220  11.7455920  20.7676380   3.0412290
  12.8195730  21.2530580   2.0910650  14.0127290  36.1675740  19.9937610
  14.4887010  36.6458630  20.6726690  14.6334450  36.0993230  19.2683110
  13.4160540  33.3588590  17.1537620  13.5423600  33.1200470  16.2354800
  13.4581920  32.5273130  17.6259700   7.2777280  37.0616590  15.7232430
   7.7921950  36.9724600  16.5254860   6.4346360  37.4076290  16.0160340
   9.2531680  37.3471930   5.1516430   9.0932820  37.0574870   6.0498260
   9.0878390  36.5712060   4.6161660   8.9557810  34.8559490   3.7114430
   8.2622970  34.8536780   3.0516710   9.6980670  34.4318810   3.2808600
   8.5207740  36.4822200   7.7862920   8.9764690  35.7011580   8.1001540
   8.8600260  37.1929020   8.3304100  13.2684550  25.4121050  18.1187360
  12.6528820  25.9200720  17.5902820  12.9480970  24.5119380  18.0613300
   5.3298870  24.2512940  15.5849550   4.8678240  24.4595960  16.3969490
   4.9276980  23.4372290  15.2820220  10.3303380  25.4721890  16.7146210
   9.4796970  25.1727640  17.0355280  10.1705170  25.7163900  15.8030030
   7.4253090  26.9723640  18.8145000   7.7506500  26.1387390  18.4747230
   8.2133420  27.4952160  18.9623330   4.1587880  21.0055120   4.8620060
   3.5342060  21.0014990   5.5873370   4.0718000  20.1386080   4.4656030
   3.0804960  21.9291750  11.8403830   3.3777290  22.8354580  11.7595850
   3.6290520  21.4410530  11.2263400   8.0641040  26.5141360   6.3086130
   7.4649930  27.2377160   6.1249750   8.6120650  26.4518140   5.5262580
   3.2742490  27.4063570  18.3755750   3.1786090  26.4658300  18.2256150
   4.1174470  27.6278640  17.9803820   6.6705910  25.1504900   8.3389410
   7.0635480  25.4677100   7.5258100   7.0322760  24.2716780   8.4533930
   4.9798080  23.9012210  19.5986270   4.2896400  23.7084410  20.2332360
   5.7230380  24.1846850  20.1310570   7.2561050  27.7410650  12.4340190
   6.5242170  28.2497460  12.7830290   6.8585390  26.9240630  12.1328970
   3.6938440  24.4164850  10.8392680   3.6974500  23.9754800   9.9897220
   4.5889560  24.7382180  10.9464500   3.7558590  25.4176930   3.8299440
   3.8771410  25.3763410   4.7785260   3.3707100  26.2801080   3.6746170
   7.7186960  23.1944330  11.8463130   7.7359700  23.6452980  12.6904980
   7.4702540  22.2949970  12.0596570   2.7680090  27.7278070   3.2282740
   2.1996990  27.2796320   2.6018650   3.4769090  28.0870850   2.6947890
  11.1457710  20.6076510  17.6849510  11.4703480  19.8766170  18.2107490
  11.1814220  20.2890150  16.7830500   3.9946410  28.4766630  12.5858090
   4.3616540  28.0025200  13.3319430   3.8051470  29.3508200  12.9266430
   1.7845780  27.5175270  14.9042300   1.4802850  28.3967250  15.1292660
   2.7392240  27.5775060  14.9399740  11.0715550  30.7201620  11.2935540
  11.7914670  31.2156910  10.9031650  10.8697370  30.0419510  10.6489410
   6.5325490  22.1139580   5.4364930   5.7190100  21.6152750   5.3610240
   6.3387440  22.9537830   5.0201280   6.4534350  30.7910680  17.1804540
   6.3871660  29.8706350  16.9262130   5.8239490  30.8886120  17.8949180
   9.2473880  26.4859230   3.7327090  10.1353500  26.7976460   3.5578430
   9.2178970  25.6131480   3.3407670   5.2434470  32.6582920   4.4115260
   5.5850170  33.4025150   3.9158580   4.4147180  32.9714040   4.7740090
   6.3851080  33.6131250  16.9308340   6.3995620  32.6812210  16.7127250
   5.6776180  33.6991010  17.5698110  11.5188150  27.7971070   3.2006950
  11.4351870  28.2285290   2.3503390  12.2382340  28.2569420   3.6333770
  12.5962290  30.2538590  16.2776920  11.8710480  30.8467370  16.0806310
  13.1237750  30.2462130  15.4790290  12.5475400  34.6513330   5.9289080
  11.9051560  33.9968950   6.2032800  12.1606060  35.0568420   5.1529750
   8.1261880  31.9798760   9.7760770   8.4785700  31.3826890   9.1162140
   7.2424210  31.6542990   9.9469020   4.2125160  32.7396450   7.1831180
   4.8996290  33.2865660   7.5638770   3.4257580  33.2837180   7.2180790
   3.5152370  29.7442480   6.7956540   3.9715150  30.5547730   7.0216730
   3.1640580  29.4265620   7.6275030   5.8184980  35.2548820  14.0248840
   6.4627200  35.4608200  14.7022260   6.1814420  34.4937220  13.5719690
   7.0917060  33.2581170  12.7426290   7.7339290  32.5574330  12.8558460
   7.6166410  34.0379610  12.5623180  10.9372780  33.5429790   2.4665430
  10.7110360  32.8260230   3.0590070  10.5468980  33.2942230   1.6287180
   8.8654680  34.0576070  15.9462350   9.2010920  34.6442760  16.6240270
   7.9455020  33.9268780  16.1760140  10.5189030  31.4601730   4.1279590
  10.2310730  31.9214420   4.9157470  11.3141200  30.9999500   4.3963810
   4.6943260  34.1067400  19.1150410   4.3740130  33.3876640  19.6596100
   4.0201620  34.7822470  19.1886470   2.7357430  34.9527850   4.0583560
   2.7267530  35.6857540   3.4428070   1.8155790  34.7059430   4.1510520
   7.9096860  24.3393560  14.4787210   8.2777680  23.5188770  14.8066780
   7.0495060  24.3995450  14.8942860  11.2758890  23.2950500   5.2874770
  10.6472050  23.3996170   4.5733000  10.7810810  23.5147280   6.0768650
   5.7217030  35.0156090   2.7208750   5.8229010  34.8120080   1.7910730
   4.8218770  34.7614370   2.9256530   3.2442920  25.5736450   6.7032650
   2.5359070  26.0422790   7.1446260   3.5287400  24.9158460   7.3377840
   4.8698850  26.9933150  14.7025180   5.3684100  27.4678970  15.3677030
   5.0121800  26.0696670  14.9095210   7.2758350  22.2987110   8.1428440
   7.1526130  22.3173240   7.1937950   8.2242910  22.3466050   8.2626840
   4.3635140  37.5342410   7.4156420   4.6176640  37.4963800   6.4935790
   3.4147620  37.4075740   7.4084670  12.0765710  23.2101110  15.5453570
  11.5739310  23.9506510  15.8847380  12.8922370  23.5985110  15.2290360
  10.3687720  28.4534290   8.9914930   9.4277860  28.4684520   9.1662620
  10.6831790  27.6670250   9.4375230  12.3713300  35.6243140  10.6669190
  12.4960720  36.4474310  11.1393000  13.2378860  35.4133870  10.3193340
   7.6853740  33.0100290  19.4747310   7.0791900  33.0331890  18.7343060
   7.3807850  32.2783330  20.0114560   9.1154110  36.7380580  18.0856720
  10.0675860  36.6538600  18.0356960   8.9682330  37.4022290  18.7590510
  12.0063310  36.1174790   3.5848630  11.7204820  35.7039930   2.7702810
  11.8082860  37.0462500   3.4649150   3.6224860  30.7964870  18.0043470
   2.8570530  31.3649870  17.9198140   3.8040820  30.5041080  17.1111700
   6.7113270  31.1728100   2.6296230   6.1623370  31.6197400   3.2738970
   7.3332530  30.6677350   3.1533900  10.7648210  32.5270200  18.5618490
  11.5057680  32.8645960  18.0585950  10.0020890  32.6962260  18.0088260
   2.3788390  30.1319020   4.5261530   2.8004810  29.9658890   5.3692920
   2.5039230  29.3219250   4.0316670   9.4393870  30.5785030  17.0973700
   9.8534890  30.7330110  17.9464120   8.5044870  30.7040250  17.2599480
   9.9116040  27.9181190  19.1012850  10.4936810  27.1633510  19.0133330
  10.0877810  28.4488630  18.3244330   3.7949550  21.6351180  14.4457190
   3.3466850  21.6575440  13.6002740   3.1614750  21.2370200  15.0427490
   4.2009100  30.5305510  15.0669630   4.6197210  31.3738240  14.8945870
   3.2817730  30.6677550  14.8376410   6.5373000  28.2621690  16.4507470
   6.6569210  27.6662830  17.1902310   7.3967000  28.2991380  16.0308770
   8.8760900  28.8158880  15.0269980   8.3496120  29.3401500  14.4235120
   9.2192240  29.4486270  15.6579710   2.0516520  36.8358520  16.1827360
   1.5137610  37.5604580  15.8636060   2.3050480  36.3588860  15.3924700
   3.3041770  24.8043040  17.7083290   3.8941460  24.4958890  18.3961110
   2.4862010  24.3322790  17.8643190   8.1235200  24.4208850  17.9416310
   7.4350720  23.7590390  17.8766300   8.8441220  23.9747120  18.3864770
   8.7535600  21.0160480   4.0006570   9.0337890  20.1728380   4.3565990
   7.9801330  21.2483590   4.5145320   4.9078730  38.0709730  16.4414010
   4.8337430  38.9744870  16.7486380   4.0057570  37.7521630  16.4136080
   3.2915020  22.2487490   2.4453770   2.9437020  21.5711480   1.8656220
   3.4927790  21.7877000   3.2597160   5.4564060  37.2368240   4.0640370
   6.3514850  37.5753210   4.0859130   5.4881690  36.5147650   3.4364650
  12.4358410  35.7671910  16.7706570  11.8360400  35.8264470  16.0270490
  12.5652310  34.8276890  16.9003420  13.6759860  33.5089730   2.1076280
  12.8452820  33.5766380   2.5783510  13.8531690  34.3993850   1.8043140
  13.1316320  30.2537210   4.6110480  13.8935230  30.8233860   4.7170170
  13.1470690  29.6864410   5.3818790  14.1376290  31.1087310   9.4552410
  14.5085120  30.3254630   9.0488380  14.7778220  31.7976410   9.2769710
  11.1210050  32.4923890  14.8682730  10.3069890  32.9221050  15.1308520
  11.5284250  33.1042300  14.2551780  13.1835490  30.5471580   1.7683000
  13.4584330  31.4550460   1.6402220  12.9946230  30.4834110   2.7044990
   9.5811100  23.5716430   3.0636630   9.9995980  23.3847410   2.2233290
   9.2747160  22.7195480   3.3739560  13.0800830  28.4840570   6.7612430
  12.7044430  27.7168500   6.3293720  12.3503950  28.8663270   7.2487360
  12.4700450  27.6312090  16.3951950  12.2386540  27.4024840  15.4949900
  12.7305000  28.5511640  16.3496840  10.9088520  22.8568520  19.1731650
  11.7858700  22.8651920  19.5565650  10.9209360  22.1199360  18.5624000
  12.3551790  26.7098060  10.0619670  12.8789270  26.2160710   9.4309840
  12.9411210  26.8448420  10.8067240  12.5341510  26.7937930  13.5839220
  11.5844220  26.7601470  13.6984210  12.7154520  27.7038040  13.3488990
  11.8451760  25.9671410   6.0012080  12.3410880  25.7342280   6.7860960
  11.6467830  25.1283250   5.5849720  13.2738920  24.6032360   8.5349760
  13.1638200  24.4488400   9.4732030  14.0346510  24.0753300   8.2925170
  11.6204640  20.5426490  14.9932760  12.2576860  21.1560630  15.3591950
  11.7679530  20.5787150  14.0481990  14.1629190  22.4340280   1.7755900
  15.0878500  22.3021460   1.5674190  14.1404980  22.5133100   2.7292350
  14.2367680  23.2050940   4.4012610  13.4419180  23.1396060   4.9305520
  14.4410960  24.1401580   4.3897960  11.1786100  37.2442490   8.3951000
  11.7745170  36.9227060   7.7185420  11.4364250  36.7714310   9.1864270
   2.7854700  35.2319990  14.1451350   2.5446060  35.4994550  13.2581870
   3.7257340  35.4025720  14.2002210   4.9909120  21.6952680  17.9007860
   4.9298010  22.2874510  18.6503270   5.9309500  21.5878640  17.7558120
   7.6283680  21.3522740  17.5400150   8.2424090  21.6702030  16.8781230
   8.1733240  20.8671330  18.1596010  14.0458860  37.2514370  14.9461990
  13.5517140  37.6483240  14.2289120  13.4372150  36.6263580  15.3399270
   8.3691720  19.9154880  13.8669440   7.4951560  20.2489990  13.6642370
   8.2602470  19.4428060  14.6921310   9.2763700  22.1225750  15.2511160
   8.9477060  21.3077510  14.8712890  10.2246000  22.0795560  15.1276850
  11.7298310  37.8937790  12.2248730  11.2701280  38.6453600  11.8506750
  11.1010770  37.1744260  12.1663530   2.1594030  36.2026030  11.3996860
   2.6759050  35.5913390  10.8745120   2.8091410  36.7054810  11.8907870
   4.8989530  37.0934520  12.2265840   5.1867340  36.8388820  11.3498850
   5.4112750  36.5411880  12.8171410   6.1166540  20.8324720  12.8062350
   5.3338330  21.3070220  13.0859110   5.8229470  19.9279550  12.6975530
  10.6687610  21.5347820  10.8511440  11.1095700  21.4792920  10.0033040
  10.3995200  22.4505830  10.9221620  12.5326180  21.1663060   8.8620260
  12.4714580  20.2224280   8.7151280  13.3118210  21.2743150   9.4073720
   4.0020760  23.2511470   8.3178380   3.1895270  22.8768360   7.9774260
   4.5062400  22.4956550   8.6199570   8.5045740  19.9153920   9.5561450
   9.1075110  20.4874130  10.0309970   7.7638730  20.4793360   9.3335350
  11.6480340  20.3175480   4.8301730  11.8430970  21.2158930   5.0969160
  10.8610210  20.0862560   5.3234680   2.0269940  21.4011390   6.9223430
   1.3972680  20.6998700   7.0893560   1.4875080  22.1615520   6.7056590
   4.9661890  38.0150620  19.5934040   5.8929200  37.7794890  19.6370000
   4.9512320  38.8422620  19.1120070  13.2006950  37.5576190   6.5908290
  13.3759140  36.8713930   5.9469210  12.5028520  38.0823240   6.1984960
   2.1525500  20.6795370  19.3575920   1.8709770  21.1828970  18.5936740
   2.5345200  19.8817120  18.9918050   8.7540960  20.0948950  19.9356390
   8.6406410  20.4143560  20.8307910   9.5710700  20.4961460  19.6393670
  11.5339450  37.2420480  19.4175080  12.3264770  36.7469710  19.2101040
  11.8272600  37.9210620  20.0250690   7.6599110   9.3397930  65.3965090
   7.5793160   8.4252540  65.1256800   7.2463530   9.8365000  64.6904800
   5.7917150  11.1176950  67.2774360   5.0159250  10.6377390  67.5672930
   6.4430080  10.4382600  67.1030520   9.8124580  15.5237140  66.0573490
   9.3506110  14.7524380  66.3860660  10.6250130  15.5503210  66.5625940
   6.0387890  17.8095150  65.6777480   5.4199330  18.2652650  65.1071920
   6.8939670  17.9646610  65.2767180   5.2326140  13.7934140  67.2844520
   5.1634420  12.8524080  67.1233650   5.9946000  13.8835550  67.8567090
   6.2631310   6.6004520  67.5113450   6.6396130   5.7276400  67.3987120
   6.1650820   6.9363220  66.6203890  10.0455430   4.0954960  64.4441790
  10.8665050   3.6051530  64.4867270  10.0789510   4.6852620  65.1973630
   2.2344050   7.9416520  67.3056070   2.7422270   8.4397490  67.9461090
   2.7657290   7.1651720  67.1295430  14.3354980   6.1121710  71.0085420
  13.6307150   6.5003420  70.4900530  14.6012900   6.8072000  71.6106350
   6.9051240  12.6934390  63.0709390   6.2868510  13.1583840  62.5072110
   7.4174490  13.3861870  63.4878900   1.7683000  12.2210260  69.7492990
   1.4352380  12.8479180  70.3914060   1.9449680  12.7472140  68.9694660
  10.2816910   6.0355340  67.2169330   9.5772480   6.3240230  67.7972440
  10.6429070   6.8455450  66.8568890  11.8979690  15.6530470  69.4796810
  11.2143210  16.3229580  69.4713480  12.4373980  15.8511120  68.7141670
  13.3503830   5.4810130  67.6078540  12.4028740   5.5149110  67.7393970
  13.6753820   6.2949080  67.9927900   9.4338430  17.4974600  68.1941990
   9.4465590  17.0936890  67.3264250   8.8813650  18.2721890  68.0903420
  10.7283850  14.2190820  63.2832160  10.6180180  13.2765150  63.4081580
  10.7252100  14.5806460  64.1694920   8.8323870  12.4004440  69.5224600
   9.2492660  12.1864550  68.6878060   9.5563690  12.6577230  70.0933220
   6.2704130   9.8456140  62.6394650   5.3433410   9.7793520  62.8683120
   6.4228950  10.7836270  62.5249890   6.2573210   6.1173140  59.6361810
   5.3176880   6.2787100  59.7214270   6.5756470   6.8358820  59.0897800
  12.7785970  10.7991660  69.6140840  11.9504600  10.8684750  69.1390970
  13.3736450  11.3845970  69.1456670  10.3001420  11.4076440  63.1429900
   9.6813840  11.0695990  62.4956200  10.2825870  10.7636200  63.8509090
   9.7427980   7.5860980  70.5595710   9.3299160   8.4114690  70.8135700
   9.0103930   7.0006020  70.3672070   1.8760770  10.3720880  65.4214380
   1.4717770   9.6598130  64.9260280   1.9623890  10.0274120  66.3102420
   2.3442470  14.0588440  67.5853590   2.0470760  13.4533910  66.9061370
   3.2942290  14.0965750  67.4742950  10.4328080  17.6320310  71.2476690
   9.9558640  18.4392500  71.0549300   9.7489870  16.9798640  71.4002900
   8.4766120  10.6463250  60.1502650   8.9159400   9.8085680  60.0040470
   9.1894540  11.2792650  60.2366790   6.5861500  15.5859320  64.1183890
   7.0257410  16.3283650  63.7039280   6.5248390  15.8285890  65.0422850
   2.0612470  16.6105150  75.0203910   2.0327900  17.0148100  74.1532340
   1.8977440  15.6815510  74.8575510  12.0583260   1.9006060  58.4643690
  11.7455920   1.9932890  59.3642760  12.8195730   2.4787090  58.4141120
  13.4160540  14.5845100  73.4768090  13.5423600  14.3456980  72.5585270
  13.4581920  13.7529640  73.9490170   7.2777280  18.2873100  72.0462900
   7.7921950  18.1981110  72.8485330   6.4346360  18.6332800  72.3390810
   9.2531680  18.5728440  61.4746900   9.0932820  18.2831380  62.3728730
   9.0878390  17.7968570  60.9392130   8.9557810  16.0816000  60.0344900
   8.2622970  16.0793290  59.3747180   9.6980670  15.6575320  59.6039070
   8.5207740  17.7078710  64.1093390   8.9764690  16.9268090  64.4232010
   8.8600260  18.4185530  64.6534570  13.2684550   6.6377560  74.4417830
  12.6528820   7.1457230  73.9133290  12.9480970   5.7375890  74.3843770
   5.3298870   5.4769450  71.9080020   4.8678240   5.6852470  72.7199960
   4.9276980   4.6628800  71.6050690  10.3303380   6.6978400  73.0376680
   9.4796970   6.3984150  73.3585750  10.1705170   6.9420410  72.1260500
   7.4253090   8.1980150  75.1375470   7.7506500   7.3643900  74.7977700
   8.2133420   8.7208670  75.2853800   3.0804960   3.1548260  68.1634300
   3.3777290   4.0611090  68.0826320   3.6290520   2.6667040  67.5493870
   8.0641040   7.7397870  62.6316600   7.4649930   8.4633670  62.4480220
   8.6120650   7.6774650  61.8493050   3.2742490   8.6320080  74.6986220
   3.1786090   7.6914810  74.5486620   4.1174470   8.8535150  74.3034290
   6.6705910   6.3761410  64.6619880   7.0635480   6.6933610  63.8488570
   7.0322760   5.4973290  64.7764400   7.2561050   8.9667160  68.7570660
   6.5242170   9.4753970  69.1060760   6.8585390   8.1497140  68.4559440
   3.6938440   5.6421360  67.1623150   3.6974500   5.2011310  66.3127690
   4.5889560   5.9638690  67.2694970   3.7558590   6.6433440  60.1529910
   3.8771410   6.6019920  61.1015730   3.3707100   7.5057590  59.9976640
   7.7186960   4.4200840  68.1693600   7.7359700   4.8709490  69.0135450
   7.4702540   3.5206480  68.3827040   2.7680090   8.9534580  59.5513210
   2.1996990   8.5052830  58.9249120   3.4769090   9.3127360  59.0178360
   3.9946410   9.7023140  68.9088560   4.3616540   9.2281710  69.6549900
   3.8051470  10.5764710  69.2496900   1.7845780   8.7431780  71.2272770
   1.4802850   9.6223760  71.4523130   2.7392240   8.8031570  71.2630210
  11.0715550  11.9458130  67.6166010  11.7914670  12.4413420  67.2262120
  10.8697370  11.2676020  66.9719880   6.5325490   3.3396090  61.7595400
   5.7190100   2.8409260  61.6840710   6.3387440   4.1794340  61.3431750
   6.4534350  12.0167190  73.5035010   6.3871660  11.0962860  73.2492600
   5.8239490  12.1142630  74.2179650   9.2473880   7.7115740  60.0557560
  10.1353500   8.0232970  59.8808900   9.2178970   6.8387990  59.6638140
   5.2434470  13.8839430  60.7345730   5.5850170  14.6281660  60.2389050
   4.4147180  14.1970550  61.0970560   6.3851080  14.8387760  73.2538810
   6.3995620  13.9068720  73.0357720   5.6776180  14.9247520  73.8928580
  11.5188150   9.0227580  59.5237420  11.4351870   9.4541800  58.6733860
  12.2382340   9.4825930  59.9564240  12.5962290  11.4795100  72.6007390
  11.8710480  12.0723880  72.4036780  13.1237750  11.4718640  71.8020760
  12.5475400  15.8769840  62.2519550  11.9051560  15.2225460  62.5263270
  12.1606060  16.2824930  61.4760220   8.1261880  13.2055270  66.0991240
   8.4785700  12.6083400  65.4392610   7.2424210  12.8799500  66.2699490
   4.2125160  13.9652960  63.5061650   4.8996290  14.5122170  63.8869240
   3.4257580  14.5093690  63.5411260   3.5152370  10.9698990  63.1187010
   3.9715150  11.7804240  63.3447200   3.1640580  10.6522130  63.9505500
   5.8184980  16.4805330  70.3479310   6.4627200  16.6864710  71.0252730
   6.1814420  15.7193730  69.8950160   7.0917060  14.4837680  69.0656760
   7.7339290  13.7830840  69.1788930   7.6166410  15.2636120  68.8853650
  10.9372780  14.7686300  58.7895900  10.7110360  14.0516740  59.3820540
  10.5468980  14.5198740  57.9517650   8.8654680  15.2832580  72.2692820
   9.2010920  15.8699270  72.9470740   7.9455020  15.1525290  72.4990610
  10.5189030  12.6858240  60.4510060  10.2310730  13.1470930  61.2387940
  11.3141200  12.2256010  60.7194280   4.6943260  15.3323910  75.4380880
   4.3740130  14.6133150  75.9826570   4.0201620  16.0078980  75.5116940
   2.7357430  16.1784360  60.3814030   2.7267530  16.9114050  59.7658540
   1.8155790  15.9315940  60.4740990   7.9096860   5.5650070  70.8017680
   8.2777680   4.7445280  71.1297250   7.0495060   5.6251960  71.2173330
  11.2758890   4.5207010  61.6105240  10.6472050   4.6252680  60.8963470
  10.7810810   4.7403790  62.3999120   5.7217030  16.2412600  59.0439220
   5.8229010  16.0376590  58.1141200   4.8218770  15.9870880  59.2487000
   3.2442920   6.7992960  63.0263120   2.5359070   7.2679300  63.4676730
   3.5287400   6.1414970  63.6608310   4.8698850   8.2189660  71.0255650
   5.3684100   8.6935480  71.6907500   5.0121800   7.2953180  71.2325680
   7.2758350   3.5243620  64.4658910   7.1526130   3.5429750  63.5168420
   8.2242910   3.5722560  64.5857310   4.3635140  18.7598920  63.7386890
   4.6176640  18.7220310  62.8166260   3.4147620  18.6332250  63.7315140
  12.0765710   4.4357620  71.8684040  11.5739310   5.1763020  72.2077850
  12.8922370   4.8241620  71.5520830  10.3687720   9.6790800  65.3145400
   9.4277860   9.6941030  65.4893090  10.6831790   8.8926760  65.7605700
  12.3713300  16.8499650  66.9899660  12.4960720  17.6730820  67.4623470
  13.2378860  16.6390380  66.6423810   2.9533140  18.1161170  58.4842360
   3.7461750  18.4050000  58.0324150   2.4337490  17.6853340  57.8054840
   9.1154110  17.9637090  74.4087190  10.0675860  17.8795110  74.3587430
   8.9682330  18.6278800  75.0820980  12.0063310  17.3431300  59.9079100
  11.7204820  16.9296440  59.0933280  11.8082860  18.2719010  59.7879620
   3.4710540  13.3364580  58.3484710   3.3661180  12.7216930  59.0746090
   3.3034760  12.8130470  57.5647720   3.6224860  12.0221380  74.3273940
   2.8570530  12.5906380  74.2428610   3.8040820  11.7297590  73.4342170
   6.7113270  12.3984610  58.9526700   6.1623370  12.8453910  59.5969440
   7.3332530  11.8933860  59.4764370  10.7648210  13.7526710  74.8848960
  11.5057680  14.0902470  74.3816420  10.0020890  13.9218770  74.3318730
   2.3788390  11.3575530  60.8492000   2.8004810  11.1915400  61.6923390
   2.5039230  10.5475760  60.3547140   4.8916030  10.3813140  58.0969100
   5.4121690   9.6662160  57.7310250   5.5384430  11.0199010  58.3969610
   9.4393870  11.8041540  73.4204170   9.8534890  11.9586620  74.2694590
   8.5044870  11.9296760  73.5829950   9.9116040   9.1437700  75.4243320
  10.4936810   8.3890020  75.3363800  10.0877810   9.6745140  74.6474800
   3.7949550   2.8607690  70.7687660   3.3466850   2.8831950  69.9233210
   3.1614750   2.4626710  71.3657960   4.2009100  11.7562020  71.3900100
   4.6197210  12.5994750  71.2176340   3.2817730  11.8934060  71.1606880
   6.5373000   9.4878200  72.7737940   6.6569210   8.8919340  73.5132780
   7.3967000   9.5247890  72.3539240   8.8760900  10.0415390  71.3500450
   8.3496120  10.5658010  70.7465590   9.2192240  10.6742780  71.9810180
   2.0516520  18.0615030  72.5057830   1.5137610  18.7861090  72.1866530
   2.3050480  17.5845370  71.7155170   3.3041770   6.0299550  74.0313760
   3.8941460   5.7215400  74.7191580   2.4862010   5.5579300  74.1873660
   8.1235200   5.6465360  74.2646780   7.4350720   4.9846900  74.1996770
   8.8441220   5.2003630  74.7095240   4.9078730  19.2966240  72.7644480
   4.8337430  20.2001380  73.0716850   4.0057570  18.9778140  72.7366550
   3.2915020   3.4744000  58.7684240   2.9437020   2.7967990  58.1886690
   3.4927790   3.0133510  59.5827630   5.4564060  18.4624750  60.3870840
   6.3514850  18.8009720  60.4089600   5.4881690  17.7404160  59.7595120
  12.4358410  16.9928420  73.0937040  11.8360400  17.0520980  72.3500960
  12.5652310  16.0533400  73.2233890  13.6759860  14.7346240  58.4306750
  12.8452820  14.8022890  58.9013980  13.8531690  15.6250360  58.1273610
  13.1316320  11.4793720  60.9340950  13.8935230  12.0490370  61.0400640
  13.1470690  10.9120920  61.7049260  14.1376290  12.3343820  65.7782880
  14.5085120  11.5511140  65.3718850  14.7778220  13.0232920  65.6000180
  11.1210050  13.7180400  71.1913200  10.3069890  14.1477560  71.4538990
  11.5284250  14.3298810  70.5782250  13.1835490  11.7728090  58.0913470
  13.4584330  12.6806970  57.9632690  12.9946230  11.7090620  59.0275460
   9.5811100   4.7972940  59.3867100   9.9995980   4.6103920  58.5463760
   9.2747160   3.9451990  59.6970030  13.0800830   9.7097080  63.0842900
  12.7044430   8.9425010  62.6524190  12.3503950  10.0919780  63.5717830
  12.4700450   8.8568600  72.7182420  12.2386540   8.6281350  71.8180370
  12.7305000   9.7768150  72.6727310  10.9088520   4.0825030  75.4962120
  11.7858700   4.0908430  75.8796120  10.9209360   3.3455870  74.8854470
  12.3551790   7.9354570  66.3850140  12.8789270   7.4417220  65.7540310
  12.9411210   8.0704930  67.1297710  12.5341510   8.0194440  69.9069690
  11.5844220   7.9857980  70.0214680  12.7154520   8.9294550  69.6719460
  11.8451760   7.1927920  62.3242550  12.3410880   6.9598790  63.1091430
  11.6467830   6.3539760  61.9080190  13.2738920   5.8288870  64.8580230
  13.1638200   5.6744910  65.7962500  14.0346510   5.3009810  64.6155640
  11.6204640   1.7683000  71.3163230  12.2576860   2.3817140  71.6822420
  11.7679530   1.8043660  70.3712460  14.1629190   3.6596790  58.0986370
  15.0878500   3.5277970  57.8904660  14.1404980   3.7389610  59.0522820
  14.2367680   4.4307450  60.7243080  13.4419180   4.3652570  61.2535990
  14.4410960   5.3658090  60.7128430  11.1786100  18.4699000  64.7181470
  11.7745170  18.1483570  64.0415890  11.4364250  17.9970820  65.5094740
   2.7854700  16.4576500  70.4681820   2.5446060  16.7251060  69.5812340
   3.7257340  16.6282230  70.5232680   4.9909120   2.9209190  74.2238330
   4.9298010   3.5131020  74.9733740   5.9309500   2.8135150  74.0788590
   7.6283680   2.5779250  73.8630620   8.2424090   2.8958540  73.2011700
   8.1733240   2.0927840  74.4826480  14.0458860  18.4770880  71.2692460
  13.5517140  18.8739750  70.5519590  13.4372150  17.8520090  71.6629740
   9.2763700   3.3482260  71.5741630   8.9477060   2.5334020  71.1943360
  10.2246000   3.3052070  71.4507320  11.7298310  19.1194300  68.5479200
  11.2701280  19.8710110  68.1737220  11.1010770  18.4000770  68.4894000
   2.1594030  17.4282540  67.7227330   2.6759050  16.8169900  67.1975590
   2.8091410  17.9311320  68.2138340   4.8989530  18.3191030  68.5496310
   5.1867340  18.0645330  67.6729320   5.4112750  17.7668390  69.1401880
  10.6687610   2.7604330  67.1741910  11.1095700   2.7049430  66.3263510
  10.3995200   3.6762340  67.2452090   4.0020760   4.4767980  64.6408850
   3.1895270   4.1024870  64.3004730   4.5062400   3.7213060  64.9430040
   2.0269940   2.6267900  63.2453900   1.3972680   1.9255210  63.4124030
   1.4875080   3.3872030  63.0287060   4.9661890  19.2407130  75.9164510
   5.8929200  19.0051400  75.9600470   4.9512320  20.0679130  75.4350540
  13.2006950  18.7832700  62.9138760  13.3759140  18.0970440  62.2699680
  12.5028520  19.3079750  62.5215430   7.6599110   9.3397930  46.6221600
   7.5793160   8.4252540  46.3513310   7.2463530   9.8365000  45.9161310
   5.7917150  11.1176950  48.5030870   5.0159250  10.6377390  48.7929440
   6.4430080  10.4382600  48.3287030   9.8124580  15.5237140  47.2830000
   9.3506110  14.7524380  47.6117170  10.6250130  15.5503210  47.7882450
   6.0387890  17.8095150  46.9033990   5.4199330  18.2652650  46.3328430
   6.8939670  17.9646610  46.5023690   5.2326140  13.7934140  48.5101030
   5.1634420  12.8524080  48.3490160   5.9946000  13.8835550  49.0823600
   6.2631310   6.6004520  48.7369960   6.6396130   5.7276400  48.6243630
   6.1650820   6.9363220  47.8460400  10.0455430   4.0954960  45.6698300
  10.8665050   3.6051530  45.7123780  10.0789510   4.6852620  46.4230140
   2.2344050   7.9416520  48.5312580   2.7422270   8.4397490  49.1717600
   2.7657290   7.1651720  48.3551940  14.3354980   6.1121710  52.2341930
  13.6307150   6.5003420  51.7157040  14.6012900   6.8072000  52.8362860
   6.9051240  12.6934390  44.2965900   6.2868510  13.1583840  43.7328620
   7.4174490  13.3861870  44.7135410   1.7683000  12.2210260  50.9749500
   1.4352380  12.8479180  51.6170570   1.9449680  12.7472140  50.1951170
  10.2816910   6.0355340  48.4425840   9.5772480   6.3240230  49.0228950
  10.6429070   6.8455450  48.0825400  11.8979690  15.6530470  50.7053320
  11.2143210  16.3229580  50.6969990  12.4373980  15.8511120  49.9398180
  13.3503830   5.4810130  48.8335050  12.4028740   5.5149110  48.9650480
  13.6753820   6.2949080  49.2184410   9.4338430  17.4974600  49.4198500
   9.4465590  17.0936890  48.5520760   8.8813650  18.2721890  49.3159930
  10.7283850  14.2190820  44.5088670  10.6180180  13.2765150  44.6338090
  10.7252100  14.5806460  45.3951430   8.8323870  12.4004440  50.7481110
   9.2492660  12.1864550  49.9134570   9.5563690  12.6577230  51.3189730
   6.2704130   9.8456140  43.8651160   5.3433410   9.7793520  44.0939630
   6.4228950  10.7836270  43.7506400   6.2573210   6.1173140  40.8618320
   5.3176880   6.2787100  40.9470780   6.5756470   6.8358820  40.3154310
  12.7785970  10.7991660  50.8397350  11.9504600  10.8684750  50.3647480
  13.3736450  11.3845970  50.3713180  10.3001420  11.4076440  44.3686410
   9.6813840  11.0695990  43.7212710  10.2825870  10.7636200  45.0765600
   9.7427980   7.5860980  51.7852220   9.3299160   8.4114690  52.0392210
   9.0103930   7.0006020  51.5928580   1.8760770  10.3720880  46.6470890
   1.4717770   9.6598130  46.1516790   1.9623890  10.0274120  47.5358930
   2.3442470  14.0588440  48.8110100   2.0470760  13.4533910  48.1317880
   3.2942290  14.0965750  48.6999460  10.4328080  17.6320310  52.4733200
   9.9558640  18.4392500  52.2805810   9.7489870  16.9798640  52.6259410
   8.4766120  10.6463250  41.3759160   8.9159400   9.8085680  41.2296980
   9.1894540  11.2792650  41.4623300   6.5861500  15.5859320  45.3440400
   7.0257410  16.3283650  44.9295790   6.5248390  15.8285890  46.2679360
   2.0612470  16.6105150  56.2460420   2.0327900  17.0148100  55.3788850
   1.8977440  15.6815510  56.0832020  12.0583260   1.9006060  39.6900200
  11.7455920   1.9932890  40.5899270  12.8195730   2.4787090  39.6397630
  14.0127290  17.3932250  57.5424590  14.4887010  17.8715140  58.2213670
  14.6334450  17.3249740  56.8170090  13.4160540  14.5845100  54.7024600
  13.5423600  14.3456980  53.7841780  13.4581920  13.7529640  55.1746680
   7.2777280  18.2873100  53.2719410   7.7921950  18.1981110  54.0741840
   6.4346360  18.6332800  53.5647320   9.2531680  18.5728440  42.7003410
   9.0932820  18.2831380  43.5985240   9.0878390  17.7968570  42.1648640
   8.9557810  16.0816000  41.2601410   8.2622970  16.0793290  40.6003690
   9.6980670  15.6575320  40.8295580   8.5207740  17.7078710  45.3349900
   8.9764690  16.9268090  45.6488520   8.8600260  18.4185530  45.8791080
  13.2684550   6.6377560  55.6674340  12.6528820   7.1457230  55.1389800
  12.9480970   5.7375890  55.6100280   5.3298870   5.4769450  53.1336530
   4.8678240   5.6852470  53.9456470   4.9276980   4.6628800  52.8307200
  10.3303380   6.6978400  54.2633190   9.4796970   6.3984150  54.5842260
  10.1705170   6.9420410  53.3517010   7.4253090   8.1980150  56.3631980
   7.7506500   7.3643900  56.0234210   8.2133420   8.7208670  56.5110310
   3.0804960   3.1548260  49.3890810   3.3777290   4.0611090  49.3082830
   3.6290520   2.6667040  48.7750380   8.0641040   7.7397870  43.8573110
   7.4649930   8.4633670  43.6736730   8.6120650   7.6774650  43.0749560
   3.2742490   8.6320080  55.9242730   3.1786090   7.6914810  55.7743130
   4.1174470   8.8535150  55.5290800   6.6705910   6.3761410  45.8876390
   7.0635480   6.6933610  45.0745080   7.0322760   5.4973290  46.0020910
   4.9798080   5.1268720  57.1473250   4.2896400   4.9340920  57.7819340
   5.7230380   5.4103360  57.6797550   7.2561050   8.9667160  49.9827170
   6.5242170   9.4753970  50.3317270   6.8585390   8.1497140  49.6815950
   3.6938440   5.6421360  48.3879660   3.6974500   5.2011310  47.5384200
   4.5889560   5.9638690  48.4951480   3.7558590   6.6433440  41.3786420
   3.8771410   6.6019920  42.3272240   3.3707100   7.5057590  41.2233150
   7.7186960   4.4200840  49.3950110   7.7359700   4.8709490  50.2391960
   7.4702540   3.5206480  49.6083550   2.7680090   8.9534580  40.7769720
   2.1996990   8.5052830  40.1505630   3.4769090   9.3127360  40.2434870
   3.9946410   9.7023140  50.1345070   4.3616540   9.2281710  50.8806410
   3.8051470  10.5764710  50.4753410   1.7845780   8.7431780  52.4529280
   1.4802850   9.6223760  52.6779640   2.7392240   8.8031570  52.4886720
  11.0715550  11.9458130  48.8422520  11.7914670  12.4413420  48.4518630
  10.8697370  11.2676020  48.1976390   6.5325490   3.3396090  42.9851910
   5.7190100   2.8409260  42.9097220   6.3387440   4.1794340  42.5688260
   6.4534350  12.0167190  54.7291520   6.3871660  11.0962860  54.4749110
   5.8239490  12.1142630  55.4436160   9.2473880   7.7115740  41.2814070
  10.1353500   8.0232970  41.1065410   9.2178970   6.8387990  40.8894650
   5.2434470  13.8839430  41.9602240   5.5850170  14.6281660  41.4645560
   4.4147180  14.1970550  42.3227070   6.3851080  14.8387760  54.4795320
   6.3995620  13.9068720  54.2614230   5.6776180  14.9247520  55.1185090
  11.5188150   9.0227580  40.7493930  11.4351870   9.4541800  39.8990370
  12.2382340   9.4825930  41.1820750  12.5962290  11.4795100  53.8263900
  11.8710480  12.0723880  53.6293290  13.1237750  11.4718640  53.0277270
  12.5475400  15.8769840  43.4776060  11.9051560  15.2225460  43.7519780
  12.1606060  16.2824930  42.7016730   8.1261880  13.2055270  47.3247750
   8.4785700  12.6083400  46.6649120   7.2424210  12.8799500  47.4956000
   4.2125160  13.9652960  44.7318160   4.8996290  14.5122170  45.1125750
   3.4257580  14.5093690  44.7667770   3.5152370  10.9698990  44.3443520
   3.9715150  11.7804240  44.5703710   3.1640580  10.6522130  45.1762010
   5.8184980  16.4805330  51.5735820   6.4627200  16.6864710  52.2509240
   6.1814420  15.7193730  51.1206670   7.0917060  14.4837680  50.2913270
   7.7339290  13.7830840  50.4045440   7.6166410  15.2636120  50.1110160
  10.9372780  14.7686300  40.0152410  10.7110360  14.0516740  40.6077050
  10.5468980  14.5198740  39.1774160   8.8654680  15.2832580  53.4949330
   9.2010920  15.8699270  54.1727250   7.9455020  15.1525290  53.7247120
  10.5189030  12.6858240  41.6766570  10.2310730  13.1470930  42.4644450
  11.3141200  12.2256010  41.9450790   4.6943260  15.3323910  56.6637390
   4.3740130  14.6133150  57.2083080   4.0201620  16.0078980  56.7373450
   2.7357430  16.1784360  41.6070540   2.7267530  16.9114050  40.9915050
   1.8155790  15.9315940  41.6997500   7.9096860   5.5650070  52.0274190
   8.2777680   4.7445280  52.3553760   7.0495060   5.6251960  52.4429840
  11.2758890   4.5207010  42.8361750  10.6472050   4.6252680  42.1219980
  10.7810810   4.7403790  43.6255630   5.7217030  16.2412600  40.2695730
   5.8229010  16.0376590  39.3397710   4.8218770  15.9870880  40.4743510
   3.2442920   6.7992960  44.2519630   2.5359070   7.2679300  44.6933240
   3.5287400   6.1414970  44.8864820   4.8698850   8.2189660  52.2512160
   5.3684100   8.6935480  52.9164010   5.0121800   7.2953180  52.4582190
   7.2758350   3.5243620  45.6915420   7.1526130   3.5429750  44.7424930
   8.2242910   3.5722560  45.8113820   4.3635140  18.7598920  44.9643400
   4.6176640  18.7220310  44.0422770   3.4147620  18.6332250  44.9571650
  12.0765710   4.4357620  53.0940550  11.5739310   5.1763020  53.4334360
  12.8922370   4.8241620  52.7777340  10.3687720   9.6790800  46.5401910
   9.4277860   9.6941030  46.7149600  10.6831790   8.8926760  46.9862210
  12.3713300  16.8499650  48.2156170  12.4960720  17.6730820  48.6879980
  13.2378860  16.6390380  47.8680320   2.9533140  18.1161170  39.7098870
   3.7461750  18.4050000  39.2580660   2.4337490  17.6853340  39.0311350
   7.6853740  14.2356800  57.0234290   7.0791900  14.2588400  56.2830040
   7.3807850  13.5039840  57.5601540   9.1154110  17.9637090  55.6343700
  10.0675860  17.8795110  55.5843940   8.9682330  18.6278800  56.3077490
  12.0063310  17.3431300  41.1335610  11.7204820  16.9296440  40.3189790
  11.8082860  18.2719010  41.0136130   3.4710540  13.3364580  39.5741220
   3.3661180  12.7216930  40.3002600   3.3034760  12.8130470  38.7904230
   3.6224860  12.0221380  55.5530450   2.8570530  12.5906380  55.4685120
   3.8040820  11.7297590  54.6598680   6.7113270  12.3984610  40.1783210
   6.1623370  12.8453910  40.8225950   7.3332530  11.8933860  40.7020880
  10.7648210  13.7526710  56.1105470  11.5057680  14.0902470  55.6072930
  10.0020890  13.9218770  55.5575240   2.3788390  11.3575530  42.0748510
   2.8004810  11.1915400  42.9179900   2.5039230  10.5475760  41.5803650
   4.8916030  10.3813140  39.3225610   5.4121690   9.6662160  38.9566760
   5.5384430  11.0199010  39.6226120   9.4393870  11.8041540  54.6460680
   9.8534890  11.9586620  55.4951100   8.5044870  11.9296760  54.8086460
   9.9116040   9.1437700  56.6499830  10.4936810   8.3890020  56.5620310
  10.0877810   9.6745140  55.8731310   3.7949550   2.8607690  51.9944170
   3.3466850   2.8831950  51.1489720   3.1614750   2.4626710  52.5914470
   4.2009100  11.7562020  52.6156610   4.6197210  12.5994750  52.4432850
   3.2817730  11.8934060  52.3863390   6.5373000   9.4878200  53.9994450
   6.6569210   8.8919340  54.7389290   7.3967000   9.5247890  53.5795750
   8.8760900  10.0415390  52.5756960   8.3496120  10.5658010  51.9722100
   9.2192240  10.6742780  53.2066690   2.0516520  18.0615030  53.7314340
   1.5137610  18.7861090  53.4123040   2.3050480  17.5845370  52.9411680
   3.3041770   6.0299550  55.2570270   3.8941460   5.7215400  55.9448090
   2.4862010   5.5579300  55.4130170   8.1235200   5.6465360  55.4903290
   7.4350720   4.9846900  55.4253280   8.8441220   5.2003630  55.9351750
   4.9078730  19.2966240  53.9900990   4.8337430  20.2001380  54.2973360
   4.0057570  18.9778140  53.9623060   3.2915020   3.4744000  39.9940750
   2.9437020   2.7967990  39.4143200   3.4927790   3.0133510  40.8084140
   5.4564060  18.4624750  41.6127350   6.3514850  18.8009720  41.6346110
   5.4881690  17.7404160  40.9851630  12.4358410  16.9928420  54.3193550
  11.8360400  17.0520980  53.5757470  12.5652310  16.0533400  54.4490400
  13.6759860  14.7346240  39.6563260  12.8452820  14.8022890  40.1270490
  13.8531690  15.6250360  39.3530120  13.1316320  11.4793720  42.1597460
  13.8935230  12.0490370  42.2657150  13.1470690  10.9120920  42.9305770
  14.1376290  12.3343820  47.0039390  14.5085120  11.5511140  46.5975360
  14.7778220  13.0232920  46.8256690  11.1210050  13.7180400  52.4169710
  10.3069890  14.1477560  52.6795500  11.5284250  14.3298810  51.8038760
  13.1835490  11.7728090  39.3169980  13.4584330  12.6806970  39.1889200
  12.9946230  11.7090620  40.2531970   9.5811100   4.7972940  40.6123610
   9.9995980   4.6103920  39.7720270   9.2747160   3.9451990  40.9226540
  13.0800830   9.7097080  44.3099410  12.7044430   8.9425010  43.8780700
  12.3503950  10.0919780  44.7974340  12.4700450   8.8568600  53.9438930
  12.2386540   8.6281350  53.0436880  12.7305000   9.7768150  53.8983820
  10.9088520   4.0825030  56.7218630  11.7858700   4.0908430  57.1052630
  10.9209360   3.3455870  56.1110980  12.3551790   7.9354570  47.6106650
  12.8789270   7.4417220  46.9796820  12.9411210   8.0704930  48.3554220
  12.5341510   8.0194440  51.1326200  11.5844220   7.9857980  51.2471190
  12.7154520   8.9294550  50.8975970  11.8451760   7.1927920  43.5499060
  12.3410880   6.9598790  44.3347940  11.6467830   6.3539760  43.1336700
  13.2738920   5.8288870  46.0836740  13.1638200   5.6744910  47.0219010
  14.0346510   5.3009810  45.8412150  11.6204640   1.7683000  52.5419740
  12.2576860   2.3817140  52.9078930  11.7679530   1.8043660  51.5968970
  14.1629190   3.6596790  39.3242880  15.0878500   3.5277970  39.1161170
  14.1404980   3.7389610  40.2779330  14.2367680   4.4307450  41.9499590
  13.4419180   4.3652570  42.4792500  14.4410960   5.3658090  41.9384940
  11.1786100  18.4699000  45.9437980  11.7745170  18.1483570  45.2672400
  11.4364250  17.9970820  46.7351250   2.7854700  16.4576500  51.6938330
   2.5446060  16.7251060  50.8068850   3.7257340  16.6282230  51.7489190
   4.9909120   2.9209190  55.4494840   4.9298010   3.5131020  56.1990250
   5.9309500   2.8135150  55.3045100   7.6283680   2.5779250  55.0887130
   8.2424090   2.8958540  54.4268210   8.1733240   2.0927840  55.7082990
  14.0458860  18.4770880  52.4948970  13.5517140  18.8739750  51.7776100
  13.4372150  17.8520090  52.8886250   9.2763700   3.3482260  52.7998140
   8.9477060   2.5334020  52.4199870  10.2246000   3.3052070  52.6763830
  11.7298310  19.1194300  49.7735710  11.2701280  19.8710110  49.3993730
  11.1010770  18.4000770  49.7150510   2.1594030  17.4282540  48.9483840
   2.6759050  16.8169900  48.4232100   2.8091410  17.9311320  49.4394850
   4.8989530  18.3191030  49.7752820   5.1867340  18.0645330  48.8985830
   5.4112750  17.7668390  50.3658390  10.6687610   2.7604330  48.3998420
  11.1095700   2.7049430  47.5520020  10.3995200   3.6762340  48.4708600
   4.0020760   4.4767980  45.8665360   3.1895270   4.1024870  45.5261240
   4.5062400   3.7213060  46.1686550   2.0269940   2.6267900  44.4710410
   1.3972680   1.9255210  44.6380540   1.4875080   3.3872030  44.2543570
   4.9661890  19.2407130  57.1421020   5.8929200  19.0051400  57.1856980
   4.9512320  20.0679130  56.6607050  13.2006950  18.7832700  44.1395270
  13.3759140  18.0970440  43.4956190  12.5028520  19.3079750  43.7471940
  11.5339450  18.4676990  56.9662060  12.3264770  17.9726220  56.7588020
  11.8272600  19.1467130  57.5737670   7.6599110   9.3397930  27.8478110
   7.5793160   8.4252540  27.5769820   7.2463530   9.8365000  27.1417820
   5.7917150  11.1176950  29.7287380   5.0159250  10.6377390  30.0185950
   6.4430080  10.4382600  29.5543540   9.8124580  15.5237140  28.5086510
   9.3506110  14.7524380  28.8373680  10.6250130  15.5503210  29.0138960
   6.0387890  17.8095150  28.1290500   5.4199330  18.2652650  27.5584940
   6.8939670  17.9646610  27.7280200   5.2326140  13.7934140  29.7357540
   5.1634420  12.8524080  29.5746670   5.9946000  13.8835550  30.3080110
   6.2631310   6.6004520  29.9626470   6.6396130   5.7276400  29.8500140
   6.1650820   6.9363220  29.0716910  10.0455430   4.0954960  26.8954810
  10.8665050   3.6051530  26.9380290  10.0789510   4.6852620  27.6486650
   2.2344050   7.9416520  29.7569090   2.7422270   8.4397490  30.3974110
   2.7657290   7.1651720  29.5808450  14.3354980   6.1121710  33.4598440
  13.6307150   6.5003420  32.9413550  14.6012900   6.8072000  34.0619370
   6.9051240  12.6934390  25.5222410   6.2868510  13.1583840  24.9585130
   7.4174490  13.3861870  25.9391920   1.7683000  12.2210260  32.2006010
   1.4352380  12.8479180  32.8427080   1.9449680  12.7472140  31.4207680
  10.2816910   6.0355340  29.6682350   9.5772480   6.3240230  30.2485460
  10.6429070   6.8455450  29.3081910  11.8979690  15.6530470  31.9309830
  11.2143210  16.3229580  31.9226500  12.4373980  15.8511120  31.1654690
  13.3503830   5.4810130  30.0591560  12.4028740   5.5149110  30.1906990
  13.6753820   6.2949080  30.4440920   9.4338430  17.4974600  30.6455010
   9.4465590  17.0936890  29.7777270   8.8813650  18.2721890  30.5416440
  10.7283850  14.2190820  25.7345180  10.6180180  13.2765150  25.8594600
  10.7252100  14.5806460  26.6207940   8.8323870  12.4004440  31.9737620
   9.2492660  12.1864550  31.1391080   9.5563690  12.6577230  32.5446240
   6.2704130   9.8456140  25.0907670   5.3433410   9.7793520  25.3196140
   6.4228950  10.7836270  24.9762910   6.2573210   6.1173140  22.0874830
   5.3176880   6.2787100  22.1727290   6.5756470   6.8358820  21.5410820
  12.7785970  10.7991660  32.0653860  11.9504600  10.8684750  31.5903990
  13.3736450  11.3845970  31.5969690  10.3001420  11.4076440  25.5942920
   9.6813840  11.0695990  24.9469220  10.2825870  10.7636200  26.3022110
   9.7427980   7.5860980  33.0108730   9.3299160   8.4114690  33.2648720
   9.0103930   7.0006020  32.8185090   1.8760770  10.3720880  27.8727400
   1.4717770   9.6598130  27.3773300   1.9623890  10.0274120  28.7615440
   2.3442470  14.0588440  30.0366610   2.0470760  13.4533910  29.3574390
   3.2942290  14.0965750  29.9255970  10.4328080  17.6320310  33.6989710
   9.9558640  18.4392500  33.5062320   9.7489870  16.9798640  33.8515920
   8.4766120  10.6463250  22.6015670   8.9159400   9.8085680  22.4553490
   9.1894540  11.2792650  22.6879810   6.5861500  15.5859320  26.5696910
   7.0257410  16.3283650  26.1552300   6.5248390  15.8285890  27.4935870
   2.0612470  16.6105150  37.4716930   2.0327900  17.0148100  36.6045360
   1.8977440  15.6815510  37.3088530  12.0583260   1.9006060  20.9156710
  11.7455920   1.9932890  21.8155780  12.8195730   2.4787090  20.8654140
  14.0127290  17.3932250  38.7681100  14.4887010  17.8715140  39.4470180
  14.6334450  17.3249740  38.0426600  13.4160540  14.5845100  35.9281110
  13.5423600  14.3456980  35.0098290  13.4581920  13.7529640  36.4003190
   7.2777280  18.2873100  34.4975920   7.7921950  18.1981110  35.2998350
   6.4346360  18.6332800  34.7903830   9.2531680  18.5728440  23.9259920
   9.0932820  18.2831380  24.8241750   9.0878390  17.7968570  23.3905150
   8.9557810  16.0816000  22.4857920   8.2622970  16.0793290  21.8260200
   9.6980670  15.6575320  22.0552090   8.5207740  17.7078710  26.5606410
   8.9764690  16.9268090  26.8745030   8.8600260  18.4185530  27.1047590
  13.2684550   6.6377560  36.8930850  12.6528820   7.1457230  36.3646310
  12.9480970   5.7375890  36.8356790   5.3298870   5.4769450  34.3593040
   4.8678240   5.6852470  35.1712980   4.9276980   4.6628800  34.0563710
  10.3303380   6.6978400  35.4889700   9.4796970   6.3984150  35.8098770
  10.1705170   6.9420410  34.5773520   7.4253090   8.1980150  37.5888490
   7.7506500   7.3643900  37.2490720   8.2133420   8.7208670  37.7366820
   3.0804960   3.1548260  30.6147320   3.3777290   4.0611090  30.5339340
   3.6290520   2.6667040  30.0006890   8.0641040   7.7397870  25.0829620
   7.4649930   8.4633670  24.8993240   8.6120650   7.6774650  24.3006070
   3.2742490   8.6320080  37.1499240   3.1786090   7.6914810  36.9999640
   4.1174470   8.8535150  36.7547310   6.6705910   6.3761410  27.1132900
   7.0635480   6.6933610  26.3001590   7.0322760   5.4973290  27.2277420
   4.9798080   5.1268720  38.3729760   4.2896400   4.9340920  39.0075850
   5.7230380   5.4103360  38.9054060   7.2561050   8.9667160  31.2083680
   6.5242170   9.4753970  31.5573780   6.8585390   8.1497140  30.9072460
   3.6938440   5.6421360  29.6136170   3.6974500   5.2011310  28.7640710
   4.5889560   5.9638690  29.7207990   3.7558590   6.6433440  22.6042930
   3.8771410   6.6019920  23.5528750   3.3707100   7.5057590  22.4489660
   7.7186960   4.4200840  30.6206620   7.7359700   4.8709490  31.4648470
   7.4702540   3.5206480  30.8340060   2.7680090   8.9534580  22.0026230
   2.1996990   8.5052830  21.3762140   3.4769090   9.3127360  21.4691380
   3.9946410   9.7023140  31.3601580   4.3616540   9.2281710  32.1062920
   3.8051470  10.5764710  31.7009920   1.7845780   8.7431780  33.6785790
   1.4802850   9.6223760  33.9036150   2.7392240   8.8031570  33.7143230
  11.0715550  11.9458130  30.0679030  11.7914670  12.4413420  29.6775140
  10.8697370  11.2676020  29.4232900   6.5325490   3.3396090  24.2108420
   5.7190100   2.8409260  24.1353730   6.3387440   4.1794340  23.7944770
   6.4534350  12.0167190  35.9548030   6.3871660  11.0962860  35.7005620
   5.8239490  12.1142630  36.6692670   9.2473880   7.7115740  22.5070580
  10.1353500   8.0232970  22.3321920   9.2178970   6.8387990  22.1151160
   5.2434470  13.8839430  23.1858750   5.5850170  14.6281660  22.6902070
   4.4147180  14.1970550  23.5483580   6.3851080  14.8387760  35.7051830
   6.3995620  13.9068720  35.4870740   5.6776180  14.9247520  36.3441600
  11.5188150   9.0227580  21.9750440  11.4351870   9.4541800  21.1246880
  12.2382340   9.4825930  22.4077260  12.5962290  11.4795100  35.0520410
  11.8710480  12.0723880  34.8549800  13.1237750  11.4718640  34.2533780
  12.5475400  15.8769840  24.7032570  11.9051560  15.2225460  24.9776290
  12.1606060  16.2824930  23.9273240   8.1261880  13.2055270  28.5504260
   8.4785700  12.6083400  27.8905630   7.2424210  12.8799500  28.7212510
   4.2125160  13.9652960  25.9574670   4.8996290  14.5122170  26.3382260
   3.4257580  14.5093690  25.9924280   3.5152370  10.9698990  25.5700030
   3.9715150  11.7804240  25.7960220   3.1640580  10.6522130  26.4018520
   5.8184980  16.4805330  32.7992330   6.4627200  16.6864710  33.4765750
   6.1814420  15.7193730  32.3463180   7.0917060  14.4837680  31.5169780
   7.7339290  13.7830840  31.6301950   7.6166410  15.2636120  31.3366670
  10.9372780  14.7686300  21.2408920  10.7110360  14.0516740  21.8333560
  10.5468980  14.5198740  20.4030670   8.8654680  15.2832580  34.7205840
   9.2010920  15.8699270  35.3983760   7.9455020  15.1525290  34.9503630
  10.5189030  12.6858240  22.9023080  10.2310730  13.1470930  23.6900960
  11.3141200  12.2256010  23.1707300   4.6943260  15.3323910  37.8893900
   4.3740130  14.6133150  38.4339590   4.0201620  16.0078980  37.9629960
   2.7357430  16.1784360  22.8327050   2.7267530  16.9114050  22.2171560
   1.8155790  15.9315940  22.9254010   7.9096860   5.5650070  33.2530700
   8.2777680   4.7445280  33.5810270   7.0495060   5.6251960  33.6686350
  11.2758890   4.5207010  24.0618260  10.6472050   4.6252680  23.3476490
  10.7810810   4.7403790  24.8512140   5.7217030  16.2412600  21.4952240
   5.8229010  16.0376590  20.5654220   4.8218770  15.9870880  21.7000020
   3.2442920   6.7992960  25.4776140   2.5359070   7.2679300  25.9189750
   3.5287400   6.1414970  26.1121330   4.8698850   8.2189660  33.4768670
   5.3684100   8.6935480  34.1420520   5.0121800   7.2953180  33.6838700
   7.2758350   3.5243620  26.9171930   7.1526130   3.5429750  25.9681440
   8.2242910   3.5722560  27.0370330   4.3635140  18.7598920  26.1899910
   4.6176640  18.7220310  25.2679280   3.4147620  18.6332250  26.1828160
  12.0765710   4.4357620  34.3197060  11.5739310   5.1763020  34.6590870
  12.8922370   4.8241620  34.0033850  10.3687720   9.6790800  27.7658420
   9.4277860   9.6941030  27.9406110  10.6831790   8.8926760  28.2118720
  12.3713300  16.8499650  29.4412680  12.4960720  17.6730820  29.9136490
  13.2378860  16.6390380  29.0936830   2.9533140  18.1161170  20.9355380
   3.7461750  18.4050000  20.4837170   2.4337490  17.6853340  20.2567860
   7.6853740  14.2356800  38.2490800   7.0791900  14.2588400  37.5086550
   7.3807850  13.5039840  38.7858050   9.1154110  17.9637090  36.8600210
  10.0675860  17.8795110  36.8100450   8.9682330  18.6278800  37.5334000
  12.0063310  17.3431300  22.3592120  11.7204820  16.9296440  21.5446300
  11.8082860  18.2719010  22.2392640   3.4710540  13.3364580  20.7997730
   3.3661180  12.7216930  21.5259110   3.3034760  12.8130470  20.0160740
   3.6224860  12.0221380  36.7786960   2.8570530  12.5906380  36.6941630
   3.8040820  11.7297590  35.8855190   6.7113270  12.3984610  21.4039720
   6.1623370  12.8453910  22.0482460   7.3332530  11.8933860  21.9277390
  10.7648210  13.7526710  37.3361980  11.5057680  14.0902470  36.8329440
  10.0020890  13.9218770  36.7831750   2.3788390  11.3575530  23.3005020
   2.8004810  11.1915400  24.1436410   2.5039230  10.5475760  22.8060160
   4.8916030  10.3813140  20.5482120   5.4121690   9.6662160  20.1823270
   5.5384430  11.0199010  20.8482630   9.4393870  11.8041540  35.8717190
   9.8534890  11.9586620  36.7207610   8.5044870  11.9296760  36.0342970
   9.9116040   9.1437700  37.8756340  10.4936810   8.3890020  37.7876820
  10.0877810   9.6745140  37.0987820   3.7949550   2.8607690  33.2200680
   3.3466850   2.8831950  32.3746230   3.1614750   2.4626710  33.8170980
   4.2009100  11.7562020  33.8413120   4.6197210  12.5994750  33.6689360
   3.2817730  11.8934060  33.6119900   6.5373000   9.4878200  35.2250960
   6.6569210   8.8919340  35.9645800   7.3967000   9.5247890  34.8052260
   8.8760900  10.0415390  33.8013470   8.3496120  10.5658010  33.1978610
   9.2192240  10.6742780  34.4323200   2.0516520  18.0615030  34.9570850
   1.5137610  18.7861090  34.6379550   2.3050480  17.5845370  34.1668190
   3.3041770   6.0299550  36.4826780   3.8941460   5.7215400  37.1704600
   2.4862010   5.5579300  36.6386680   8.1235200   5.6465360  36.7159800
   7.4350720   4.9846900  36.6509790   8.8441220   5.2003630  37.1608260
   4.9078730  19.2966240  35.2157500   4.8337430  20.2001380  35.5229870
   4.0057570  18.9778140  35.1879570   3.2915020   3.4744000  21.2197260
   2.9437020   2.7967990  20.6399710   3.4927790   3.0133510  22.0340650
   5.4564060  18.4624750  22.8383860   6.3514850  18.8009720  22.8602620
   5.4881690  17.7404160  22.2108140  12.4358410  16.9928420  35.5450060
  11.8360400  17.0520980  34.8013980  12.5652310  16.0533400  35.6746910
  13.6759860  14.7346240  20.8819770  12.8452820  14.8022890  21.3527000
  13.8531690  15.6250360  20.5786630  13.1316320  11.4793720  23.3853970
  13.8935230  12.0490370  23.4913660  13.1470690  10.9120920  24.1562280
  14.1376290  12.3343820  28.2295900  14.5085120  11.5511140  27.8231870
  14.7778220  13.0232920  28.0513200  11.1210050  13.7180400  33.6426220
  10.3069890  14.1477560  33.9052010  11.5284250  14.3298810  33.0295270
  13.1835490  11.7728090  20.5426490  13.4584330  12.6806970  20.4145710
  12.9946230  11.7090620  21.4788480   9.5811100   4.7972940  21.8380120
   9.9995980   4.6103920  20.9976780   9.2747160   3.9451990  22.1483050
  13.0800830   9.7097080  25.5355920  12.7044430   8.9425010  25.1037210
  12.3503950  10.0919780  26.0230850  12.4700450   8.8568600  35.1695440
  12.2386540   8.6281350  34.2693390  12.7305000   9.7768150  35.1240330
  10.9088520   4.0825030  37.9475140  11.7858700   4.0908430  38.3309140
  10.9209360   3.3455870  37.3367490  12.3551790   7.9354570  28.8363160
  12.8789270   7.4417220  28.2053330  12.9411210   8.0704930  29.5810730
  12.5341510   8.0194440  32.3582710  11.5844220   7.9857980  32.4727700
  12.7154520   8.9294550  32.1232480  11.8451760   7.1927920  24.7755570
  12.3410880   6.9598790  25.5604450  11.6467830   6.3539760  24.3593210
  13.2738920   5.8288870  27.3093250  13.1638200   5.6744910  28.2475520
  14.0346510   5.3009810  27.0668660  11.6204640   1.7683000  33.7676250
  12.2576860   2.3817140  34.1335440  11.7679530   1.8043660  32.8225480
  14.1629190   3.6596790  20.5499390  15.0878500   3.5277970  20.3417680
  14.1404980   3.7389610  21.5035840  14.2367680   4.4307450  23.1756100
  13.4419180   4.3652570  23.7049010  14.4410960   5.3658090  23.1641450
  11.1786100  18.4699000  27.1694490  11.7745170  18.1483570  26.4928910
  11.4364250  17.9970820  27.9607760   2.7854700  16.4576500  32.9194840
   2.5446060  16.7251060  32.0325360   3.7257340  16.6282230  32.9745700
   4.9909120   2.9209190  36.6751350   4.9298010   3.5131020  37.4246760
   5.9309500   2.8135150  36.5301610   7.6283680   2.5779250  36.3143640
   8.2424090   2.8958540  35.6524720   8.1733240   2.0927840  36.9339500
  14.0458860  18.4770880  33.7205480  13.5517140  18.8739750  33.0032610
  13.4372150  17.8520090  34.1142760   9.2763700   3.3482260  34.0254650
   8.9477060   2.5334020  33.6456380  10.2246000   3.3052070  33.9020340
  11.7298310  19.1194300  30.9992220  11.2701280  19.8710110  30.6250240
  11.1010770  18.4000770  30.9407020   2.1594030  17.4282540  30.1740350
   2.6759050  16.8169900  29.6488610   2.8091410  17.9311320  30.6651360
   4.8989530  18.3191030  31.0009330   5.1867340  18.0645330  30.1242340
   5.4112750  17.7668390  31.5914900  10.6687610   2.7604330  29.6254930
  11.1095700   2.7049430  28.7776530  10.3995200   3.6762340  29.6965110
   4.0020760   4.4767980  27.0921870   3.1895270   4.1024870  26.7517750
   4.5062400   3.7213060  27.3943060   2.0269940   2.6267900  25.6966920
   1.3972680   1.9255210  25.8637050   1.4875080   3.3872030  25.4800080
   4.9661890  19.2407130  38.3677530   5.8929200  19.0051400  38.4113490
   4.9512320  20.0679130  37.8863560  13.2006950  18.7832700  25.3651780
  13.3759140  18.0970440  24.7212700  12.5028520  19.3079750  24.9728450
  11.5339450  18.4676990  38.1918570  12.3264770  17.9726220  37.9844530
  11.8272600  19.1467130  38.7994180   7.6599110   9.3397930   9.0734620
   7.5793160   8.4252540   8.8026330   7.2463530   9.8365000   8.3674330
   5.7917150  11.1176950  10.9543890   5.0159250  10.6377390  11.2442460
   6.4430080  10.4382600  10.7800050   9.8124580  15.5237140   9.7343020
   9.3506110  14.7524380  10.0630190  10.6250130  15.5503210  10.2395470
   6.0387890  17.8095150   9.3547010   5.4199330  18.2652650   8.7841450
   6.8939670  17.9646610   8.9536710   5.2326140  13.7934140  10.9614050
   5.1634420  12.8524080  10.8003180   5.9946000  13.8835550  11.5336620
   6.2631310   6.6004520  11.1882980   6.6396130   5.7276400  11.0756650
   6.1650820   6.9363220  10.2973420  10.0455430   4.0954960   8.1211320
  10.8665050   3.6051530   8.1636800  10.0789510   4.6852620   8.8743160
   2.2344050   7.9416520  10.9825600   2.7422270   8.4397490  11.6230620
   2.7657290   7.1651720  10.8064960  14.3354980   6.1121710  14.6854950
  13.6307150   6.5003420  14.1670060  14.6012900   6.8072000  15.2875880
   6.9051240  12.6934390   6.7478920   6.2868510  13.1583840   6.1841640
   7.4174490  13.3861870   7.1648430   1.7683000  12.2210260  13.4262520
   1.4352380  12.8479180  14.0683590   1.9449680  12.7472140  12.6464190
  10.2816910   6.0355340  10.8938860   9.5772480   6.3240230  11.4741970
  10.6429070   6.8455450  10.5338420  11.8979690  15.6530470  13.1566340
  11.2143210  16.3229580  13.1483010  12.4373980  15.8511120  12.3911200
  13.3503830   5.4810130  11.2848070  12.4028740   5.5149110  11.4163500
  13.6753820   6.2949080  11.6697430   9.4338430  17.4974600  11.8711520
   9.4465590  17.0936890  11.0033780   8.8813650  18.2721890  11.7672950
  10.7283850  14.2190820   6.9601690  10.6180180  13.2765150   7.0851110
  10.7252100  14.5806460   7.8464450   8.8323870  12.4004440  13.1994130
   9.2492660  12.1864550  12.3647590   9.5563690  12.6577230  13.7702750
   6.2704130   9.8456140   6.3164180   5.3433410   9.7793520   6.5452650
   6.4228950  10.7836270   6.2019420   6.2573210   6.1173140   3.3131340
   5.3176880   6.2787100   3.3983800   6.5756470   6.8358820   2.7667330
  12.7785970  10.7991660  13.2910370  11.9504600  10.8684750  12.8160500
  13.3736450  11.3845970  12.8226200  10.3001420  11.4076440   6.8199430
   9.6813840  11.0695990   6.1725730  10.2825870  10.7636200   7.5278620
   9.7427980   7.5860980  14.2365240   9.3299160   8.4114690  14.4905230
   9.0103930   7.0006020  14.0441600   1.8760770  10.3720880   9.0983910
   1.4717770   9.6598130   8.6029810   1.9623890  10.0274120   9.9871950
   2.3442470  14.0588440  11.2623120   2.0470760  13.4533910  10.5830900
   3.2942290  14.0965750  11.1512480  10.4328080  17.6320310  14.9246220
   9.9558640  18.4392500  14.7318830   9.7489870  16.9798640  15.0772430
   8.4766120  10.6463250   3.8272180   8.9159400   9.8085680   3.6810000
   9.1894540  11.2792650   3.9136320   6.5861500  15.5859320   7.7953420
   7.0257410  16.3283650   7.3808810   6.5248390  15.8285890   8.7192380
   2.0612470  16.6105150  18.6973440   2.0327900  17.0148100  17.8301870
   1.8977440  15.6815510  18.5345040  12.0583260   1.9006060   2.1413220
  11.7455920   1.9932890   3.0412290  12.8195730   2.4787090   2.0910650
  14.0127290  17.3932250  19.9937610  14.4887010  17.8715140  20.6726690
  14.6334450  17.3249740  19.2683110  13.4160540  14.5845100  17.1537620
  13.5423600  14.3456980  16.2354800  13.4581920  13.7529640  17.6259700
   7.2777280  18.2873100  15.7232430   7.7921950  18.1981110  16.5254860
   6.4346360  18.6332800  16.0160340   9.2531680  18.5728440   5.1516430
   9.0932820  18.2831380   6.0498260   9.0878390  17.7968570   4.6161660
   8.9557810  16.0816000   3.7114430   8.2622970  16.0793290   3.0516710
   9.6980670  15.6575320   3.2808600   8.5207740  17.7078710   7.7862920
   8.9764690  16.9268090   8.1001540   8.8600260  18.4185530   8.3304100
  13.2684550   6.6377560  18.1187360  12.6528820   7.1457230  17.5902820
  12.9480970   5.7375890  18.0613300   5.3298870   5.4769450  15.5849550
   4.8678240   5.6852470  16.3969490   4.9276980   4.6628800  15.2820220
  10.3303380   6.6978400  16.7146210   9.4796970   6.3984150  17.0355280
  10.1705170   6.9420410  15.8030030   7.4253090   8.1980150  18.8145000
   7.7506500   7.3643900  18.4747230   8.2133420   8.7208670  18.9623330
   3.0804960   3.1548260  11.8403830   3.3777290   4.0611090  11.7595850
   3.6290520   2.6667040  11.2263400   8.0641040   7.7397870   6.3086130
   7.4649930   8.4633670   6.1249750   8.6120650   7.6774650   5.5262580
   3.2742490   8.6320080  18.3755750   3.1786090   7.6914810  18.2256150
   4.1174470   8.8535150  17.9803820   6.6705910   6.3761410   8.3389410
   7.0635480   6.6933610   7.5258100   7.0322760   5.4973290   8.4533930
   4.9798080   5.1268720  19.5986270   4.2896400   4.9340920  20.2332360
   5.7230380   5.4103360  20.1310570   7.2561050   8.9667160  12.4340190
   6.5242170   9.4753970  12.7830290   6.8585390   8.1497140  12.1328970
   3.6938440   5.6421360  10.8392680   3.6974500   5.2011310   9.9897220
   4.5889560   5.9638690  10.9464500   3.7558590   6.6433440   3.8299440
   3.8771410   6.6019920   4.7785260   3.3707100   7.5057590   3.6746170
   7.7186960   4.4200840  11.8463130   7.7359700   4.8709490  12.6904980
   7.4702540   3.5206480  12.0596570   2.7680090   8.9534580   3.2282740
   2.1996990   8.5052830   2.6018650   3.4769090   9.3127360   2.6947890
   3.9946410   9.7023140  12.5858090   4.3616540   9.2281710  13.3319430
   3.8051470  10.5764710  12.9266430   1.7845780   8.7431780  14.9042300
   1.4802850   9.6223760  15.1292660   2.7392240   8.8031570  14.9399740
  11.0715550  11.9458130  11.2935540  11.7914670  12.4413420  10.9031650
  10.8697370  11.2676020  10.6489410   6.5325490   3.3396090   5.4364930
   5.7190100   2.8409260   5.3610240   6.3387440   4.1794340   5.0201280
   6.4534350  12.0167190  17.1804540   6.3871660  11.0962860  16.9262130
   5.8239490  12.1142630  17.8949180   9.2473880   7.7115740   3.7327090
  10.1353500   8.0232970   3.5578430   9.2178970   6.8387990   3.3407670
   5.2434470  13.8839430   4.4115260   5.5850170  14.6281660   3.9158580
   4.4147180  14.1970550   4.7740090   6.3851080  14.8387760  16.9308340
   6.3995620  13.9068720  16.7127250   5.6776180  14.9247520  17.5698110
  11.5188150   9.0227580   3.2006950  11.4351870   9.4541800   2.3503390
  12.2382340   9.4825930   3.6333770  12.5962290  11.4795100  16.2776920
  11.8710480  12.0723880  16.0806310  13.1237750  11.4718640  15.4790290
  12.5475400  15.8769840   5.9289080  11.9051560  15.2225460   6.2032800
  12.1606060  16.2824930   5.1529750   8.1261880  13.2055270   9.7760770
   8.4785700  12.6083400   9.1162140   7.2424210  12.8799500   9.9469020
   4.2125160  13.9652960   7.1831180   4.8996290  14.5122170   7.5638770
   3.4257580  14.5093690   7.2180790   3.5152370  10.9698990   6.7956540
   3.9715150  11.7804240   7.0216730   3.1640580  10.6522130   7.6275030
   5.8184980  16.4805330  14.0248840   6.4627200  16.6864710  14.7022260
   6.1814420  15.7193730  13.5719690   7.0917060  14.4837680  12.7426290
   7.7339290  13.7830840  12.8558460   7.6166410  15.2636120  12.5623180
  10.9372780  14.7686300   2.4665430  10.7110360  14.0516740   3.0590070
  10.5468980  14.5198740   1.6287180   8.8654680  15.2832580  15.9462350
   9.2010920  15.8699270  16.6240270   7.9455020  15.1525290  16.1760140
  10.5189030  12.6858240   4.1279590  10.2310730  13.1470930   4.9157470
  11.3141200  12.2256010   4.3963810   4.6943260  15.3323910  19.1150410
   4.3740130  14.6133150  19.6596100   4.0201620  16.0078980  19.1886470
   2.7357430  16.1784360   4.0583560   2.7267530  16.9114050   3.4428070
   1.8155790  15.9315940   4.1510520   7.9096860   5.5650070  14.4787210
   8.2777680   4.7445280  14.8066780   7.0495060   5.6251960  14.8942860
  11.2758890   4.5207010   5.2874770  10.6472050   4.6252680   4.5733000
  10.7810810   4.7403790   6.0768650   5.7217030  16.2412600   2.7208750
   5.8229010  16.0376590   1.7910730   4.8218770  15.9870880   2.9256530
   3.2442920   6.7992960   6.7032650   2.5359070   7.2679300   7.1446260
   3.5287400   6.1414970   7.3377840   4.8698850   8.2189660  14.7025180
   5.3684100   8.6935480  15.3677030   5.0121800   7.2953180  14.9095210
   7.2758350   3.5243620   8.1428440   7.1526130   3.5429750   7.1937950
   8.2242910   3.5722560   8.2626840   4.3635140  18.7598920   7.4156420
   4.6176640  18.7220310   6.4935790   3.4147620  18.6332250   7.4084670
  12.0765710   4.4357620  15.5453570  11.5739310   5.1763020  15.8847380
  12.8922370   4.8241620  15.2290360  10.3687720   9.6790800   8.9914930
   9.4277860   9.6941030   9.1662620  10.6831790   8.8926760   9.4375230
  12.3713300  16.8499650  10.6669190  12.4960720  17.6730820  11.1393000
  13.2378860  16.6390380  10.3193340   7.6853740  14.2356800  19.4747310
   7.0791900  14.2588400  18.7343060   7.3807850  13.5039840  20.0114560
   9.1154110  17.9637090  18.0856720  10.0675860  17.8795110  18.0356960
   8.9682330  18.6278800  18.7590510  12.0063310  17.3431300   3.5848630
  11.7204820  16.9296440   2.7702810  11.8082860  18.2719010   3.4649150
   3.6224860  12.0221380  18.0043470   2.8570530  12.5906380  17.9198140
   3.8040820  11.7297590  17.1111700   6.7113270  12.3984610   2.6296230
   6.1623370  12.8453910   3.2738970   7.3332530  11.8933860   3.1533900
  10.7648210  13.7526710  18.5618490  11.5057680  14.0902470  18.0585950
  10.0020890  13.9218770  18.0088260   2.3788390  11.3575530   4.5261530
   2.8004810  11.1915400   5.3692920   2.5039230  10.5475760   4.0316670
   9.4393870  11.8041540  17.0973700   9.8534890  11.9586620  17.9464120
   8.5044870  11.9296760  17.2599480   9.9116040   9.1437700  19.1012850
  10.4936810   8.3890020  19.0133330  10.0877810   9.6745140  18.3244330
   3.7949550   2.8607690  14.4457190   3.3466850   2.8831950  13.6002740
   3.1614750   2.4626710  15.0427490   4.2009100  11.7562020  15.0669630
   4.6197210  12.5994750  14.8945870   3.2817730  11.8934060  14.8376410
   6.5373000   9.4878200  16.4507470   6.6569210   8.8919340  17.1902310
   7.3967000   9.5247890  16.0308770   8.8760900  10.0415390  15.0269980
   8.3496120  10.5658010  14.4235120   9.2192240  10.6742780  15.6579710
   2.0516520  18.0615030  16.1827360   1.5137610  18.7861090  15.8636060
   2.3050480  17.5845370  15.3924700   3.3041770   6.0299550  17.7083290
   3.8941460   5.7215400  18.3961110   2.4862010   5.5579300  17.8643190
   8.1235200   5.6465360  17.9416310   7.4350720   4.9846900  17.8766300
   8.8441220   5.2003630  18.3864770   4.9078730  19.2966240  16.4414010
   4.8337430  20.2001380  16.7486380   4.0057570  18.9778140  16.4136080
   3.2915020   3.4744000   2.4453770   2.9437020   2.7967990   1.8656220
   3.4927790   3.0133510   3.2597160   5.4564060  18.4624750   4.0640370
   6.3514850  18.8009720   4.0859130   5.4881690  17.7404160   3.4364650
  12.4358410  16.9928420  16.7706570  11.8360400  17.0520980  16.0270490
  12.5652310  16.0533400  16.9003420  13.6759860  14.7346240   2.1076280
  12.8452820  14.8022890   2.5783510  13.8531690  15.6250360   1.8043140
  13.1316320  11.4793720   4.6110480  13.8935230  12.0490370   4.7170170
  13.1470690  10.9120920   5.3818790  14.1376290  12.3343820   9.4552410
  14.5085120  11.5511140   9.0488380  14.7778220  13.0232920   9.2769710
  11.1210050  13.7180400  14.8682730  10.3069890  14.1477560  15.1308520
  11.5284250  14.3298810  14.2551780  13.1835490  11.7728090   1.7683000
  13.4584330  12.6806970   1.6402220  12.9946230  11.7090620   2.7044990
   9.5811100   4.7972940   3.0636630   9.9995980   4.6103920   2.2233290
   9.2747160   3.9451990   3.3739560  13.0800830   9.7097080   6.7612430
  12.7044430   8.9425010   6.3293720  12.3503950  10.0919780   7.2487360
  12.4700450   8.8568600  16.3951950  12.2386540   8.6281350  15.4949900
  12.7305000   9.7768150  16.3496840  10.9088520   4.0825030  19.1731650
  11.7858700   4.0908430  19.5565650  10.9209360   3.3455870  18.5624000
  12.3551790   7.9354570  10.0619670  12.8789270   7.4417220   9.4309840
  12.9411210   8.0704930  10.8067240  12.5341510   8.0194440  13.5839220
  11.5844220   7.9857980  13.6984210  12.7154520   8.9294550  13.3488990
  11.8451760   7.1927920   6.0012080  12.3410880   6.9598790   6.7860960
  11.6467830   6.3539760   5.5849720  13.2738920   5.8288870   8.5349760
  13.1638200   5.6744910   9.4732030  14.0346510   5.3009810   8.2925170
  11.6204640   1.7683000  14.9932760  12.2576860   2.3817140  15.3591950
  11.7679530   1.8043660  14.0481990  14.1629190   3.6596790   1.7755900
  15.0878500   3.5277970   1.5674190  14.1404980   3.7389610   2.7292350
  14.2367680   4.4307450   4.4012610  13.4419180   4.3652570   4.9305520
  14.4410960   5.3658090   4.3897960  11.1786100  18.4699000   8.3951000
  11.7745170  18.1483570   7.7185420  11.4364250  17.9970820   9.1864270
   2.7854700  16.4576500  14.1451350   2.5446060  16.7251060  13.2581870
   3.7257340  16.6282230  14.2002210   4.9909120   2.9209190  17.9007860
   4.9298010   3.5131020  18.6503270   5.9309500   2.8135150  17.7558120
   7.6283680   2.5779250  17.5400150   8.2424090   2.8958540  16.8781230
   8.1733240   2.0927840  18.1596010  14.0458860  18.4770880  14.9461990
  13.5517140  18.8739750  14.2289120  13.4372150  17.8520090  15.3399270
   9.2763700   3.3482260  15.2511160   8.9477060   2.5334020  14.8712890
  10.2246000   3.3052070  15.1276850  11.7298310  19.1194300  12.2248730
  11.2701280  19.8710110  11.8506750  11.1010770  18.4000770  12.1663530
   2.1594030  17.4282540  11.3996860   2.6759050  16.8169900  10.8745120
   2.8091410  17.9311320  11.8907870   4.8989530  18.3191030  12.2265840
   5.1867340  18.0645330  11.3498850   5.4112750  17.7668390  12.8171410
  10.6687610   2.7604330  10.8511440  11.1095700   2.7049430  10.0033040
  10.3995200   3.6762340  10.9221620   4.0020760   4.4767980   8.3178380
   3.1895270   4.1024870   7.9774260   4.5062400   3.7213060   8.6199570
   2.0269940   2.6267900   6.9223430   1.3972680   1.9255210   7.0893560
   1.4875080   3.3872030   6.7056590   4.9661890  19.2407130  19.5934040
   5.8929200  19.0051400  19.6370000   4.9512320  20.0679130  19.1120070
  13.2006950  18.7832700   6.5908290  13.3759140  18.0970440   5.9469210
  12.5028520  19.3079750   6.1984960  11.5339450  18.4676990  19.4175080
  12.3264770  17.9726220  19.2101040  11.8272600  19.1467130  20.0250690
 104.0092170  95.4385400  77.6847510  90.0000000  90.0000000  90.0000000
