PFO
  8233
  24.4289892  24.8178418  23.3596604  26.0259892  24.1278418  22.0586604
  26.7049892  24.5188418  24.6386604  25.1499892  23.1628418  25.3186604
  23.6619892  23.0368418  21.3956604  25.0299892  21.5498418  22.2056604
  27.5499892  22.1078418  25.4776604  26.2879892  21.0758418  24.0476604
  22.4999892  21.1548418  22.8786604  23.7899892  21.5648418  24.5816604
  27.5879892  22.2578418  21.9596604  28.8249892  21.1148418  23.3246604
  21.5149892  23.7118418  22.9646604  22.7999892  24.1708418  24.6696604
  21.3099892  22.5958418  24.8276604  30.0529892  23.1988418  24.2346604
  28.8499892  24.5468418  22.8566604  25.1919892  23.7298418  23.0496604
  26.0139892  23.3958418  24.2876604  24.2689892  22.6308418  22.5396604
  26.9889892  22.2268418  24.2386604  23.1979892  22.1448418  23.5046604
  28.1129892  22.2728418  23.2126604  22.2039892  23.1698418  23.9906604
  29.0219892  23.4608418  23.3936604  47.1884850  40.9233410  40.6041680
  47.1078900  40.0088020  40.3333390  46.7749270  41.4200480  39.8981390
  45.3202890  42.7012430  42.4850950  44.5444990  42.2212870  42.7749520
  45.9715820  42.0218080  42.3107110  39.3368720  43.0132240  43.3626710
  38.5053600  42.7580950  43.7623220  39.9449700  43.0843010  44.0984630
  37.7460670  37.9734130  37.1469100  36.8577370  38.3150100  37.0448980
  38.0301860  37.7734450  36.2549930  35.7093680  40.5739780  43.0308800
  36.2809790  39.8061980  43.0312440  35.7095220  40.8728540  42.1215410
  45.7917050  38.1840000  42.7190040  46.1681870  37.3111880  42.6063710
  45.6936560  38.5198700  41.8280480  39.9222060  36.5565630  38.1807480
  40.0288810  37.4569360  38.4876240  39.0114420  36.5083600  37.8902130
  37.5705220  38.4784640  43.4260070  38.2515330  38.7423010  44.0447470
  37.2553270  37.6385510  43.7598080  41.7629790  39.5252000  42.5132660
  42.2708010  40.0232970  43.1537680  42.2943030  38.7487200  42.3372020
  39.7281220  35.8760520  44.7866530  40.0698030  36.7202570  44.4920400
  38.7897030  36.0244260  44.9031870  43.4109110  33.3642790  41.1111120
  43.7184090  32.8089680  40.3946620  42.4809810  33.4987250  40.9284110
  45.7989870  41.4291620  37.8471240  44.8719150  41.3629000  38.0759710
  45.9514690  42.3671750  37.7326480  45.7858950  37.7008620  34.8438400
  44.8462620  37.8622580  34.9290860  46.1042210  38.4194300  34.2974390
  41.4046510  41.9556360  40.6290970  41.0003510  41.2433610  40.1336870
  41.4909630  41.6109600  41.5179010  40.1175130  38.7299570  44.4090010
  40.6689720  38.8394910  43.6343260  40.6318640  39.1037170  45.1245240
  48.0051860  42.2298730  35.3579240  48.4445140  41.3921160  35.2117060
  48.7180280  42.8628130  35.4443380  38.1051140  40.8501340  38.1297620
  37.9848740  41.5763430  37.5178890  37.7952030  40.0804250  37.6525530
  35.7436510  44.0216480  43.9366260  35.8216930  44.1565250  42.9921980
  36.3578190  43.3132370  44.1294380  40.5714800  34.1936410  41.5121290
  40.1282950  34.9745950  41.1805810  41.1299790  34.5166300  42.2192230
  43.6873620  33.8147110  36.3927120  43.0627800  33.8106980  37.1180430
  43.6003740  32.9478070  35.9963090  42.6090700  34.7383740  43.3710890
  42.9063030  35.6446570  43.2902910  43.1576260  34.2502520  42.7570460
  40.3629020  39.3169980  39.2402540  40.1369940  39.1007150  40.1449160
  39.5821550  39.7498440  38.8948510  47.5926780  39.3233350  37.8393190
  46.9935670  40.0469150  37.6556810  48.1406390  39.2610130  37.0569640
  46.1991650  37.9596890  39.8696470  46.5921220  38.2769090  39.0565160
  46.5608500  37.0808770  39.9840990  35.2355820  34.5497690  42.0926670
  34.9468870  35.1200550  42.8051650  35.9801580  34.0702140  42.4557900
  35.4226050  38.4917810  33.3029390  35.3400720  39.4348570  33.4444380
  35.0709110  38.3492720  32.4241740  46.7846790  40.5502640  43.9647250
  46.0527910  41.0589450  44.3137350  46.3871130  39.7332620  43.6636030
  43.2224180  37.2256840  42.3699740  43.2260240  36.7846790  41.5204280
  44.1175300  37.5474170  42.4771560  39.0726560  37.1083330  41.3293950
  38.7326610  37.5858560  42.0861000  38.3103880  36.6548450  40.9695050
  43.2844330  38.2268920  35.3606500  43.4057150  38.1855400  36.3092320
  42.8992840  39.0893070  35.2053230  47.2472700  36.0036320  43.3770190
  47.2645440  36.4544970  44.2212040  46.9988280  35.1041960  43.5903630
  42.2965830  40.5370060  34.7589800  41.7282730  40.0888310  34.1325710
  43.0054830  40.8962840  34.2254950  43.5232150  41.2858620  44.1165150
  43.8902280  40.8117190  44.8626490  43.3337210  42.1600190  44.4573490
  36.3872640  36.0302310  40.2458620  36.1019560  35.6657980  41.0837240
  36.3251500  35.2982770  39.6321760  46.0611230  34.9231570  36.9671990
  45.2475840  34.4244740  36.8917300  45.8673180  35.7629820  36.5508340
  48.7759620  39.2951220  35.2634150  49.6639240  39.6068450  35.0885490
  48.7464710  38.4223470  34.8714730  39.8850710  44.2008630  40.6695020
  40.4029380  43.3976890  40.6151910  39.4334730  44.1387770  41.5111850
  35.8803300  41.1661260  34.2055320  36.7498150  41.4486060  34.4891240
  35.3893620  41.9797130  34.0904130  43.0438110  42.5534470  38.3263600
  43.5000890  43.3639720  38.5523790  42.6926320  42.2357610  39.1582090
  38.9449890  32.8972120  38.7986120  38.8164520  32.8890020  39.7471040
  38.1211910  33.2355210  38.4477130  37.8649810  42.9834730  36.3337380
  37.2577760  43.7233630  36.3432680  38.3399160  43.0734090  35.5075580
  42.7728660  38.3828440  38.2339710  42.0644810  38.8514780  38.6753320
  43.0573140  37.7250450  38.8684900  46.8044090  35.1079100  39.6735500
  46.6811870  35.1265230  38.7245010  47.7528650  35.1558040  39.7933900
  40.9763680  36.6913520  35.6090420  41.8254210  37.1283670  35.5430610
  40.6094950  37.0033780  36.4362480  39.8755100  42.9445880  34.0825950
  40.6418370  42.8327240  34.6451380  39.9529790  42.2483850  33.4302720
  38.5701860  40.3770950  34.7658840  38.6505450  39.4298460  34.8776240
  39.4621610  40.7077830  34.8719500  46.2399010  43.9820090  34.1603290
  45.6909110  44.4289390  34.8046030  46.8618270  43.4769340  34.6840960
  41.9074130  42.9411010  36.0568590  42.3290550  42.7750880  36.8999980
  42.0324970  42.1311240  35.5623730  44.4201770  41.9648620  33.3045690
  44.9407430  41.2497640  32.9386840  45.0670170  42.6034490  33.6046200
  40.8033030  39.0144240  33.0026750  40.6022090  38.1511600  33.3640090
  40.6325080  38.9277600  32.0648350  48.2821340  33.8252470  35.5313630
  48.5623630  32.9820370  35.8873050  47.5087070  34.0575580  36.0452380
  39.6015830  36.1144860  32.9904630  39.9041730  36.1212290  32.0823780
  40.3410420  35.7642720  33.4872290  42.8200760  35.0579480  33.9760830
  42.4722760  34.3803470  33.3963280  43.0213530  34.5968990  34.7904220
  36.1606400  41.5867130  40.3725200  35.5055240  41.3178770  39.7284900
  36.9984350  41.4771610  39.9227180  49.1096840  36.3808420  34.5943690
  49.5281720  36.1939400  33.7540350  48.8032900  35.5287470  34.9046620
  35.3744480  38.7966060  36.3150530  34.4708560  39.0596260  36.1402190
  35.8585100  39.0677230  35.5350490  37.9171690  37.8531600  34.2244910
  38.6263390  37.4314820  33.7392190  37.2011630  37.9206830  33.5928260
  37.5645850  33.9070930  33.2647560  38.2873980  34.4479870  33.5828780
  37.8370370  33.6334350  32.3889100  37.2538040  33.1577120  43.1670180
  37.9014230  32.6074500  42.7265340  37.6739880  33.4120270  43.9885990
  45.6452280  33.6416710  44.3369410  44.8624070  34.1162210  44.6166170
  45.3515210  32.7371540  44.2282590  36.9892690  33.9464190  36.8583130
  37.7472050  34.0593070  36.2847160  36.5269860  34.7833390  36.8126560
  43.5306500  36.0603460  39.8485440  42.7181010  35.6860350  39.5081320
  44.0348140  35.3048540  40.1506630  48.0331480  32.7245910  41.0868510
  48.6360850  33.2966120  41.5617030  47.2924470  33.2885350  40.8642410
  39.3617840  34.4728240  35.3985100  39.8910600  33.6858040  35.2693050
  39.9946160  35.1519430  35.6320630  41.5555680  34.2103380  38.4530490
  40.9258420  33.5090690  38.6200620  41.0160820  34.9707510  38.2363650
  47.1884850  40.9233410  21.8298190  47.1078900  40.0088020  21.5589900
  46.7749270  41.4200480  21.1237900  45.3202890  42.7012430  23.7107460
  44.5444990  42.2212870  24.0006030  45.9715820  42.0218080  23.5363620
  39.3368720  43.0132240  24.5883220  38.5053600  42.7580950  24.9879730
  39.9449700  43.0843010  25.3241140  37.7460670  37.9734130  18.3725610
  36.8577370  38.3150100  18.2705490  38.0301860  37.7734450  17.4806440
  35.7093680  40.5739780  24.2565310  36.2809790  39.8061980  24.2568950
  35.7095220  40.8728540  23.3471920  36.9518550  35.9824140  26.0434240
  36.7721390  35.0849890  26.3237000  36.5498630  36.5296010  26.7181190
  45.7917050  38.1840000  23.9446550  46.1681870  37.3111880  23.8320220
  45.6936560  38.5198700  23.0536990  39.9222060  36.5565630  19.4063990
  40.0288810  37.4569360  19.7132750  39.0114420  36.5083600  19.1158640
  37.5705220  38.4784640  24.6516580  38.2515330  38.7423010  25.2703980
  37.2553270  37.6385510  24.9854590  41.7629790  39.5252000  23.7389170
  42.2708010  40.0232970  24.3794190  42.2943030  38.7487200  23.5628530
  40.0465890  34.1650560  28.0052590  40.0484330  34.6822950  27.1998490
  39.2170200  33.6880740  27.9822520  41.2968740  43.8045740  26.1826090
  40.9638120  44.4314660  26.8247160  41.4735420  44.3307620  25.4027760
  39.7281220  35.8760520  26.0123040  40.0698030  36.7202570  25.7176910
  38.7897030  36.0244260  26.1288380  43.4109110  33.3642790  22.3367630
  43.7184090  32.8089680  21.6203130  42.4809810  33.4987250  22.1540620
  48.3609610  43.9839920  25.9557700  48.7778400  43.7700030  25.1211160
  49.0849430  44.2412710  26.5266320  45.7989870  41.4291620  19.0727750
  44.8719150  41.3629000  19.3016220  45.9514690  42.3671750  18.9582990
  45.7858950  37.7008620  16.0694910  44.8462620  37.8622580  16.1547370
  46.1042210  38.4194300  15.5230900  49.2713720  39.1696460  26.9928810
  48.8584900  39.9950170  27.2468800  48.5389670  38.5841500  26.8005170
  41.4046510  41.9556360  21.8547480  41.0003510  41.2433610  21.3593380
  41.4909630  41.6109600  22.7435520  40.1175130  38.7299570  25.6346520
  40.6689720  38.8394910  24.8599770  40.6318640  39.1037170  26.3501750
  48.0051860  42.2298730  16.5835750  48.4445140  41.3921160  16.4373570
  48.7180280  42.8628130  16.6699890  39.7917860  42.2518930  29.2451860
  39.6525630  43.1241730  29.6139260  38.9099220  41.9091740  29.0999800
  38.1051140  40.8501340  19.3554130  37.9848740  41.5763430  18.7435400
  37.7952030  40.0804250  18.8782040  35.7436510  44.0216480  25.1622770
  35.8216930  44.1565250  24.2178490  36.3578190  43.3132370  25.3550890
  40.5714800  34.1936410  22.7377800  40.1282950  34.9745950  22.4062320
  41.1299790  34.5166300  23.4448740  44.8584610  37.0604930  28.3413120
  44.3963980  37.2687950  29.1533060  44.4562720  36.2464280  28.0383790
  46.9538830  39.7815630  31.5708570  47.2792240  38.9479380  31.2310800
  47.7419160  40.3044150  31.7186900  43.6873620  33.8147110  17.6183630
  43.0627800  33.8106980  18.3436940  43.6003740  32.9478070  17.2219600
  42.6090700  34.7383740  24.5967400  42.9063030  35.6446570  24.5159420
  43.1576260  34.2502520  23.9826970  40.3629020  39.3169980  20.4659050
  40.1369940  39.1007150  21.3705670  39.5821550  39.7498440  20.1205020
  47.5926780  39.3233350  19.0649700  46.9935670  40.0469150  18.8813320
  48.1406390  39.2610130  18.2826150  42.8028230  40.2155560  31.1319320
  42.7071830  39.2750290  30.9819720  43.6460210  40.4370630  30.7367390
  46.1991650  37.9596890  21.0952980  46.5921220  38.2769090  20.2821670
  46.5608500  37.0808770  21.2097500  37.9338770  36.6269230  29.2853100
  37.5402160  37.4744440  29.4925880  37.2457170  35.9895600  29.4761740
  44.5083820  36.7104200  32.3549840  43.8182140  36.5176400  32.9895930
  45.2516120  36.9938840  32.8874140  35.2355820  34.5497690  23.3183180
  34.9468870  35.1200550  24.0308160  35.9801580  34.0702140  23.6814410
  35.4226050  38.4917810  14.5285900  35.3400720  39.4348570  14.6700890
  35.0709110  38.3492720  13.6498250  46.7846790  40.5502640  25.1903760
  46.0527910  41.0589450  25.5393860  46.3871130  39.7332620  24.8892540
  43.2224180  37.2256840  23.5956250  43.2260240  36.7846790  22.7460790
  44.1175300  37.5474170  23.7028070  39.0726560  37.1083330  22.5550460
  38.7326610  37.5858560  23.3117510  38.3103880  36.6548450  22.1951560
  43.2844330  38.2268920  16.5863010  43.4057150  38.1855400  17.5348830
  42.8992840  39.0893070  16.4309740  47.2472700  36.0036320  24.6026700
  47.2645440  36.4544970  25.4468550  46.9988280  35.1041960  24.8160140
  42.2965830  40.5370060  15.9846310  41.7282730  40.0888310  15.3582220
  43.0054830  40.8962840  15.4511460  43.5232150  41.2858620  25.3421660
  43.8902280  40.8117190  26.0883000  43.3337210  42.1600190  25.6830000
  36.3872640  36.0302310  21.4715130  36.1019560  35.6657980  22.3093750
  36.3251500  35.2982770  20.8578270  41.3131520  40.3267260  27.6605870
  41.0088590  41.2059240  27.8856230  42.2677980  40.3867050  27.6963310
  46.0611230  34.9231570  18.1928500  45.2475840  34.4244740  18.1173810
  45.8673180  35.7629820  17.7764850  45.9820090  43.6002670  29.9368110
  45.9157400  42.6798340  29.6825700  45.3525230  43.6978110  30.6512750
  48.7759620  39.2951220  16.4890660  49.6639240  39.6068450  16.3142000
  48.7464710  38.4223470  16.0971240  39.8850710  44.2008630  21.8951530
  40.4029380  43.3976890  21.8408420  39.4334730  44.1387770  22.7368360
  37.3695250  41.1670000  28.8077230  37.0110190  41.8323850  29.3950570
  37.0749810  40.3353550  29.1789850  40.5708370  41.6254240  31.6916780
  40.2708510  41.7711420  30.7944600  41.3419610  41.0659530  31.5990170
  35.8803300  41.1661260  15.4311830  36.7498150  41.4486060  15.7147750
  35.3893620  41.9797130  15.3160640  43.0438110  42.5534470  19.5520110
  43.5000890  43.3639720  19.7780300  42.6926320  42.2357610  20.3838600
  38.9449890  32.8972120  20.0242630  38.8164520  32.8890020  20.9727550
  38.1211910  33.2355210  19.6733640  35.9443820  34.6563240  29.4849330
  35.2302340  34.8560160  30.0901940  36.3638860  33.8802810  29.8564130
  37.8649810  42.9834730  17.5593890  37.2577760  43.7233630  17.5689190
  38.3399160  43.0734090  16.7332090  47.4382600  37.1485550  27.2350780
  47.8063420  36.3280760  27.5630350  46.5780800  37.2087440  27.6506430
  42.7728660  38.3828440  19.4596220  42.0644810  38.8514780  19.9009830
  43.0573140  37.7250450  20.0941410  44.3984590  39.8025140  27.4588750
  44.8969840  40.2770960  28.1240600  44.5407540  38.8788660  27.6658780
  46.8044090  35.1079100  20.8992010  46.6811870  35.1265230  19.9501520
  47.7528650  35.1558040  21.0190410  40.9763680  36.6913520  16.8346930
  41.8254210  37.1283670  16.7687120  40.6094950  37.0033780  17.6618990
  39.8755100  42.9445880  15.3082460  40.6418370  42.8327240  15.8707890
  39.9529790  42.2483850  14.6559230  38.5701860  40.3770950  15.9915350
  38.6505450  39.4298460  16.1032750  39.4621610  40.7077830  16.0976010
  36.0972660  42.1985870  31.2271520  36.6011680  41.6193150  31.7987750
  35.3580080  42.4826100  31.7647890  43.1510600  43.6056860  30.7607040
  42.3856270  44.1741860  30.6761710  43.3326560  43.3133070  29.8675270
  46.2399010  43.9820090  15.3859800  45.6909110  44.4289390  16.0302540
  46.8618270  43.4769340  15.9097470  38.1295740  40.3415460  32.1221590
  38.1701080  40.0429330  33.0306820  38.9841240  40.7423070  31.9629110
  41.9074130  42.9411010  17.2825100  42.3290550  42.7750880  18.1256490
  42.0324970  42.1311240  16.7880240  40.0701550  38.9207560  30.0896080
  39.5398010  38.4298510  29.4619420  40.7389620  39.3491760  29.5554010
  44.4201770  41.9648620  14.5302200  44.9407430  41.2497640  14.1643350
  45.0670170  42.6034490  14.8302710  48.9679610  43.3877020  29.8537270
  49.3820630  43.5422100  30.7027690  48.0330610  43.5132240  30.0163050
  40.5573850  35.8869930  30.1693370  40.4630720  35.2690680  29.4444240
  39.9771240  36.6136220  29.9423280  43.3235290  34.4443170  27.2020760
  42.8752590  34.4667430  26.3566310  42.6900490  34.0462190  27.7991060
  43.7294840  43.3397500  27.8233200  44.1482950  44.1830230  27.6509440
  42.8103470  43.4769540  27.5939980  46.0658740  41.0713680  29.2071040
  46.1854950  40.4754820  29.9465880  46.9252740  41.1083370  28.7872340
  48.4046640  41.6250870  27.7833550  47.8781860  42.1493490  27.1798690
  48.7477980  42.2578260  28.4143280  40.8033030  39.0144240  14.2283260
  40.6022090  38.1511600  14.5896600  40.6325080  38.9277600  13.2904860
  42.8327510  37.6135030  30.4646860  43.4227200  37.3050880  31.1524680
  42.0147750  37.1414780  30.6206760  47.6520940  37.2300840  30.6979880
  46.9636460  36.5682380  30.6329870  48.3726960  36.7839110  31.1428340
  48.2821340  33.8252470  16.7570140  48.5623630  32.9820370  17.1129560
  47.5087070  34.0575580  17.2708890  39.6015830  36.1144860  14.2161140
  39.9041730  36.1212290  13.3080290  40.3410420  35.7642720  14.7128800
  42.8200760  35.0579480  15.2017340  42.4722760  34.3803470  14.6219790
  43.0213530  34.5968990  16.0160730  36.1606400  41.5867130  21.5981710
  35.5055240  41.3178770  20.9541410  36.9984350  41.4771610  21.1483690
  49.1096840  36.3808420  15.8200200  49.5281720  36.1939400  14.9796860
  48.8032900  35.5287470  16.1303130  37.1982330  41.9719700  26.1385050
  37.5655370  41.8847100  27.0181070  36.6293150  41.2086250  26.0391910
  36.7498330  38.8828790  30.0443470  35.8554380  38.8495550  30.3837180
  37.2895880  39.0815580  30.8094720  35.3744480  38.7966060  17.5407040
  34.4708560  39.0596260  17.3658700  35.8585100  39.0677230  16.7607000
  37.9171690  37.8531600  15.4501420  38.6263390  37.4314820  14.9648700
  37.2011630  37.9206830  14.8184770  37.5645850  33.9070930  14.4904070
  38.2873980  34.4479870  14.8085290  37.8370370  33.6334350  13.6145610
  37.2538040  33.1577120  24.3926690  37.9014230  32.6074500  23.9521850
  37.6739880  33.4120270  25.2142500  37.0070040  33.3132790  27.1352010
  36.6584860  33.7696610  27.9010190  36.6757740  32.4189920  27.2174440
  44.5194860  34.5044670  30.6571430  44.4583750  35.0966500  31.4066840
  45.4595240  34.3970630  30.5121690  47.1569420  34.1614730  30.2963720
  47.7709830  34.4794020  29.6344800  47.7018980  33.6763320  30.9159580
  37.6790680  32.8408990  30.4102780  38.2273670  32.6597040  29.6468890
  37.7445990  32.0503100  30.9459090  47.8977460  32.7246870  26.6233010
  47.0237300  33.0581980  26.4205940  47.7888210  32.2520050  27.4484880
  48.8049440  34.9317740  28.0074730  48.4762800  34.1169500  27.6276460
  49.7531740  34.8887550  27.8840420  45.6452280  33.6416710  25.5625920
  44.8624070  34.1162210  25.8422680  45.3515210  32.7371540  25.4539100
  36.9892690  33.9464190  18.0839640  37.7472050  34.0593070  17.5103670
  36.5269860  34.7833390  18.0383070  43.5306500  36.0603460  21.0741950
  42.7181010  35.6860350  20.7337830  44.0348140  35.3048540  21.3763140
  48.0331480  32.7245910  22.3125020  48.6360850  33.2966120  22.7873540
  47.2924470  33.2885350  22.0898920  39.3617840  34.4728240  16.6241610
  39.8910600  33.6858040  16.4949560  39.9946160  35.1519430  16.8577140
  41.5555680  34.2103380  19.6787000  40.9258420  33.5090690  19.8457130
  41.0160820  34.9707510  19.4620160  41.6811240  33.4887360  32.1139490
  41.3995510  33.9920960  31.3500310  42.0630940  32.6909110  31.7481620
  48.2826700  32.9040940  32.6919960  48.1692150  33.2235550  33.5871480
  49.0996440  33.3053450  32.3957240  47.1884850  40.9233410   3.0554700
  47.1078900  40.0088020   2.7846410  46.7749270  41.4200480   2.3494410
  45.3202890  42.7012430   4.9363970  44.5444990  42.2212870   5.2262540
  45.9715820  42.0218080   4.7620130  39.3368720  43.0132240   5.8139730
  38.5053600  42.7580950   6.2136240  39.9449700  43.0843010   6.5497650
  35.7093680  40.5739780   5.4821820  36.2809790  39.8061980   5.4825460
  35.7095220  40.8728540   4.5728430  36.9518550  35.9824140   7.2690750
  36.7721390  35.0849890   7.5493510  36.5498630  36.5296010   7.9437700
  45.7917050  38.1840000   5.1703060  46.1681870  37.3111880   5.0576730
  45.6936560  38.5198700   4.2793500  37.5705220  38.4784640   5.8773090
  38.2515330  38.7423010   6.4960490  37.2553270  37.6385510   6.2111100
  41.7629790  39.5252000   4.9645680  42.2708010  40.0232970   5.6050700
  42.2943030  38.7487200   4.7885040  40.0465890  34.1650560   9.2309100
  40.0484330  34.6822950   8.4255000  39.2170200  33.6880740   9.2079030
  41.2968740  43.8045740   7.4082600  40.9638120  44.4314660   8.0503670
  41.4735420  44.3307620   6.6284270  39.7281220  35.8760520   7.2379550
  40.0698030  36.7202570   6.9433420  38.7897030  36.0244260   7.3544890
  43.4109110  33.3642790   3.5624140  43.7184090  32.8089680   2.8459640
  42.4809810  33.4987250   3.3797130  48.3609610  43.9839920   7.1814210
  48.7778400  43.7700030   6.3467670  49.0849430  44.2412710   7.7522830
  49.2713720  39.1696460   8.2185320  48.8584900  39.9950170   8.4725310
  48.5389670  38.5841500   8.0261680  41.4046510  41.9556360   3.0803990
  41.0003510  41.2433610   2.5849890  41.4909630  41.6109600   3.9692030
  40.1175130  38.7299570   6.8603030  40.6689720  38.8394910   6.0856280
  40.6318640  39.1037170   7.5758260  39.7917860  42.2518930  10.4708370
  39.6525630  43.1241730  10.8395770  38.9099220  41.9091740  10.3256310
  35.7436510  44.0216480   6.3879280  35.8216930  44.1565250   5.4435000
  36.3578190  43.3132370   6.5807400  40.5714800  34.1936410   3.9634310
  40.1282950  34.9745950   3.6318830  41.1299790  34.5166300   4.6705250
  44.8584610  37.0604930   9.5669630  44.3963980  37.2687950  10.3789570
  44.4562720  36.2464280   9.2640300  46.9538830  39.7815630  12.7965080
  47.2792240  38.9479380  12.4567310  47.7419160  40.3044150  12.9443410
  42.6090700  34.7383740   5.8223910  42.9063030  35.6446570   5.7415930
  43.1576260  34.2502520   5.2083480  42.8028230  40.2155560  12.3575830
  42.7071830  39.2750290  12.2076230  43.6460210  40.4370630  11.9623900
  37.9338770  36.6269230  10.5109610  37.5402160  37.4744440  10.7182390
  37.2457170  35.9895600  10.7018250  44.5083820  36.7104200  13.5806350
  43.8182140  36.5176400  14.2152440  45.2516120  36.9938840  14.1130650
  35.2355820  34.5497690   4.5439690  34.9468870  35.1200550   5.2564670
  35.9801580  34.0702140   4.9070920  46.7846790  40.5502640   6.4160270
  46.0527910  41.0589450   6.7650370  46.3871130  39.7332620   6.1149050
  43.2224180  37.2256840   4.8212760  43.2260240  36.7846790   3.9717300
  44.1175300  37.5474170   4.9284580  39.0726560  37.1083330   3.7806970
  38.7326610  37.5858560   4.5374020  38.3103880  36.6548450   3.4208070
  47.2472700  36.0036320   5.8283210  47.2645440  36.4544970   6.6725060
  46.9988280  35.1041960   6.0416650  43.5232150  41.2858620   6.5678170
  43.8902280  40.8117190   7.3139510  43.3337210  42.1600190   6.9086510
  36.3872640  36.0302310   2.6971640  36.1019560  35.6657980   3.5350260
  36.3251500  35.2982770   2.0834780  41.3131520  40.3267260   8.8862380
  41.0088590  41.2059240   9.1112740  42.2677980  40.3867050   8.9219820
  45.9820090  43.6002670  11.1624620  45.9157400  42.6798340  10.9082210
  45.3525230  43.6978110  11.8769260  39.8850710  44.2008630   3.1208040
  40.4029380  43.3976890   3.0664930  39.4334730  44.1387770   3.9624870
  37.3695250  41.1670000  10.0333740  37.0110190  41.8323850  10.6207080
  37.0749810  40.3353550  10.4046360  40.5708370  41.6254240  12.9173290
  40.2708510  41.7711420  12.0201110  41.3419610  41.0659530  12.8246680
  35.9443820  34.6563240  10.7105840  35.2302340  34.8560160  11.3158450
  36.3638860  33.8802810  11.0820640  47.4382600  37.1485550   8.4607290
  47.8063420  36.3280760   8.7886860  46.5780800  37.2087440   8.8762940
  44.3984590  39.8025140   8.6845260  44.8969840  40.2770960   9.3497110
  44.5407540  38.8788660   8.8915290  36.0972660  42.1985870  12.4528030
  36.6011680  41.6193150  13.0244260  35.3580080  42.4826100  12.9904400
  43.1510600  43.6056860  11.9863550  42.3856270  44.1741860  11.9018220
  43.3326560  43.3133070  11.0931780  38.1295740  40.3415460  13.3478100
  38.1701080  40.0429330  14.2563330  38.9841240  40.7423070  13.1885620
  40.0701550  38.9207560  11.3152590  39.5398010  38.4298510  10.6875930
  40.7389620  39.3491760  10.7810520  48.9679610  43.3877020  11.0793780
  49.3820630  43.5422100  11.9284200  48.0330610  43.5132240  11.2419560
  40.5573850  35.8869930  11.3949880  40.4630720  35.2690680  10.6700750
  39.9771240  36.6136220  11.1679790  43.3235290  34.4443170   8.4277270
  42.8752590  34.4667430   7.5822820  42.6900490  34.0462190   9.0247570
  43.7294840  43.3397500   9.0489710  44.1482950  44.1830230   8.8765950
  42.8103470  43.4769540   8.8196490  46.0658740  41.0713680  10.4327550
  46.1854950  40.4754820  11.1722390  46.9252740  41.1083370  10.0128850
  48.4046640  41.6250870   9.0090060  47.8781860  42.1493490   8.4055200
  48.7477980  42.2578260   9.6399790  42.8327510  37.6135030  11.6903370
  43.4227200  37.3050880  12.3781190  42.0147750  37.1414780  11.8463270
  47.6520940  37.2300840  11.9236390  46.9636460  36.5682380  11.8586380
  48.3726960  36.7839110  12.3684850  36.1606400  41.5867130   2.8238220
  35.5055240  41.3178770   2.1797920  36.9984350  41.4771610   2.3740200
  37.1982330  41.9719700   7.3641560  37.5655370  41.8847100   8.2437580
  36.6293150  41.2086250   7.2648420  36.7498330  38.8828790  11.2699980
  35.8554380  38.8495550  11.6093690  37.2895880  39.0815580  12.0351230
  37.2538040  33.1577120   5.6183200  37.9014230  32.6074500   5.1778360
  37.6739880  33.4120270   6.4399010  37.0070040  33.3132790   8.3608520
  36.6584860  33.7696610   9.1266700  36.6757740  32.4189920   8.4430950
  44.5194860  34.5044670  11.8827940  44.4583750  35.0966500  12.6323350
  45.4595240  34.3970630  11.7378200  47.1569420  34.1614730  11.5220230
  47.7709830  34.4794020  10.8601310  47.7018980  33.6763320  12.1416090
  37.6790680  32.8408990  11.6359290  38.2273670  32.6597040  10.8725400
  37.7445990  32.0503100  12.1715600  47.8977460  32.7246870   7.8489520
  47.0237300  33.0581980   7.6462450  47.7888210  32.2520050   8.6741390
  48.8049440  34.9317740   9.2331240  48.4762800  34.1169500   8.8532970
  49.7531740  34.8887550   9.1096930  45.6452280  33.6416710   6.7882430
  44.8624070  34.1162210   7.0679190  45.3515210  32.7371540   6.6795610
  43.5306500  36.0603460   2.2998460  42.7181010  35.6860350   1.9594340
  44.0348140  35.3048540   2.6019650  48.0331480  32.7245910   3.5381530
  48.6360850  33.2966120   4.0130050  47.2924470  33.2885350   3.3155430
  41.6811240  33.4887360  13.3396000  41.3995510  33.9920960  12.5756820
  42.0630940  32.6909110  12.9738130  48.2826700  32.9040940  13.9176470
  48.1692150  33.2235550  14.8127990  49.0996440  33.3053450  13.6213750
  47.1884850  22.1489920  40.6041680  47.1078900  21.2344530  40.3333390
  46.7749270  22.6456990  39.8981390  45.3202890  23.9268940  42.4850950
  44.5444990  23.4469380  42.7749520  45.9715820  23.2474590  42.3107110
  39.3368720  24.2388750  43.3626710  38.5053600  23.9837460  43.7623220
  39.9449700  24.3099520  44.0984630  39.3169980  28.2728840  43.5584730
  39.6198020  27.3826580  43.3794950  40.0613570  28.8299060  43.3306980
  37.7460670  19.1990640  37.1469100  36.8577370  19.5406610  37.0448980
  38.0301860  18.9990960  36.2549930  35.7093680  21.7996290  43.0308800
  36.2809790  21.0318490  43.0312440  35.7095220  22.0985050  42.1215410
  45.5673630  30.6187140  40.8854070  44.9485070  31.0744640  40.3148510
  46.4225410  30.7738600  40.4843770  44.7611880  26.6026130  42.4921110
  44.6920160  25.6616070  42.3310240  45.5231740  26.6927540  43.0643680
  45.7917050  19.4096510  42.7190040  46.1681870  18.5368390  42.6063710
  45.6936560  19.7455210  41.8280480  39.9222060  17.7822140  38.1807480
  40.0288810  18.6825870  38.4876240  39.0114420  17.7340110  37.8902130
  37.5705220  19.7041150  43.4260070  38.2515330  19.9679520  44.0447470
  37.2553270  18.8642020  43.7598080  41.7629790  20.7508510  42.5132660
  42.2708010  21.2489480  43.1537680  42.2943030  19.9743710  42.3372020
  46.4336980  25.5026380  38.2785980  45.8154250  25.9675830  37.7148700
  46.9460230  26.1953860  38.6955490  39.7281220  17.1017030  44.7866530
  40.0698030  17.9459080  44.4920400  38.7897030  17.2500770  44.9031870
  35.8020180  26.1882910  35.6525610  35.4248160  26.6770010  34.9210510
  36.0593250  26.8608190  36.2832140  43.4109110  14.5899300  41.1111120
  43.7184090  14.0346190  40.3946620  42.4809810  14.7243760  40.9284110
  48.9624170  30.3066590  43.4018580  48.9751330  29.9028880  42.5340840
  48.4099390  31.0813880  43.2980010  45.7989870  22.6548130  37.8471240
  44.8719150  22.5885510  38.0759710  45.9514690  23.5928260  37.7326480
  45.7858950  18.9265130  34.8438400  44.8462620  19.0879090  34.9290860
  46.1042210  19.6450810  34.2974390  41.4046510  23.1812870  40.6290970
  41.0003510  22.4690120  40.1336870  41.4909630  22.8366110  41.5179010
  41.8728210  26.8680430  42.7930180  41.5756500  26.2625900  42.1137960
  42.8228030  26.9057740  42.6819540  40.1175130  19.9556080  44.4090010
  40.6689720  20.0651420  43.6343260  40.6318640  20.3293680  45.1245240
  48.0051860  23.4555240  35.3579240  48.4445140  22.6177670  35.2117060
  48.7180280  24.0884640  35.4443380  46.1147240  28.3951310  39.3260480
  46.5543150  29.1375640  38.9115870  46.0534130  28.6377880  40.2499440
  38.1051140  22.0757850  38.1297620  37.9848740  22.8019940  37.5178890
  37.7952030  21.3060760  37.6525530  35.7436510  25.2472990  43.9366260
  35.8216930  25.3821760  42.9921980  36.3578190  24.5388880  44.1294380
  36.9884140  26.9473180  40.3472440  36.5812220  27.0887770  39.4926040
  37.8797150  26.6633340  40.1443650  48.7817420  31.3820430  36.6823490
  48.6218560  31.0923370  37.5805320  48.6164130  30.6060560  36.1468720
  41.2605800  31.1618960  38.4595110  41.0848280  30.2454500  38.2462910
  40.4061540  31.5206250  38.6992910  48.4843550  28.8907990  35.2421490
  47.7908710  28.8885280  34.5823770  49.2266410  28.4667310  34.8115660
  48.0493480  30.5170700  39.3169980  48.5050430  29.7360080  39.6308600
  48.3886000  31.2277520  39.8611160  40.5714800  15.4192920  41.5121290
  40.1282950  16.2002460  41.1805810  41.1299790  15.7422810  42.2192230
  43.6873620  15.0403620  36.3927120  43.0627800  15.0363490  37.1180430
  43.6003740  14.1734580  35.9963090  42.6090700  15.9640250  43.3710890
  42.9063030  16.8703080  43.2902910  43.1576260  15.4759030  42.7570460
  40.3629020  20.5426490  39.2402540  40.1369940  20.3263660  40.1449160
  39.5821550  20.9754950  38.8948510  47.5926780  20.5489860  37.8393190
  46.9935670  21.2725660  37.6556810  48.1406390  20.4866640  37.0569640
  46.1991650  19.1853400  39.8696470  46.5921220  19.5025600  39.0565160
  46.5608500  18.3065280  39.9840990  35.2355820  15.7754200  42.0926670
  34.9468870  16.3457060  42.8051650  35.9801580  15.2958650  42.4557900
  35.4226050  19.7174320  33.3029390  35.3400720  20.6605080  33.4444380
  35.0709110  19.5749230  32.4241740  46.7846790  21.7759150  43.9647250
  46.0527910  22.2845960  44.3137350  46.3871130  20.9589130  43.6636030
  43.2224180  18.4513350  42.3699740  43.2260240  18.0103300  41.5204280
  44.1175300  18.7730680  42.4771560  39.0726560  18.3339840  41.3293950
  38.7326610  18.8115070  42.0861000  38.3103880  17.8804960  40.9695050
  43.2844330  19.4525430  35.3606500  43.4057150  19.4111910  36.3092320
  42.8992840  20.3149580  35.2053230  47.2472700  17.2292830  43.3770190
  47.2645440  17.6801480  44.2212040  46.9988280  16.3298470  43.5903630
  42.2965830  21.7626570  34.7589800  41.7282730  21.3144820  34.1325710
  43.0054830  22.1219350  34.2254950  43.5232150  22.5115130  44.1165150
  43.8902280  22.0373700  44.8626490  43.3337210  23.3856700  44.4573490
  36.3872640  17.2558820  40.2458620  36.1019560  16.8914490  41.0837240
  36.3251500  16.5239280  39.6321760  39.8413310  25.7584760  37.0316210
  39.0675570  25.2182380  36.8714930  40.5707940  25.2391370  36.6933970
  46.0611230  16.1488080  36.9671990  45.2475840  15.6501250  36.8917300
  45.8673180  16.9886330  36.5508340  48.7759620  20.5207730  35.2634150
  49.6639240  20.8324960  35.0885490  48.7464710  19.6479980  34.8714730
  39.8850710  25.4265140  40.6695020  40.4029380  24.6233400  40.6151910
  39.4334730  25.3644280  41.5111850  44.7720210  26.6931420  35.9422320
  45.1135910  27.4373650  35.4465640  43.9432920  27.0062540  36.3047150
  47.6547620  26.0147260  41.3067830  48.0071440  25.4175390  40.6469200
  46.7709950  25.6891490  41.4776080  43.7410900  26.7744950  38.7138240
  44.4282030  27.3214160  39.0945830  42.9543320  27.3185680  38.7487850
  35.8803300  22.3917770  34.2055320  36.7498150  22.6742570  34.4891240
  35.3893620  23.2053640  34.0904130  43.0438110  23.7790980  38.3263600
  43.5000890  24.5896230  38.5523790  42.6926320  23.4614120  39.1582090
  38.9449890  14.1228630  38.7986120  38.8164520  14.1146530  39.7471040
  38.1211910  14.4611720  38.4477130  46.6202800  27.2929670  44.2733350
  47.2625030  26.5922830  44.3865520  47.1452150  28.0728110  44.0930240
  36.2474550  31.6045150  34.7716950  36.6072190  32.2034490  34.1174220
  36.1066890  32.1505040  35.5451980  42.2643170  28.9876350  35.5890620
  42.2553270  29.7206040  34.9735130  41.3441530  28.7407930  35.6817580
  37.8649810  24.2091240  36.3337380  37.2577760  24.9490140  36.3432680
  38.3399160  24.2990600  35.5075580  45.2502770  29.0504590  34.2515810
  45.3514750  28.8468580  33.3217790  44.3504510  28.7962870  34.4563590
  42.7728660  19.6084950  38.2339710  42.0644810  20.0771290  38.6753320
  43.0573140  18.9506960  38.8684900  46.8044090  16.3335610  39.6735500
  46.6811870  16.3521740  38.7245010  47.7528650  16.3814550  39.7933900
  43.8920880  31.5690910  38.9463480  44.1462380  31.5312300  38.0242850
  42.9433360  31.4424240  38.9391730  40.9763680  17.9170030  35.6090420
  41.8254210  18.3540180  35.5430610  40.6094950  18.2290290  36.4362480
  39.8755100  24.1702390  34.0825950  40.6418370  24.0583750  34.6451380
  39.9529790  23.4740360  33.4302720  38.5701860  21.6027460  34.7658840
  38.6505450  20.6554970  34.8776240  39.4621610  21.9334340  34.8719500
  39.3716570  31.7522850  41.8693380  40.1079050  31.2038310  42.1401950
  39.7557490  32.6178860  41.7299370  36.2562050  27.8196420  37.7434890
  35.3301830  28.0617560  37.7340300  36.7218480  28.6470680  37.6219640
  42.4818880  30.9253160  33.6918950  43.2747490  31.2141990  33.2400740
  41.9623230  30.4945330  33.0131430  42.9996280  26.1456570  33.5561300
  42.8946920  25.5308920  34.2822680  42.8320500  25.6222460  32.7724310
  46.2399010  25.2076600  34.1603290  45.6909110  25.6545900  34.8046030
  46.8618270  24.7025850  34.6840960  41.9074130  24.1667520  36.0568590
  42.3290550  24.0007390  36.8999980  42.0324970  23.3567750  35.5623730
  44.4201770  23.1905130  33.3045690  44.9407430  22.4754150  32.9386840
  45.0670170  23.8291000  33.6046200  40.8033030  20.2400750  33.0026750
  40.6022090  19.3768110  33.3640090  40.6325080  20.1534110  32.0648350
  48.2821340  15.0508980  35.5313630  48.5623630  14.2076880  35.8873050
  47.5087070  15.2832090  36.0452380  39.6015830  17.3401370  32.9904630
  39.9041730  17.3468800  32.0823780  40.3410420  16.9899230  33.4872290
  42.8200760  16.2835990  33.9760830  42.4722760  15.6059980  33.3963280
  43.0213530  15.8225500  34.7904220  44.9849800  31.2716740  35.5947430
  45.8800590  31.6101710  35.6166190  45.0167430  30.5496150  34.9671710
  38.6245960  26.6443790  33.8234430  39.0620830  27.1873460  34.4792010
  39.1093690  25.8190740  33.8330770  35.8391760  29.4332820  41.2754690
  36.1694770  28.5653880  41.0433330  36.2682760  29.6391340  42.1059650
  40.4353680  27.7641830  38.9356660  40.1349220  27.6406800  39.8360570
  40.3291170  26.9050420  38.5272390  36.3281970  30.3003410  44.0136320
  35.8912960  30.4804210  44.8460470  36.8959650  31.0578030  43.8718040
  36.1606400  22.8123640  40.3725200  35.5055240  22.5435280  39.7284900
  36.9984350  22.7028120  39.9227180  49.1096840  17.6064930  34.5943690
  49.5281720  17.4195910  33.7540350  48.8032900  16.7543980  34.9046620
  35.3744480  20.0222570  36.3150530  34.4708560  20.2852770  36.1402190
  35.8585100  20.2933740  35.5350490  37.9171690  19.0788110  34.2244910
  38.6263390  18.6571330  33.7392190  37.2011630  19.1463340  33.5928260
  37.5645850  15.1327440  33.2647560  38.2873980  15.6736380  33.5828780
  37.8370370  14.8590860  32.3889100  37.2538040  14.3833630  43.1670180
  37.9014230  13.8331010  42.7265340  37.6739880  14.6376780  43.9885990
  41.6879770  30.2374530  42.9303920  42.2044790  29.6261890  42.4052180
  42.3377150  30.7403310  43.4214930  44.4275270  31.1283020  43.7572900
  44.7153080  30.8737320  42.8805910  44.9398490  30.5760380  44.3478470
  45.6452280  14.8673220  44.3369410  44.8624070  15.3418720  44.6166170
  45.3515210  13.9628050  44.2282590  36.3664670  31.3403920  39.3551270
  36.1986710  30.7074600  40.0533160  35.4999180  31.5463320  39.0045460
  36.9892690  15.1720700  36.8583130  37.7472050  15.2849580  36.2847160
  36.5269860  16.0089900  36.8126560  43.5306500  17.2859970  39.8485440
  42.7181010  16.9116860  39.5081320  44.0348140  16.5305050  40.1506630
  48.0331480  13.9502420  41.0868510  48.6360850  14.5222630  41.5617030
  47.2924470  14.5141860  40.8642410  37.9727370  30.0337150  36.8001410
  37.4474990  30.4145180  36.0963370  37.8971950  30.6587920  37.5211120
  39.3617840  15.6984750  35.3985100  39.8910600  14.9114550  35.2693050
  39.9946160  16.3775940  35.6320630  41.5555680  15.4359890  38.4530490
  40.9258420  14.7347200  38.6200620  41.0160820  16.1964020  38.2363650
  40.5720340  31.9819530  35.6750660  41.3039160  31.6978810  35.1274550
  40.8314010  31.7432810  36.5650040  39.7335130  28.0984260  35.6796990
  39.1044010  28.5669360  36.2282820  39.8482960  27.2533480  36.1143180
  47.1884850  22.1489920  21.8298190  47.1078900  21.2344530  21.5589900
  46.7749270  22.6456990  21.1237900  45.3202890  23.9268940  23.7107460
  44.5444990  23.4469380  24.0006030  45.9715820  23.2474590  23.5363620
  39.3368720  24.2388750  24.5883220  38.5053600  23.9837460  24.9879730
  39.9449700  24.3099520  25.3241140  39.3169980  28.2728840  24.7841240
  39.6198020  27.3826580  24.6051460  40.0613570  28.8299060  24.5563490
  37.7460670  19.1990640  18.3725610  36.8577370  19.5406610  18.2705490
  38.0301860  18.9990960  17.4806440  35.7093680  21.7996290  24.2565310
  36.2809790  21.0318490  24.2568950  35.7095220  22.0985050  23.3471920
  45.5673630  30.6187140  22.1110580  44.9485070  31.0744640  21.5405020
  46.4225410  30.7738600  21.7100280  44.7611880  26.6026130  23.7177620
  44.6920160  25.6616070  23.5566750  45.5231740  26.6927540  24.2900190
  36.9518550  17.2080650  26.0434240  36.7721390  16.3106400  26.3237000
  36.5498630  17.7552520  26.7181190  45.7917050  19.4096510  23.9446550
  46.1681870  18.5368390  23.8320220  45.6936560  19.7455210  23.0536990
  39.9222060  17.7822140  19.4063990  40.0288810  18.6825870  19.7132750
  39.0114420  17.7340110  19.1158640  37.5705220  19.7041150  24.6516580
  38.2515330  19.9679520  25.2703980  37.2553270  18.8642020  24.9854590
  41.7629790  20.7508510  23.7389170  42.2708010  21.2489480  24.3794190
  42.2943030  19.9743710  23.5628530  40.0465890  15.3907070  28.0052590
  40.0484330  15.9079460  27.1998490  39.2170200  14.9137250  27.9822520
  46.4336980  25.5026380  19.5042490  45.8154250  25.9675830  18.9405210
  46.9460230  26.1953860  19.9212000  41.2968740  25.0302250  26.1826090
  40.9638120  25.6571170  26.8247160  41.4735420  25.5564130  25.4027760
  39.7281220  17.1017030  26.0123040  40.0698030  17.9459080  25.7176910
  38.7897030  17.2500770  26.1288380  40.5087840  26.9983050  27.9975270
  41.1261840  27.6734130  27.7159720  39.6480960  27.4071030  27.9062770
  35.8020180  26.1882910  16.8782120  35.4248160  26.6770010  16.1467020
  36.0593250  26.8608190  17.5088650  43.4109110  14.5899300  22.3367630
  43.7184090  14.0346190  21.6203130  42.4809810  14.7243760  22.1540620
  48.9624170  30.3066590  24.6275090  48.9751330  29.9028880  23.7597350
  48.4099390  31.0813880  24.5236520  48.3609610  25.2096430  25.9557700
  48.7778400  24.9956540  25.1211160  49.0849430  25.4669220  26.5266320
  45.7989870  22.6548130  19.0727750  44.8719150  22.5885510  19.3016220
  45.9514690  23.5928260  18.9582990  45.7858950  18.9265130  16.0694910
  44.8462620  19.0879090  16.1547370  46.1042210  19.6450810  15.5230900
  49.2713720  20.3952970  26.9928810  48.8584900  21.2206680  27.2468800
  48.5389670  19.8098010  26.8005170  41.4046510  23.1812870  21.8547480
  41.0003510  22.4690120  21.3593380  41.4909630  22.8366110  22.7435520
  41.8728210  26.8680430  24.0186690  41.5756500  26.2625900  23.3394470
  42.8228030  26.9057740  23.9076050  40.1175130  19.9556080  25.6346520
  40.6689720  20.0651420  24.8599770  40.6318640  20.3293680  26.3501750
  40.9646640  26.6062120  30.6694490  40.0675170  26.8302090  30.9167890
  40.9899510  26.7297060  29.7205890  48.0051860  23.4555240  16.5835750
  48.4445140  22.6177670  16.4373570  48.7180280  24.0884640  16.6699890
  39.7917860  23.4775440  29.2451860  39.6525630  24.3498240  29.6139260
  38.9099220  23.1348250  29.0999800  46.1147240  28.3951310  20.5516990
  46.5543150  29.1375640  20.1372380  46.0534130  28.6377880  21.4755950
  41.5898210  29.4197140  31.4537010  41.5613640  29.8240090  30.5865440
  41.4263180  28.4907500  31.2908610  38.1051140  22.0757850  19.3554130
  37.9848740  22.8019940  18.7435400  37.7952030  21.3060760  18.8782040
  35.7436510  25.2472990  25.1622770  35.8216930  25.3821760  24.2178490
  36.3578190  24.5388880  25.3550890  36.9884140  26.9473180  21.5728950
  36.5812220  27.0887770  20.7182550  37.8797150  26.6633340  21.3700160
  46.8063020  31.0965090  28.4796000  47.3207690  31.0073100  29.2818430
  45.9632100  31.4424790  28.7723910  48.7817420  31.3820430  17.9080000
  48.6218560  31.0923370  18.8061830  48.6164130  30.6060560  17.3725230
  41.2605800  31.1618960  19.6851620  41.0848280  30.2454500  19.4719420
  40.4061540  31.5206250  19.9249420  48.4843550  28.8907990  16.4678000
  47.7908710  28.8885280  15.8080280  49.2266410  28.4667310  16.0372170
  48.0493480  30.5170700  20.5426490  48.5050430  29.7360080  20.8565110
  48.3886000  31.2277520  21.0867670  35.7996030  26.2887160  27.7017230
  35.9627070  25.8192520  26.8836600  36.2648480  25.7810720  28.3666070
  40.5714800  15.4192920  22.7377800  40.1282950  16.2002460  22.4062320
  41.1299790  15.7422810  23.4448740  44.8584610  18.2861440  28.3413120
  44.3963980  18.4944460  29.1533060  44.4562720  17.4720790  28.0383790
  46.9538830  21.0072140  31.5708570  47.2792240  20.1735890  31.2310800
  47.7419160  21.5300660  31.7186900  43.6873620  15.0403620  17.6183630
  43.0627800  15.0363490  18.3436940  43.6003740  14.1734580  17.2219600
  42.6090700  15.9640250  24.5967400  42.9063030  16.8703080  24.5159420
  43.1576260  15.4759030  23.9826970  40.3629020  20.5426490  20.4659050
  40.1369940  20.3263660  21.3705670  39.5821550  20.9754950  20.1205020
  47.5926780  20.5489860  19.0649700  46.9935670  21.2725660  18.8813320
  48.1406390  20.4866640  18.2826150  42.8028230  21.4412070  31.1319320
  42.7071830  20.5006800  30.9819720  43.6460210  21.6627140  30.7367390
  46.1991650  19.1853400  21.0952980  46.5921220  19.5025600  20.2821670
  46.5608500  18.3065280  21.2097500  37.9338770  17.8525740  29.2853100
  37.5402160  18.7000950  29.4925880  37.2457170  17.2152110  29.4761740
  44.5083820  17.9360710  32.3549840  43.8182140  17.7432910  32.9895930
  45.2516120  18.2195350  32.8874140  35.2355820  15.7754200  23.3183180
  34.9468870  16.3457060  24.0308160  35.9801580  15.2958650  23.6814410
  35.4226050  19.7174320  14.5285900  35.3400720  20.6605080  14.6700890
  35.0709110  19.5749230  13.6498250  46.7846790  21.7759150  25.1903760
  46.0527910  22.2845960  25.5393860  46.3871130  20.9589130  24.8892540
  43.2224180  18.4513350  23.5956250  43.2260240  18.0103300  22.7460790
  44.1175300  18.7730680  23.7028070  39.0726560  18.3339840  22.5550460
  38.7326610  18.8115070  23.3117510  38.3103880  17.8804960  22.1951560
  43.2844330  19.4525430  16.5863010  43.4057150  19.4111910  17.5348830
  42.8992840  20.3149580  16.4309740  47.2472700  17.2292830  24.6026700
  47.2645440  17.6801480  25.4468550  46.9988280  16.3298470  24.8160140
  42.2965830  21.7626570  15.9846310  41.7282730  21.3144820  15.3582220
  43.0054830  22.1219350  15.4511460  37.3735010  25.6638590  29.8613040
  36.9889800  25.0232260  30.4596000  37.6847200  26.3674710  30.4307770
  43.5232150  22.5115130  25.3421660  43.8902280  22.0373700  26.0883000
  43.3337210  23.3856700  25.6830000  36.3872640  17.2558820  21.4715130
  36.1019560  16.8914490  22.3093750  36.3251500  16.5239280  20.8578270
  41.3131520  21.5523770  27.6605870  41.0088590  22.4315750  27.8856230
  42.2677980  21.6123560  27.6963310  39.8413310  25.7584760  18.2572720
  39.0675570  25.2182380  18.0971440  40.5707940  25.2391370  17.9190480
  46.0611230  16.1488080  18.1928500  45.2475840  15.6501250  18.1173810
  45.8673180  16.9886330  17.7764850  45.9820090  24.8259180  29.9368110
  45.9157400  23.9054850  29.6825700  45.3525230  24.9234620  30.6512750
  48.7759620  20.5207730  16.4890660  49.6639240  20.8324960  16.3142000
  48.7464710  19.6479980  16.0971240  39.8850710  25.4265140  21.8951530
  40.4029380  24.6233400  21.8408420  39.4334730  25.3644280  22.7368360
  44.7720210  26.6931420  17.1678830  45.1135910  27.4373650  16.6722150
  43.9432920  27.0062540  17.5303660  37.3695250  22.3926510  28.8077230
  37.0110190  23.0580360  29.3950570  37.0749810  21.5610060  29.1789850
  40.5708370  22.8510750  31.6916780  40.2708510  22.9967930  30.7944600
  41.3419610  22.2916040  31.5990170  45.9136820  27.6479750  29.6871910
  45.9281360  26.7160710  29.4690820  45.2061920  27.7339510  30.3261680
  47.6547620  26.0147260  22.5324340  48.0071440  25.4175390  21.8725710
  46.7709950  25.6891490  22.7032590  43.7410900  26.7744950  19.9394750
  44.4282030  27.3214160  20.3202340  42.9543320  27.3185680  19.9744360
  35.8803300  22.3917770  15.4311830  36.7498150  22.6742570  15.7147750
  35.3893620  23.2053640  15.3160640  43.0438110  23.7790980  19.5520110
  43.5000890  24.5896230  19.7780300  42.6926320  23.4614120  20.3838600
  45.3470720  29.2897320  26.7812410  45.9912940  29.4956700  27.4585830
  45.7100160  28.5285720  26.3283260  38.9449890  14.1228630  20.0242630
  38.8164520  14.1146530  20.9727550  38.1211910  14.4611720  19.6733640
  46.6202800  27.2929670  25.4989860  47.2625030  26.5922830  25.6122030
  47.1452150  28.0728110  25.3186750  48.3940420  28.0924570  28.7025920
  48.7296660  28.6791260  29.3803840  47.4740760  27.9617280  28.9323710
  36.2474550  31.6045150  15.9973460  36.6072190  32.2034490  15.3430730
  36.1066890  32.1505040  16.7708490  35.9443820  15.8819750  29.4849330
  35.2302340  16.0816670  30.0901940  36.3638860  15.1059320  29.8564130
  36.2316410  29.8700010  30.4715860  36.3407530  28.9294750  30.3311250
  35.5796970  30.1354760  29.8229590  44.2229000  28.1415900  31.8713980
  43.9025870  27.4225140  32.4159670  43.5487360  28.8170970  31.9450040
  42.2643170  28.9876350  16.8147130  42.2553270  29.7206040  16.1991640
  41.3441530  28.7407930  16.9074090  37.8649810  24.2091240  17.5593890
  37.2577760  24.9490140  17.5689190  38.3399160  24.2990600  16.7332090
  47.4382600  18.3742060  27.2350780  47.8063420  17.5537270  27.5630350
  46.5780800  18.4343950  27.6506430  45.2502770  29.0504590  15.4772320
  45.3514750  28.8468580  14.5474300  44.3504510  28.7962870  15.6820100
  42.7728660  19.6084950  19.4596220  42.0644810  20.0771290  19.9009830
  43.0573140  18.9506960  20.0941410  44.3984590  21.0281650  27.4588750
  44.8969840  21.5027470  28.1240600  44.5407540  20.1045170  27.6658780
  46.8044090  16.3335610  20.8992010  46.6811870  16.3521740  19.9501520
  47.7528650  16.3814550  21.0190410  43.8920880  31.5690910  20.1719990
  44.1462380  31.5312300  19.2499360  42.9433360  31.4424240  20.1648240
  40.9763680  17.9170030  16.8346930  41.8254210  18.3540180  16.7687120
  40.6094950  18.2290290  17.6618990  39.8755100  24.1702390  15.3082460
  40.6418370  24.0583750  15.8707890  39.9529790  23.4740360  14.6559230
  38.5701860  21.6027460  15.9915350  38.6505450  20.6554970  16.1032750
  39.4621610  21.9334340  16.0976010  39.3716570  31.7522850  23.0949890
  40.1079050  31.2038310  23.3658460  39.7557490  32.6178860  22.9555880
  36.2562050  27.8196420  18.9691400  35.3301830  28.0617560  18.9596810
  36.7218480  28.6470680  18.8476150  38.3774850  30.9368920  32.2835470
  39.1787580  31.2580970  32.6970870  37.8626670  30.5764500  33.0055380
  42.4818880  30.9253160  14.9175460  43.2747490  31.2141990  14.4657250
  41.9623230  30.4945330  14.2387940  47.2139480  27.0448790  32.2310880
  46.6077640  27.0680390  31.4906630  46.9093590  26.3131830  32.7678130
  48.6439850  30.7729080  30.8420290  49.5961600  30.6887100  30.7920530
  48.4968070  31.4370790  31.5154080  36.0972660  23.4242380  31.2271520
  36.6011680  22.8449660  31.7987750  35.3580080  23.7082610  31.7647890
  42.9996280  26.1456570  14.7817810  42.8946920  25.5308920  15.5079190
  42.8320500  25.6222460  13.9980820  43.1510600  24.8313370  30.7607040
  42.3856270  25.3998370  30.6761710  43.3326560  24.5389580  29.8675270
  46.2399010  25.2076600  15.3859800  45.6909110  25.6545900  16.0302540
  46.8618270  24.7025850  15.9097470  38.1295740  21.5671970  32.1221590
  38.1701080  21.2685840  33.0306820  38.9841240  21.9679580  31.9629110
  41.9074130  24.1667520  17.2825100  42.3290550  24.0007390  18.1256490
  42.0324970  23.3567750  16.7880240  40.0701550  20.1464070  30.0896080
  39.5398010  19.6555020  29.4619420  40.7389620  20.5748270  29.5554010
  44.4201770  23.1905130  14.5302200  44.9407430  22.4754150  14.1643350
  45.0670170  23.8291000  14.8302710  48.9679610  24.6133530  29.8537270
  49.3820630  24.7678610  30.7027690  48.0330610  24.7388750  30.0163050
  40.5573850  17.1126440  30.1693370  40.4630720  16.4947190  29.4444240
  39.9771240  17.8392730  29.9423280  43.3235290  15.6699680  27.2020760
  42.8752590  15.6923940  26.3566310  42.6900490  15.2718700  27.7991060
  43.7294840  24.5654010  27.8233200  44.1482950  25.4086740  27.6509440
  42.8103470  24.7026050  27.5939980  46.0658740  22.2970190  29.2071040
  46.1854950  21.7011330  29.9465880  46.9252740  22.3339880  28.7872340
  48.4046640  22.8507380  27.7833550  47.8781860  23.3750000  27.1798690
  48.7477980  23.4834770  28.4143280  40.8033030  20.2400750  14.2283260
  40.6022090  19.3768110  14.5896600  40.6325080  20.1534110  13.2904860
  41.5802260  30.8707020  28.9390930  41.0423350  31.5953080  28.6199630
  41.8336220  30.3937360  28.1488270  42.8327510  18.8391540  30.4646860
  43.4227200  18.5307390  31.1524680  42.0147750  18.3671290  30.6206760
  47.6520940  18.4557350  30.6979880  46.9636460  17.7938890  30.6329870
  48.3726960  18.0095620  31.1428340  48.2821340  15.0508980  16.7570140
  48.5623630  14.2076880  17.1129560  47.5087070  15.2832090  17.2708890
  39.6015830  17.3401370  14.2161140  39.9041730  17.3468800  13.3080290
  40.3410420  16.9899230  14.7128800  44.4364470  32.1058230  29.1977580
  44.3623170  33.0093370  29.5049950  43.5343310  31.7870130  29.1699650
  42.8200760  16.2835990  15.2017340  42.4722760  15.6059980  14.6219790
  43.0213530  15.8225500  16.0160730  44.9849800  31.2716740  16.8203940
  45.8800590  31.6101710  16.8422700  45.0167430  30.5496150  16.1928220
  38.6245960  26.6443790  15.0490940  39.0620830  27.1873460  15.7048520
  39.1093690  25.8190740  15.0587280  35.8391760  29.4332820  22.5011200
  36.1694770  28.5653880  22.2689840  36.2682760  29.6391340  23.3316160
  40.4353680  27.7641830  20.1613170  40.1349220  27.6406800  21.0617080
  40.3291170  26.9050420  19.7528900  36.3281970  30.3003410  25.2392830
  35.8912960  30.4804210  26.0716980  36.8959650  31.0578030  25.0974550
  36.1606400  22.8123640  21.5981710  35.5055240  22.5435280  20.9541410
  36.9984350  22.7028120  21.1483690  49.1096840  17.6064930  15.8200200
  49.5281720  17.4195910  14.9796860  48.8032900  16.7543980  16.1303130
  37.1982330  23.1976210  26.1385050  37.5655370  23.1103610  27.0181070
  36.6293150  22.4342760  26.0391910  36.7498330  20.1085300  30.0443470
  35.8554380  20.0752060  30.3837180  37.2895880  20.3072090  30.8094720
  35.3744480  20.0222570  17.5407040  34.4708560  20.2852770  17.3658700
  35.8585100  20.2933740  16.7607000  37.9171690  19.0788110  15.4501420
  38.6263390  18.6571330  14.9648700  37.2011630  19.1463340  14.8184770
  37.5645850  15.1327440  14.4904070  38.2873980  15.6736380  14.8085290
  37.8370370  14.8590860  13.6145610  37.2538040  14.3833630  24.3926690
  37.9014230  13.8331010  23.9521850  37.6739880  14.6376780  25.2142500
  37.0070040  14.5389300  27.1352010  36.6584860  14.9953120  27.9010190
  36.6757740  13.6446430  27.2174440  38.6134410  27.7108900  31.3005200
  38.5704040  27.3401810  32.1819660  38.7445420  28.6486470  31.4407020
  42.3140440  29.2668490  26.9014920  42.0731800  29.5343050  26.0145440
  43.2543080  29.4374220  26.9565780  44.5194860  15.7301180  30.6571430
  44.4583750  16.3223010  31.4066840  45.4595240  15.6227140  30.5121690
  47.1569420  15.3871240  30.2963720  47.7709830  15.7050530  29.6344800
  47.7018980  14.9019830  30.9159580  37.6790680  14.0665500  30.4102780
  38.2273670  13.8853550  29.6468890  37.7445990  13.2759610  30.9459090
  38.4522440  30.6571150  28.4202980  37.8582760  30.5255850  29.1593020
  38.4446280  29.8209290  27.9545080  47.8977460  13.9503380  26.6233010
  47.0237300  14.2838490  26.4205940  47.7888210  13.4776560  27.4484880
  48.8049440  16.1574250  28.0074730  48.4762800  15.3426010  27.6276460
  49.7531740  16.1144060  27.8840420  38.0834670  28.0229530  27.3711020
  37.3568730  27.4034820  27.3036970  38.1443820  28.4170140  26.5009100
  41.6879770  30.2374530  24.1560430  42.2044790  29.6261890  23.6308690
  42.3377150  30.7403310  24.6471440  44.4275270  31.1283020  24.9829410
  44.7153080  30.8737320  24.1062420  44.9398490  30.5760380  25.5734980
  45.6452280  14.8673220  25.5625920  44.8624070  15.3418720  25.8422680
  45.3515210  13.9628050  25.4539100  36.3664670  31.3403920  20.5807780
  36.1986710  30.7074600  21.2789670  35.4999180  31.5463320  20.2301970
  36.9892690  15.1720700  18.0839640  37.7472050  15.2849580  17.5103670
  36.5269860  16.0089900  18.0383070  43.5306500  17.2859970  21.0741950
  42.7181010  16.9116860  20.7337830  44.0348140  16.5305050  21.3763140
  48.0331480  13.9502420  22.3125020  48.6360850  14.5222630  22.7873540
  47.2924470  14.5141860  22.0898920  37.9727370  30.0337150  18.0257920
  37.4474990  30.4145180  17.3219880  37.8971950  30.6587920  18.7467630
  39.3617840  15.6984750  16.6241610  39.8910600  14.9114550  16.4949560
  39.9946160  16.3775940  16.8577140  41.5555680  15.4359890  19.6787000
  40.9258420  14.7347200  19.8457130  41.0160820  16.1964020  19.4620160
  44.4947630  32.0499120  32.3497610  45.4214940  31.8143390  32.3933570
  44.4798060  32.8771120  31.8683640  41.6811240  14.7143870  32.1139490
  41.3995510  15.2177470  31.3500310  42.0630940  13.9165620  31.7481620
  40.5720340  31.9819530  16.9007170  41.3039160  31.6978810  16.3531060
  40.8314010  31.7432810  17.7906550  39.7335130  28.0984260  16.9053500
  39.1044010  28.5669360  17.4539330  39.8482960  27.2533480  17.3399690
  48.2826700  14.1297450  32.6919960  48.1692150  14.4492060  33.5871480
  49.0996440  14.5309960  32.3957240  47.1884850  22.1489920   3.0554700
  47.1078900  21.2344530   2.7846410  46.7749270  22.6456990   2.3494410
  45.3202890  23.9268940   4.9363970  44.5444990  23.4469380   5.2262540
  45.9715820  23.2474590   4.7620130  39.3368720  24.2388750   5.8139730
  38.5053600  23.9837460   6.2136240  39.9449700  24.3099520   6.5497650
  39.3169980  28.2728840   6.0097750  39.6198020  27.3826580   5.8307970
  40.0613570  28.8299060   5.7820000  35.7093680  21.7996290   5.4821820
  36.2809790  21.0318490   5.4825460  35.7095220  22.0985050   4.5728430
  45.5673630  30.6187140   3.3367090  44.9485070  31.0744640   2.7661530
  46.4225410  30.7738600   2.9356790  44.7611880  26.6026130   4.9434130
  44.6920160  25.6616070   4.7823260  45.5231740  26.6927540   5.5156700
  36.9518550  17.2080650   7.2690750  36.7721390  16.3106400   7.5493510
  36.5498630  17.7552520   7.9437700  45.7917050  19.4096510   5.1703060
  46.1681870  18.5368390   5.0576730  45.6936560  19.7455210   4.2793500
  37.5705220  19.7041150   5.8773090  38.2515330  19.9679520   6.4960490
  37.2553270  18.8642020   6.2111100  41.7629790  20.7508510   4.9645680
  42.2708010  21.2489480   5.6050700  42.2943030  19.9743710   4.7885040
  40.0465890  15.3907070   9.2309100  40.0484330  15.9079460   8.4255000
  39.2170200  14.9137250   9.2079030  41.2968740  25.0302250   7.4082600
  40.9638120  25.6571170   8.0503670  41.4735420  25.5564130   6.6284270
  39.7281220  17.1017030   7.2379550  40.0698030  17.9459080   6.9433420
  38.7897030  17.2500770   7.3544890  40.5087840  26.9983050   9.2231780
  41.1261840  27.6734130   8.9416230  39.6480960  27.4071030   9.1319280
  43.4109110  14.5899300   3.5624140  43.7184090  14.0346190   2.8459640
  42.4809810  14.7243760   3.3797130  48.9624170  30.3066590   5.8531600
  48.9751330  29.9028880   4.9853860  48.4099390  31.0813880   5.7493030
  48.3609610  25.2096430   7.1814210  48.7778400  24.9956540   6.3467670
  49.0849430  25.4669220   7.7522830  49.2713720  20.3952970   8.2185320
  48.8584900  21.2206680   8.4725310  48.5389670  19.8098010   8.0261680
  41.4046510  23.1812870   3.0803990  41.0003510  22.4690120   2.5849890
  41.4909630  22.8366110   3.9692030  41.8728210  26.8680430   5.2443200
  41.5756500  26.2625900   4.5650980  42.8228030  26.9057740   5.1332560
  40.1175130  19.9556080   6.8603030  40.6689720  20.0651420   6.0856280
  40.6318640  20.3293680   7.5758260  40.9646640  26.6062120  11.8951000
  40.0675170  26.8302090  12.1424400  40.9899510  26.7297060  10.9462400
  39.7917860  23.4775440  10.4708370  39.6525630  24.3498240  10.8395770
  38.9099220  23.1348250  10.3256310  41.5898210  29.4197140  12.6793520
  41.5613640  29.8240090  11.8121950  41.4263180  28.4907500  12.5165120
  35.7436510  25.2472990   6.3879280  35.8216930  25.3821760   5.4435000
  36.3578190  24.5388880   6.5807400  36.9884140  26.9473180   2.7985460
  36.5812220  27.0887770   1.9439060  37.8797150  26.6633340   2.5956670
  46.8063020  31.0965090   9.7052510  47.3207690  31.0073100  10.5074940
  45.9632100  31.4424790   9.9980420  48.0493480  30.5170700   1.7683000
  48.5050430  29.7360080   2.0821620  48.3886000  31.2277520   2.3124180
  35.7996030  26.2887160   8.9273740  35.9627070  25.8192520   8.1093110
  36.2648480  25.7810720   9.5922580  40.5714800  15.4192920   3.9634310
  40.1282950  16.2002460   3.6318830  41.1299790  15.7422810   4.6705250
  44.8584610  18.2861440   9.5669630  44.3963980  18.4944460  10.3789570
  44.4562720  17.4720790   9.2640300  46.9538830  21.0072140  12.7965080
  47.2792240  20.1735890  12.4567310  47.7419160  21.5300660  12.9443410
  42.6090700  15.9640250   5.8223910  42.9063030  16.8703080   5.7415930
  43.1576260  15.4759030   5.2083480  42.8028230  21.4412070  12.3575830
  42.7071830  20.5006800  12.2076230  43.6460210  21.6627140  11.9623900
  37.9338770  17.8525740  10.5109610  37.5402160  18.7000950  10.7182390
  37.2457170  17.2152110  10.7018250  44.5083820  17.9360710  13.5806350
  43.8182140  17.7432910  14.2152440  45.2516120  18.2195350  14.1130650
  35.2355820  15.7754200   4.5439690  34.9468870  16.3457060   5.2564670
  35.9801580  15.2958650   4.9070920  46.7846790  21.7759150   6.4160270
  46.0527910  22.2845960   6.7650370  46.3871130  20.9589130   6.1149050
  43.2224180  18.4513350   4.8212760  43.2260240  18.0103300   3.9717300
  44.1175300  18.7730680   4.9284580  39.0726560  18.3339840   3.7806970
  38.7326610  18.8115070   4.5374020  38.3103880  17.8804960   3.4208070
  47.2472700  17.2292830   5.8283210  47.2645440  17.6801480   6.6725060
  46.9988280  16.3298470   6.0416650  37.3735010  25.6638590  11.0869550
  36.9889800  25.0232260  11.6852510  37.6847200  26.3674710  11.6564280
  43.5232150  22.5115130   6.5678170  43.8902280  22.0373700   7.3139510
  43.3337210  23.3856700   6.9086510  36.3872640  17.2558820   2.6971640
  36.1019560  16.8914490   3.5350260  36.3251500  16.5239280   2.0834780
  41.3131520  21.5523770   8.8862380  41.0088590  22.4315750   9.1112740
  42.2677980  21.6123560   8.9219820  45.9820090  24.8259180  11.1624620
  45.9157400  23.9054850  10.9082210  45.3525230  24.9234620  11.8769260
  39.8850710  25.4265140   3.1208040  40.4029380  24.6233400   3.0664930
  39.4334730  25.3644280   3.9624870  37.3695250  22.3926510  10.0333740
  37.0110190  23.0580360  10.6207080  37.0749810  21.5610060  10.4046360
  40.5708370  22.8510750  12.9173290  40.2708510  22.9967930  12.0201110
  41.3419610  22.2916040  12.8246680  45.9136820  27.6479750  10.9128420
  45.9281360  26.7160710  10.6947330  45.2061920  27.7339510  11.5518190
  47.6547620  26.0147260   3.7580850  48.0071440  25.4175390   3.0982220
  46.7709950  25.6891490   3.9289100  45.3470720  29.2897320   8.0068920
  45.9912940  29.4956700   8.6842340  45.7100160  28.5285720   7.5539770
  46.6202800  27.2929670   6.7246370  47.2625030  26.5922830   6.8378540
  47.1452150  28.0728110   6.5443260  48.3940420  28.0924570   9.9282430
  48.7296660  28.6791260  10.6060350  47.4740760  27.9617280  10.1580220
  35.9443820  15.8819750  10.7105840  35.2302340  16.0816670  11.3158450
  36.3638860  15.1059320  11.0820640  36.2316410  29.8700010  11.6972370
  36.3407530  28.9294750  11.5567760  35.5796970  30.1354760  11.0486100
  44.2229000  28.1415900  13.0970490  43.9025870  27.4225140  13.6416180
  43.5487360  28.8170970  13.1706550  47.4382600  18.3742060   8.4607290
  47.8063420  17.5537270   8.7886860  46.5780800  18.4343950   8.8762940
  44.3984590  21.0281650   8.6845260  44.8969840  21.5027470   9.3497110
  44.5407540  20.1045170   8.8915290  39.3716570  31.7522850   4.3206400
  40.1079050  31.2038310   4.5914970  39.7557490  32.6178860   4.1812390
  38.3774850  30.9368920  13.5091980  39.1787580  31.2580970  13.9227380
  37.8626670  30.5764500  14.2311890  47.2139480  27.0448790  13.4567390
  46.6077640  27.0680390  12.7163140  46.9093590  26.3131830  13.9934640
  48.6439850  30.7729080  12.0676800  49.5961600  30.6887100  12.0177040
  48.4968070  31.4370790  12.7410590  36.0972660  23.4242380  12.4528030
  36.6011680  22.8449660  13.0244260  35.3580080  23.7082610  12.9904400
  43.1510600  24.8313370  11.9863550  42.3856270  25.3998370  11.9018220
  43.3326560  24.5389580  11.0931780  38.1295740  21.5671970  13.3478100
  38.1701080  21.2685840  14.2563330  38.9841240  21.9679580  13.1885620
  40.0701550  20.1464070  11.3152590  39.5398010  19.6555020  10.6875930
  40.7389620  20.5748270  10.7810520  48.9679610  24.6133530  11.0793780
  49.3820630  24.7678610  11.9284200  48.0330610  24.7388750  11.2419560
  40.5573850  17.1126440  11.3949880  40.4630720  16.4947190  10.6700750
  39.9771240  17.8392730  11.1679790  43.3235290  15.6699680   8.4277270
  42.8752590  15.6923940   7.5822820  42.6900490  15.2718700   9.0247570
  43.7294840  24.5654010   9.0489710  44.1482950  25.4086740   8.8765950
  42.8103470  24.7026050   8.8196490  46.0658740  22.2970190  10.4327550
  46.1854950  21.7011330  11.1722390  46.9252740  22.3339880  10.0128850
  48.4046640  22.8507380   9.0090060  47.8781860  23.3750000   8.4055200
  48.7477980  23.4834770   9.6399790  41.5802260  30.8707020  10.1647440
  41.0423350  31.5953080   9.8456140  41.8336220  30.3937360   9.3744780
  42.8327510  18.8391540  11.6903370  43.4227200  18.5307390  12.3781190
  42.0147750  18.3671290  11.8463270  47.6520940  18.4557350  11.9236390
  46.9636460  17.7938890  11.8586380  48.3726960  18.0095620  12.3684850
  44.4364470  32.1058230  10.4234090  44.3623170  33.0093370  10.7306460
  43.5343310  31.7870130  10.3956160  35.8391760  29.4332820   3.7267710
  36.1694770  28.5653880   3.4946350  36.2682760  29.6391340   4.5572670
  36.3281970  30.3003410   6.4649340  35.8912960  30.4804210   7.2973490
  36.8959650  31.0578030   6.3231060  36.1606400  22.8123640   2.8238220
  35.5055240  22.5435280   2.1797920  36.9984350  22.7028120   2.3740200
  37.1982330  23.1976210   7.3641560  37.5655370  23.1103610   8.2437580
  36.6293150  22.4342760   7.2648420  36.7498330  20.1085300  11.2699980
  35.8554380  20.0752060  11.6093690  37.2895880  20.3072090  12.0351230
  37.2538040  14.3833630   5.6183200  37.9014230  13.8331010   5.1778360
  37.6739880  14.6376780   6.4399010  37.0070040  14.5389300   8.3608520
  36.6584860  14.9953120   9.1266700  36.6757740  13.6446430   8.4430950
  38.6134410  27.7108900  12.5261710  38.5704040  27.3401810  13.4076170
  38.7445420  28.6486470  12.6663530  42.3140440  29.2668490   8.1271430
  42.0731800  29.5343050   7.2401950  43.2543080  29.4374220   8.1822290
  44.5194860  15.7301180  11.8827940  44.4583750  16.3223010  12.6323350
  45.4595240  15.6227140  11.7378200  47.1569420  15.3871240  11.5220230
  47.7709830  15.7050530  10.8601310  47.7018980  14.9019830  12.1416090
  37.6790680  14.0665500  11.6359290  38.2273670  13.8853550  10.8725400
  37.7445990  13.2759610  12.1715600  38.4522440  30.6571150   9.6459490
  37.8582760  30.5255850  10.3849530  38.4446280  29.8209290   9.1801590
  47.8977460  13.9503380   7.8489520  47.0237300  14.2838490   7.6462450
  47.7888210  13.4776560   8.6741390  48.8049440  16.1574250   9.2331240
  48.4762800  15.3426010   8.8532970  49.7531740  16.1144060   9.1096930
  38.0834670  28.0229530   8.5967530  37.3568730  27.4034820   8.5293480
  38.1443820  28.4170140   7.7265610  41.6879770  30.2374530   5.3816940
  42.2044790  29.6261890   4.8565200  42.3377150  30.7403310   5.8727950
  44.4275270  31.1283020   6.2085920  44.7153080  30.8737320   5.3318930
  44.9398490  30.5760380   6.7991490  45.6452280  14.8673220   6.7882430
  44.8624070  15.3418720   7.0679190  45.3515210  13.9628050   6.6795610
  43.5306500  17.2859970   2.2998460  42.7181010  16.9116860   1.9594340
  44.0348140  16.5305050   2.6019650  48.0331480  13.9502420   3.5381530
  48.6360850  14.5222630   4.0130050  47.2924470  14.5141860   3.3155430
  44.4947630  32.0499120  13.5754120  45.4214940  31.8143390  13.6190080
  44.4798060  32.8771120  13.0940150  41.6811240  14.7143870  13.3396000
  41.3995510  15.2177470  12.5756820  42.0630940  13.9165620  12.9738130
  48.2826700  14.1297450  13.9176470  48.1692150  14.4492060  14.8127990
  49.0996440  14.5309960  13.6213750  47.1884850   3.3746430  40.6041680
  47.1078900   2.4601040  40.3333390  46.7749270   3.8713500  39.8981390
  45.3202890   5.1525450  42.4850950  44.5444990   4.6725890  42.7749520
  45.9715820   4.4731100  42.3107110  39.3368720   5.4645260  43.3626710
  38.5053600   5.2093970  43.7623220  39.9449700   5.5356030  44.0984630
  39.3169980   9.4985350  43.5584730  39.6198020   8.6083090  43.3794950
  40.0613570  10.0555570  43.3306980  35.7093680   3.0252800  43.0308800
  36.2809790   2.2575000  43.0312440  35.7095220   3.3241560  42.1215410
  45.5673630  11.8443650  40.8854070  44.9485070  12.3001150  40.3148510
  46.4225410  11.9995110  40.4843770  44.7611880   7.8282640  42.4921110
  44.6920160   6.8872580  42.3310240  45.5231740   7.9184050  43.0643680
  46.4336980   6.7282890  38.2785980  45.8154250   7.1932340  37.7148700
  46.9460230   7.4210370  38.6955490  35.8020180   7.4139420  35.6525610
  35.4248160   7.9026520  34.9210510  36.0593250   8.0864700  36.2832140
  48.9624170  11.5323100  43.4018580  48.9751330  11.1285390  42.5340840
  48.4099390  12.3070390  43.2980010  45.7989870   3.8804640  37.8471240
  44.8719150   3.8142020  38.0759710  45.9514690   4.8184770  37.7326480
  41.4046510   4.4069380  40.6290970  41.0003510   3.6946630  40.1336870
  41.4909630   4.0622620  41.5179010  41.8728210   8.0936940  42.7930180
  41.5756500   7.4882410  42.1137960  42.8228030   8.1314250  42.6819540
  48.0051860   4.6811750  35.3579240  48.4445140   3.8434180  35.2117060
  48.7180280   5.3141150  35.4443380  46.1147240   9.6207820  39.3260480
  46.5543150  10.3632150  38.9115870  46.0534130   9.8634390  40.2499440
  38.1051140   3.3014360  38.1297620  37.9848740   4.0276450  37.5178890
  37.7952030   2.5317270  37.6525530  35.7436510   6.4729500  43.9366260
  35.8216930   6.6078270  42.9921980  36.3578190   5.7645390  44.1294380
  36.9884140   8.1729690  40.3472440  36.5812220   8.3144280  39.4926040
  37.8797150   7.8889850  40.1443650  48.7817420  12.6076940  36.6823490
  48.6218560  12.3179880  37.5805320  48.6164130  11.8317070  36.1468720
  41.2605800  12.3875470  38.4595110  41.0848280  11.4711010  38.2462910
  40.4061540  12.7462760  38.6992910  48.4843550  10.1164500  35.2421490
  47.7908710  10.1141790  34.5823770  49.2266410   9.6923820  34.8115660
  48.0493480  11.7427210  39.3169980  48.5050430  10.9616590  39.6308600
  48.3886000  12.4534030  39.8611160  40.3629020   1.7683000  39.2402540
  40.1369940   1.5520170  40.1449160  39.5821550   2.2011460  38.8948510
  47.5926780   1.7746370  37.8393190  46.9935670   2.4982170  37.6556810
  48.1406390   1.7123150  37.0569640  46.7846790   3.0015660  43.9647250
  46.0527910   3.5102470  44.3137350  46.3871130   2.1845640  43.6636030
  42.2965830   2.9883080  34.7589800  41.7282730   2.5401330  34.1325710
  43.0054830   3.3475860  34.2254950  43.5232150   3.7371640  44.1165150
  43.8902280   3.2630210  44.8626490  43.3337210   4.6113210  44.4573490
  39.8413310   6.9841270  37.0316210  39.0675570   6.4438890  36.8714930
  40.5707940   6.4647880  36.6933970  39.8850710   6.6521650  40.6695020
  40.4029380   5.8489910  40.6151910  39.4334730   6.5900790  41.5111850
  44.7720210   7.9187930  35.9422320  45.1135910   8.6630160  35.4465640
  43.9432920   8.2319050  36.3047150  47.6547620   7.2403770  41.3067830
  48.0071440   6.6431900  40.6469200  46.7709950   6.9148000  41.4776080
  43.7410900   8.0001460  38.7138240  44.4282030   8.5470670  39.0945830
  42.9543320   8.5442190  38.7487850  35.8803300   3.6174280  34.2055320
  36.7498150   3.8999080  34.4891240  35.3893620   4.4310150  34.0904130
  43.0438110   5.0047490  38.3263600  43.5000890   5.8152740  38.5523790
  42.6926320   4.6870630  39.1582090  46.6202800   8.5186180  44.2733350
  47.2625030   7.8179340  44.3865520  47.1452150   9.2984620  44.0930240
  36.2474550  12.8301660  34.7716950  36.6072190  13.4291000  34.1174220
  36.1066890  13.3761550  35.5451980  42.2643170  10.2132860  35.5890620
  42.2553270  10.9462550  34.9735130  41.3441530   9.9664440  35.6817580
  37.8649810   5.4347750  36.3337380  37.2577760   6.1746650  36.3432680
  38.3399160   5.5247110  35.5075580  45.2502770  10.2761100  34.2515810
  45.3514750  10.0725090  33.3217790  44.3504510  10.0219380  34.4563590
  43.8920880  12.7947420  38.9463480  44.1462380  12.7568810  38.0242850
  42.9433360  12.6680750  38.9391730  39.8755100   5.3958900  34.0825950
  40.6418370   5.2840260  34.6451380  39.9529790   4.6996870  33.4302720
  38.5701860   2.8283970  34.7658840  38.6505450   1.8811480  34.8776240
  39.4621610   3.1590850  34.8719500  39.3716570  12.9779360  41.8693380
  40.1079050  12.4294820  42.1401950  39.7557490  13.8435370  41.7299370
  36.2562050   9.0452930  37.7434890  35.3301830   9.2874070  37.7340300
  36.7218480   9.8727190  37.6219640  42.4818880  12.1509670  33.6918950
  43.2747490  12.4398500  33.2400740  41.9623230  11.7201840  33.0131430
  42.9996280   7.3713080  33.5561300  42.8946920   6.7565430  34.2822680
  42.8320500   6.8478970  32.7724310  46.2399010   6.4333110  34.1603290
  45.6909110   6.8802410  34.8046030  46.8618270   5.9282360  34.6840960
  41.9074130   5.3924030  36.0568590  42.3290550   5.2263900  36.8999980
  42.0324970   4.5824260  35.5623730  44.4201770   4.4161640  33.3045690
  44.9407430   3.7010660  32.9386840  45.0670170   5.0547510  33.6046200
  44.9849800  12.4973250  35.5947430  45.8800590  12.8358220  35.6166190
  45.0167430  11.7752660  34.9671710  38.6245960   7.8700300  33.8234430
  39.0620830   8.4129970  34.4792010  39.1093690   7.0447250  33.8330770
  35.8391760  10.6589330  41.2754690  36.1694770   9.7910390  41.0433330
  36.2682760  10.8647850  42.1059650  40.4353680   8.9898340  38.9356660
  40.1349220   8.8663310  39.8360570  40.3291170   8.1306930  38.5272390
  36.3281970  11.5259920  44.0136320  35.8912960  11.7060720  44.8460470
  36.8959650  12.2834540  43.8718040  36.1606400   4.0380150  40.3725200
  35.5055240   3.7691790  39.7284900  36.9984350   3.9284630  39.9227180
  41.6879770  11.4631040  42.9303920  42.2044790  10.8518400  42.4052180
  42.3377150  11.9659820  43.4214930  44.4275270  12.3539530  43.7572900
  44.7153080  12.0993830  42.8805910  44.9398490  11.8016890  44.3478470
  36.3664670  12.5660430  39.3551270  36.1986710  11.9331110  40.0533160
  35.4999180  12.7719830  39.0045460  37.9727370  11.2593660  36.8001410
  37.4474990  11.6401690  36.0963370  37.8971950  11.8844430  37.5211120
  40.5720340  13.2076040  35.6750660  41.3039160  12.9235320  35.1274550
  40.8314010  12.9689320  36.5650040  39.7335130   9.3240770  35.6796990
  39.1044010   9.7925870  36.2282820  39.8482960   8.4789990  36.1143180
  47.1884850   3.3746430  21.8298190  47.1078900   2.4601040  21.5589900
  46.7749270   3.8713500  21.1237900  45.3202890   5.1525450  23.7107460
  44.5444990   4.6725890  24.0006030  45.9715820   4.4731100  23.5363620
  39.3368720   5.4645260  24.5883220  38.5053600   5.2093970  24.9879730
  39.9449700   5.5356030  25.3241140  39.3169980   9.4985350  24.7841240
  39.6198020   8.6083090  24.6051460  40.0613570  10.0555570  24.5563490
  35.7093680   3.0252800  24.2565310  36.2809790   2.2575000  24.2568950
  35.7095220   3.3241560  23.3471920  45.5673630  11.8443650  22.1110580
  44.9485070  12.3001150  21.5405020  46.4225410  11.9995110  21.7100280
  44.7611880   7.8282640  23.7177620  44.6920160   6.8872580  23.5566750
  45.5231740   7.9184050  24.2900190  46.4336980   6.7282890  19.5042490
  45.8154250   7.1932340  18.9405210  46.9460230   7.4210370  19.9212000
  41.2968740   6.2558760  26.1826090  40.9638120   6.8827680  26.8247160
  41.4735420   6.7820640  25.4027760  40.5087840   8.2239560  27.9975270
  41.1261840   8.8990640  27.7159720  39.6480960   8.6327540  27.9062770
  35.8020180   7.4139420  16.8782120  35.4248160   7.9026520  16.1467020
  36.0593250   8.0864700  17.5088650  48.9624170  11.5323100  24.6275090
  48.9751330  11.1285390  23.7597350  48.4099390  12.3070390  24.5236520
  48.3609610   6.4352940  25.9557700  48.7778400   6.2213050  25.1211160
  49.0849430   6.6925730  26.5266320  45.7989870   3.8804640  19.0727750
  44.8719150   3.8142020  19.3016220  45.9514690   4.8184770  18.9582990
  41.4046510   4.4069380  21.8547480  41.0003510   3.6946630  21.3593380
  41.4909630   4.0622620  22.7435520  41.8728210   8.0936940  24.0186690
  41.5756500   7.4882410  23.3394470  42.8228030   8.1314250  23.9076050
  40.9646640   7.8318630  30.6694490  40.0675170   8.0558600  30.9167890
  40.9899510   7.9553570  29.7205890  48.0051860   4.6811750  16.5835750
  48.4445140   3.8434180  16.4373570  48.7180280   5.3141150  16.6699890
  39.7917860   4.7031950  29.2451860  39.6525630   5.5754750  29.6139260
  38.9099220   4.3604760  29.0999800  46.1147240   9.6207820  20.5516990
  46.5543150  10.3632150  20.1372380  46.0534130   9.8634390  21.4755950
  41.5898210  10.6453650  31.4537010  41.5613640  11.0496600  30.5865440
  41.4263180   9.7164010  31.2908610  38.1051140   3.3014360  19.3554130
  37.9848740   4.0276450  18.7435400  37.7952030   2.5317270  18.8782040
  35.7436510   6.4729500  25.1622770  35.8216930   6.6078270  24.2178490
  36.3578190   5.7645390  25.3550890  36.9884140   8.1729690  21.5728950
  36.5812220   8.3144280  20.7182550  37.8797150   7.8889850  21.3700160
  46.8063020  12.3221600  28.4796000  47.3207690  12.2329610  29.2818430
  45.9632100  12.6681300  28.7723910  48.7817420  12.6076940  17.9080000
  48.6218560  12.3179880  18.8061830  48.6164130  11.8317070  17.3725230
  41.2605800  12.3875470  19.6851620  41.0848280  11.4711010  19.4719420
  40.4061540  12.7462760  19.9249420  48.4843550  10.1164500  16.4678000
  47.7908710  10.1141790  15.8080280  49.2266410   9.6923820  16.0372170
  48.0493480  11.7427210  20.5426490  48.5050430  10.9616590  20.8565110
  48.3886000  12.4534030  21.0867670  35.7996030   7.5143670  27.7017230
  35.9627070   7.0449030  26.8836600  36.2648480   7.0067230  28.3666070
  46.9538830   2.2328650  31.5708570  47.2792240   1.3992400  31.2310800
  47.7419160   2.7557170  31.7186900  40.3629020   1.7683000  20.4659050
  40.1369940   1.5520170  21.3705670  39.5821550   2.2011460  20.1205020
  47.5926780   1.7746370  19.0649700  46.9935670   2.4982170  18.8813320
  48.1406390   1.7123150  18.2826150  42.8028230   2.6668580  31.1319320
  42.7071830   1.7263310  30.9819720  43.6460210   2.8883650  30.7367390
  46.7846790   3.0015660  25.1903760  46.0527910   3.5102470  25.5393860
  46.3871130   2.1845640  24.8892540  42.2965830   2.9883080  15.9846310
  41.7282730   2.5401330  15.3582220  43.0054830   3.3475860  15.4511460
  37.3735010   6.8895100  29.8613040  36.9889800   6.2488770  30.4596000
  37.6847200   7.5931220  30.4307770  43.5232150   3.7371640  25.3421660
  43.8902280   3.2630210  26.0883000  43.3337210   4.6113210  25.6830000
  41.3131520   2.7780280  27.6605870  41.0088590   3.6572260  27.8856230
  42.2677980   2.8380070  27.6963310  39.8413310   6.9841270  18.2572720
  39.0675570   6.4438890  18.0971440  40.5707940   6.4647880  17.9190480
  45.9820090   6.0515690  29.9368110  45.9157400   5.1311360  29.6825700
  45.3525230   6.1491130  30.6512750  39.8850710   6.6521650  21.8951530
  40.4029380   5.8489910  21.8408420  39.4334730   6.5900790  22.7368360
  44.7720210   7.9187930  17.1678830  45.1135910   8.6630160  16.6722150
  43.9432920   8.2319050  17.5303660  37.3695250   3.6183020  28.8077230
  37.0110190   4.2836870  29.3950570  37.0749810   2.7866570  29.1789850
  40.5708370   4.0767260  31.6916780  40.2708510   4.2224440  30.7944600
  41.3419610   3.5172550  31.5990170  45.9136820   8.8736260  29.6871910
  45.9281360   7.9417220  29.4690820  45.2061920   8.9596020  30.3261680
  47.6547620   7.2403770  22.5324340  48.0071440   6.6431900  21.8725710
  46.7709950   6.9148000  22.7032590  43.7410900   8.0001460  19.9394750
  44.4282030   8.5470670  20.3202340  42.9543320   8.5442190  19.9744360
  35.8803300   3.6174280  15.4311830  36.7498150   3.8999080  15.7147750
  35.3893620   4.4310150  15.3160640  43.0438110   5.0047490  19.5520110
  43.5000890   5.8152740  19.7780300  42.6926320   4.6870630  20.3838600
  45.3470720  10.5153830  26.7812410  45.9912940  10.7213210  27.4585830
  45.7100160   9.7542230  26.3283260  46.6202800   8.5186180  25.4989860
  47.2625030   7.8179340  25.6122030  47.1452150   9.2984620  25.3186750
  48.3940420   9.3181080  28.7025920  48.7296660   9.9047770  29.3803840
  47.4740760   9.1873790  28.9323710  36.2474550  12.8301660  15.9973460
  36.6072190  13.4291000  15.3430730  36.1066890  13.3761550  16.7708490
  36.2316410  11.0956520  30.4715860  36.3407530  10.1551260  30.3311250
  35.5796970  11.3611270  29.8229590  44.2229000   9.3672410  31.8713980
  43.9025870   8.6481650  32.4159670  43.5487360  10.0427480  31.9450040
  42.2643170  10.2132860  16.8147130  42.2553270  10.9462550  16.1991640
  41.3441530   9.9664440  16.9074090  37.8649810   5.4347750  17.5593890
  37.2577760   6.1746650  17.5689190  38.3399160   5.5247110  16.7332090
  45.2502770  10.2761100  15.4772320  45.3514750  10.0725090  14.5474300
  44.3504510  10.0219380  15.6820100  43.8920880  12.7947420  20.1719990
  44.1462380  12.7568810  19.2499360  42.9433360  12.6680750  20.1648240
  39.8755100   5.3958900  15.3082460  40.6418370   5.2840260  15.8707890
  39.9529790   4.6996870  14.6559230  38.5701860   2.8283970  15.9915350
  38.6505450   1.8811480  16.1032750  39.4621610   3.1590850  16.0976010
  39.3716570  12.9779360  23.0949890  40.1079050  12.4294820  23.3658460
  39.7557490  13.8435370  22.9555880  36.2562050   9.0452930  18.9691400
  35.3301830   9.2874070  18.9596810  36.7218480   9.8727190  18.8476150
  38.3774850  12.1625430  32.2835470  39.1787580  12.4837480  32.6970870
  37.8626670  11.8021010  33.0055380  42.4818880  12.1509670  14.9175460
  43.2747490  12.4398500  14.4657250  41.9623230  11.7201840  14.2387940
  47.2139480   8.2705300  32.2310880  46.6077640   8.2936900  31.4906630
  46.9093590   7.5388340  32.7678130  48.6439850  11.9985590  30.8420290
  49.5961600  11.9143610  30.7920530  48.4968070  12.6627300  31.5154080
  36.0972660   4.6498890  31.2271520  36.6011680   4.0706170  31.7987750
  35.3580080   4.9339120  31.7647890  42.9996280   7.3713080  14.7817810
  42.8946920   6.7565430  15.5079190  42.8320500   6.8478970  13.9980820
  43.1510600   6.0569880  30.7607040  42.3856270   6.6254880  30.6761710
  43.3326560   5.7646090  29.8675270  46.2399010   6.4333110  15.3859800
  45.6909110   6.8802410  16.0302540  46.8618270   5.9282360  15.9097470
  38.1295740   2.7928480  32.1221590  38.1701080   2.4942350  33.0306820
  38.9841240   3.1936090  31.9629110  41.9074130   5.3924030  17.2825100
  42.3290550   5.2263900  18.1256490  42.0324970   4.5824260  16.7880240
  44.4201770   4.4161640  14.5302200  44.9407430   3.7010660  14.1643350
  45.0670170   5.0547510  14.8302710  48.9679610   5.8390040  29.8537270
  49.3820630   5.9935120  30.7027690  48.0330610   5.9645260  30.0163050
  43.7294840   5.7910520  27.8233200  44.1482950   6.6343250  27.6509440
  42.8103470   5.9282560  27.5939980  46.0658740   3.5226700  29.2071040
  46.1854950   2.9267840  29.9465880  46.9252740   3.5596390  28.7872340
  48.4046640   4.0763890  27.7833550  47.8781860   4.6006510  27.1798690
  48.7477980   4.7091280  28.4143280  41.5802260  12.0963530  28.9390930
  41.0423350  12.8209590  28.6199630  41.8336220  11.6193870  28.1488270
  44.4364470  13.3314740  29.1977580  44.3623170  14.2349880  29.5049950
  43.5343310  13.0126640  29.1699650  44.9849800  12.4973250  16.8203940
  45.8800590  12.8358220  16.8422700  45.0167430  11.7752660  16.1928220
  38.6245960   7.8700300  15.0490940  39.0620830   8.4129970  15.7048520
  39.1093690   7.0447250  15.0587280  35.8391760  10.6589330  22.5011200
  36.1694770   9.7910390  22.2689840  36.2682760  10.8647850  23.3316160
  40.4353680   8.9898340  20.1613170  40.1349220   8.8663310  21.0617080
  40.3291170   8.1306930  19.7528900  36.3281970  11.5259920  25.2392830
  35.8912960  11.7060720  26.0716980  36.8959650  12.2834540  25.0974550
  36.1606400   4.0380150  21.5981710  35.5055240   3.7691790  20.9541410
  36.9984350   3.9284630  21.1483690  37.1982330   4.4232720  26.1385050
  37.5655370   4.3360120  27.0181070  36.6293150   3.6599270  26.0391910
  38.6134410   8.9365410  31.3005200  38.5704040   8.5658320  32.1819660
  38.7445420   9.8742980  31.4407020  42.3140440  10.4925000  26.9014920
  42.0731800  10.7599560  26.0145440  43.2543080  10.6630730  26.9565780
  38.4522440  11.8827660  28.4202980  37.8582760  11.7512360  29.1593020
  38.4446280  11.0465800  27.9545080  38.0834670   9.2486040  27.3711020
  37.3568730   8.6291330  27.3036970  38.1443820   9.6426650  26.5009100
  41.6879770  11.4631040  24.1560430  42.2044790  10.8518400  23.6308690
  42.3377150  11.9659820  24.6471440  44.4275270  12.3539530  24.9829410
  44.7153080  12.0993830  24.1062420  44.9398490  11.8016890  25.5734980
  36.3664670  12.5660430  20.5807780  36.1986710  11.9331110  21.2789670
  35.4999180  12.7719830  20.2301970  37.9727370  11.2593660  18.0257920
  37.4474990  11.6401690  17.3219880  37.8971950  11.8844430  18.7467630
  44.4947630  13.2755630  32.3497610  45.4214940  13.0399900  32.3933570
  44.4798060  14.1027630  31.8683640  40.5720340  13.2076040  16.9007170
  41.3039160  12.9235320  16.3531060  40.8314010  12.9689320  17.7906550
  39.7335130   9.3240770  16.9053500  39.1044010   9.7925870  17.4539330
  39.8482960   8.4789990  17.3399690  47.1884850   3.3746430   3.0554700
  47.1078900   2.4601040   2.7846410  46.7749270   3.8713500   2.3494410
  45.3202890   5.1525450   4.9363970  44.5444990   4.6725890   5.2262540
  45.9715820   4.4731100   4.7620130  39.3368720   5.4645260   5.8139730
  38.5053600   5.2093970   6.2136240  39.9449700   5.5356030   6.5497650
  39.3169980   9.4985350   6.0097750  39.6198020   8.6083090   5.8307970
  40.0613570  10.0555570   5.7820000  35.7093680   3.0252800   5.4821820
  36.2809790   2.2575000   5.4825460  35.7095220   3.3241560   4.5728430
  45.5673630  11.8443650   3.3367090  44.9485070  12.3001150   2.7661530
  46.4225410  11.9995110   2.9356790  44.7611880   7.8282640   4.9434130
  44.6920160   6.8872580   4.7823260  45.5231740   7.9184050   5.5156700
  41.2968740   6.2558760   7.4082600  40.9638120   6.8827680   8.0503670
  41.4735420   6.7820640   6.6284270  40.5087840   8.2239560   9.2231780
  41.1261840   8.8990640   8.9416230  39.6480960   8.6327540   9.1319280
  48.9624170  11.5323100   5.8531600  48.9751330  11.1285390   4.9853860
  48.4099390  12.3070390   5.7493030  48.3609610   6.4352940   7.1814210
  48.7778400   6.2213050   6.3467670  49.0849430   6.6925730   7.7522830
  41.4046510   4.4069380   3.0803990  41.0003510   3.6946630   2.5849890
  41.4909630   4.0622620   3.9692030  41.8728210   8.0936940   5.2443200
  41.5756500   7.4882410   4.5650980  42.8228030   8.1314250   5.1332560
  40.9646640   7.8318630  11.8951000  40.0675170   8.0558600  12.1424400
  40.9899510   7.9553570  10.9462400  39.7917860   4.7031950  10.4708370
  39.6525630   5.5754750  10.8395770  38.9099220   4.3604760  10.3256310
  41.5898210  10.6453650  12.6793520  41.5613640  11.0496600  11.8121950
  41.4263180   9.7164010  12.5165120  35.7436510   6.4729500   6.3879280
  35.8216930   6.6078270   5.4435000  36.3578190   5.7645390   6.5807400
  36.9884140   8.1729690   2.7985460  36.5812220   8.3144280   1.9439060
  37.8797150   7.8889850   2.5956670  46.8063020  12.3221600   9.7052510
  47.3207690  12.2329610  10.5074940  45.9632100  12.6681300   9.9980420
  48.0493480  11.7427210   1.7683000  48.5050430  10.9616590   2.0821620
  48.3886000  12.4534030   2.3124180  35.7996030   7.5143670   8.9273740
  35.9627070   7.0449030   8.1093110  36.2648480   7.0067230   9.5922580
  46.9538830   2.2328650  12.7965080  47.2792240   1.3992400  12.4567310
  47.7419160   2.7557170  12.9443410  42.8028230   2.6668580  12.3575830
  42.7071830   1.7263310  12.2076230  43.6460210   2.8883650  11.9623900
  46.7846790   3.0015660   6.4160270  46.0527910   3.5102470   6.7650370
  46.3871130   2.1845640   6.1149050  37.3735010   6.8895100  11.0869550
  36.9889800   6.2488770  11.6852510  37.6847200   7.5931220  11.6564280
  43.5232150   3.7371640   6.5678170  43.8902280   3.2630210   7.3139510
  43.3337210   4.6113210   6.9086510  41.3131520   2.7780280   8.8862380
  41.0088590   3.6572260   9.1112740  42.2677980   2.8380070   8.9219820
  45.9820090   6.0515690  11.1624620  45.9157400   5.1311360  10.9082210
  45.3525230   6.1491130  11.8769260  39.8850710   6.6521650   3.1208040
  40.4029380   5.8489910   3.0664930  39.4334730   6.5900790   3.9624870
  37.3695250   3.6183020  10.0333740  37.0110190   4.2836870  10.6207080
  37.0749810   2.7866570  10.4046360  40.5708370   4.0767260  12.9173290
  40.2708510   4.2224440  12.0201110  41.3419610   3.5172550  12.8246680
  45.9136820   8.8736260  10.9128420  45.9281360   7.9417220  10.6947330
  45.2061920   8.9596020  11.5518190  47.6547620   7.2403770   3.7580850
  48.0071440   6.6431900   3.0982220  46.7709950   6.9148000   3.9289100
  45.3470720  10.5153830   8.0068920  45.9912940  10.7213210   8.6842340
  45.7100160   9.7542230   7.5539770  46.6202800   8.5186180   6.7246370
  47.2625030   7.8179340   6.8378540  47.1452150   9.2984620   6.5443260
  48.3940420   9.3181080   9.9282430  48.7296660   9.9047770  10.6060350
  47.4740760   9.1873790  10.1580220  36.2316410  11.0956520  11.6972370
  36.3407530  10.1551260  11.5567760  35.5796970  11.3611270  11.0486100
  44.2229000   9.3672410  13.0970490  43.9025870   8.6481650  13.6416180
  43.5487360  10.0427480  13.1706550  39.3716570  12.9779360   4.3206400
  40.1079050  12.4294820   4.5914970  39.7557490  13.8435370   4.1812390
  38.3774850  12.1625430  13.5091980  39.1787580  12.4837480  13.9227380
  37.8626670  11.8021010  14.2311890  47.2139480   8.2705300  13.4567390
  46.6077640   8.2936900  12.7163140  46.9093590   7.5388340  13.9934640
  48.6439850  11.9985590  12.0676800  49.5961600  11.9143610  12.0177040
  48.4968070  12.6627300  12.7410590  36.0972660   4.6498890  12.4528030
  36.6011680   4.0706170  13.0244260  35.3580080   4.9339120  12.9904400
  43.1510600   6.0569880  11.9863550  42.3856270   6.6254880  11.9018220
  43.3326560   5.7646090  11.0931780  38.1295740   2.7928480  13.3478100
  38.1701080   2.4942350  14.2563330  38.9841240   3.1936090  13.1885620
  48.9679610   5.8390040  11.0793780  49.3820630   5.9935120  11.9284200
  48.0330610   5.9645260  11.2419560  43.7294840   5.7910520   9.0489710
  44.1482950   6.6343250   8.8765950  42.8103470   5.9282560   8.8196490
  46.0658740   3.5226700  10.4327550  46.1854950   2.9267840  11.1722390
  46.9252740   3.5596390  10.0128850  48.4046640   4.0763890   9.0090060
  47.8781860   4.6006510   8.4055200  48.7477980   4.7091280   9.6399790
  41.5802260  12.0963530  10.1647440  41.0423350  12.8209590   9.8456140
  41.8336220  11.6193870   9.3744780  44.4364470  13.3314740  10.4234090
  44.3623170  14.2349880  10.7306460  43.5343310  13.0126640  10.3956160
  35.8391760  10.6589330   3.7267710  36.1694770   9.7910390   3.4946350
  36.2682760  10.8647850   4.5572670  36.3281970  11.5259920   6.4649340
  35.8912960  11.7060720   7.2973490  36.8959650  12.2834540   6.3231060
  36.1606400   4.0380150   2.8238220  35.5055240   3.7691790   2.1797920
  36.9984350   3.9284630   2.3740200  37.1982330   4.4232720   7.3641560
  37.5655370   4.3360120   8.2437580  36.6293150   3.6599270   7.2648420
  38.6134410   8.9365410  12.5261710  38.5704040   8.5658320  13.4076170
  38.7445420   9.8742980  12.6663530  42.3140440  10.4925000   8.1271430
  42.0731800  10.7599560   7.2401950  43.2543080  10.6630730   8.1822290
  38.4522440  11.8827660   9.6459490  37.8582760  11.7512360  10.3849530
  38.4446280  11.0465800   9.1801590  38.0834670   9.2486040   8.5967530
  37.3568730   8.6291330   8.5293480  38.1443820   9.6426650   7.7265610
  41.6879770  11.4631040   5.3816940  42.2044790  10.8518400   4.8565200
  42.3377150  11.9659820   5.8727950  44.4275270  12.3539530   6.2085920
  44.7153080  12.0993830   5.3318930  44.9398490  11.8016890   6.7991490
  44.4947630  13.2755630  13.5754120  45.4214940  13.0399900  13.6190080
  44.4798060  14.1027630  13.0940150  28.4141360  40.9233410  40.6041680
  28.3335410  40.0088020  40.3333390  28.0005780  41.4200480  39.8981390
  26.5459400  42.7012430  42.4850950  25.7701500  42.2212870  42.7749520
  27.1972330  42.0218080  42.3107110  20.5625230  43.0132240  43.3626710
  19.7310110  42.7580950  43.7623220  21.1706210  43.0843010  44.0984630
  18.9717180  37.9734130  37.1469100  18.0833880  38.3150100  37.0448980
  19.2558370  37.7734450  36.2549930  16.9350190  40.5739780  43.0308800
  17.5066300  39.8061980  43.0312440  16.9351730  40.8728540  42.1215410
  27.0173560  38.1840000  42.7190040  27.3938380  37.3111880  42.6063710
  26.9193070  38.5198700  41.8280480  21.1478570  36.5565630  38.1807480
  21.2545320  37.4569360  38.4876240  20.2370930  36.5083600  37.8902130
  30.7997680  35.6790440  39.6518380  31.6207300  35.1887010  39.6943860
  30.8331760  36.2688100  40.4050220  18.7961730  38.4784640  43.4260070
  19.4771840  38.7423010  44.0447470  18.4809780  37.6385510  43.7598080
  22.9886300  39.5252000  42.5132660  23.4964520  40.0232970  43.1537680
  23.5199540  38.7487200  42.3372020  31.0359160  37.6190820  42.4245920
  30.3314730  37.9075710  43.0049030  31.3971320  38.4290930  42.0645480
  20.9537730  35.8760520  44.7866530  21.2954540  36.7202570  44.4920400
  20.0153540  36.0244260  44.9031870  34.1046080  37.0645610  42.8155130
  33.1570990  37.0984590  42.9470560  34.4296070  37.8784560  43.2004490
  24.6365620  33.3642790  41.1111120  24.9440600  32.8089680  40.3946620
  23.7066320  33.4987250  40.9284110  27.0246380  41.4291620  37.8471240
  26.0975660  41.3629000  38.0759710  27.1771200  42.3671750  37.7326480
  27.0115460  37.7008620  34.8438400  26.0719130  37.8622580  34.9290860
  27.3298720  38.4194300  34.2974390  33.5328220  42.3827140  44.8217430
  32.7046850  42.4520230  44.3467560  34.1278700  42.9681450  44.3533260
  31.0543670  42.9911920  38.3506490  30.4356090  42.6531470  37.7032790
  31.0368120  42.3471680  39.0585680  22.6303020  41.9556360  40.6290970
  22.2260020  41.2433610  40.1336870  22.7166140  41.6109600  41.5179010
  21.3431640  38.7299570  44.4090010  21.8946230  38.8394910  43.6343260
  21.8575150  39.1037170  45.1245240  29.2308370  42.2298730  35.3579240
  29.6701650  41.3921160  35.2117060  29.9436790  42.8628130  35.4443380
  32.8125510  33.4841540  33.6720280  32.4998170  33.5768370  34.5719350
  33.5737980  34.0622570  33.6217710  19.3307650  40.8501340  38.1297620
  19.2105250  41.5763430  37.5178890  19.0208540  40.0804250  37.6525530
  16.9693020  44.0216480  43.9366260  17.0473440  44.1565250  42.9921980
  17.5834700  43.3132370  44.1294380  21.7971310  34.1936410  41.5121290
  21.3539460  34.9745950  41.1805810  22.3556300  34.5166300  42.2192230
  24.9130130  33.8147110  36.3927120  24.2884310  33.8106980  37.1180430
  24.8260250  32.9478070  35.9963090  23.8347210  34.7383740  43.3710890
  24.1319540  35.6446570  43.2902910  24.3832770  34.2502520  42.7570460
  21.5885530  39.3169980  39.2402540  21.3626450  39.1007150  40.1449160
  20.8078060  39.7498440  38.8948510  28.8183290  39.3233350  37.8393190
  28.2192180  40.0469150  37.6556810  29.3662900  39.2610130  37.0569640
  27.4248160  37.9596890  39.8696470  27.8177730  38.2769090  39.0565160
  27.7865010  37.0808770  39.9840990  16.4612330  34.5497690  42.0926670
  16.1725380  35.1200550  42.8051650  17.2058090  34.0702140  42.4557900
  16.6482560  38.4917810  33.3029390  16.5657230  39.4348570  33.4444380
  16.2965620  38.3492720  32.4241740  28.0103300  40.5502640  43.9647250
  27.2784420  41.0589450  44.3137350  27.6127640  39.7332620  43.6636030
  24.4480690  37.2256840  42.3699740  24.4516750  36.7846790  41.5204280
  25.3431810  37.5474170  42.4771560  20.2983070  37.1083330  41.3293950
  19.9583120  37.5858560  42.0861000  19.5360390  36.6548450  40.9695050
  24.5100840  38.2268920  35.3606500  24.6313660  38.1855400  36.3092320
  24.1249350  39.0893070  35.2053230  28.4729210  36.0036320  43.3770190
  28.4901950  36.4544970  44.2212040  28.2244790  35.1041960  43.5903630
  23.5222340  40.5370060  34.7589800  22.9539240  40.0888310  34.1325710
  24.2311340  40.8962840  34.2254950  24.7488660  41.2858620  44.1165150
  25.1158790  40.8117190  44.8626490  24.5593720  42.1600190  44.4573490
  17.6129150  36.0302310  40.2458620  17.3276070  35.6657980  41.0837240
  17.5508010  35.2982770  39.6321760  31.8257800  43.5293610  42.8242600
  32.5456920  44.0248900  42.4338710  31.6239620  42.8511500  42.1796470
  27.2867740  34.9231570  36.9671990  26.4732350  34.4244740  36.8917300
  27.0929690  35.7629820  36.5508340  30.0016130  39.2951220  35.2634150
  30.8895750  39.6068450  35.0885490  29.9721220  38.4223470  34.8714730
  21.1107220  44.2008630  40.6695020  21.6285890  43.3976890  40.6151910
  20.6591240  44.1387770  41.5111850  32.2730400  40.6063060  34.7314010
  32.1894120  41.0377280  33.8810450  32.9924590  41.0661410  35.1640830
  17.1059810  41.1661260  34.2055320  17.9754660  41.4486060  34.4891240
  16.6150130  41.9797130  34.0904130  24.2694620  42.5534470  38.3263600
  24.7257400  43.3639720  38.5523790  23.9182830  42.2357610  39.1582090
  20.1706400  32.8972120  38.7986120  20.0421030  32.8890020  39.7471040
  19.3468420  33.2355210  38.4477130  19.0906320  42.9834730  36.3337380
  18.4834270  43.7233630  36.3432680  19.5655670  43.0734090  35.5075580
  32.0301140  36.1042490  36.8181830  31.4014300  36.2088160  36.1040060
  31.5353060  36.3239270  37.6075710  23.9985170  38.3828440  38.2339710
  23.2901320  38.8514780  38.6753320  24.2829650  37.7250450  38.8684900
  28.0300600  35.1079100  39.6735500  27.9068380  35.1265230  38.7245010
  28.9785160  35.1558040  39.7933900  22.2020190  36.6913520  35.6090420
  23.0510720  37.1283670  35.5430610  21.8351460  37.0033780  36.4362480
  31.1229970  41.2626280  40.5221990  30.1820110  41.2776510  40.6969680
  31.4374040  40.4762240  40.9682290  21.1011610  42.9445880  34.0825950
  21.8674880  42.8327240  34.6451380  21.1786300  42.2483850  33.4302720
  19.7958370  40.3770950  34.7658840  19.8761960  39.4298460  34.8776240
  20.6878120  40.7077830  34.8719500  27.4655520  43.9820090  34.1603290
  26.9165620  44.4289390  34.8046030  28.0874780  43.4769340  34.6840960
  23.1330640  42.9411010  36.0568590  23.5547060  42.7750880  36.8999980
  23.2581480  42.1311240  35.5623730  25.6458280  41.9648620  33.3045690
  26.1663940  41.2497640  32.9386840  26.2926680  42.6034490  33.6046200
  22.0289540  39.0144240  33.0026750  21.8278600  38.1511600  33.3640090
  21.8581590  38.9277600  32.0648350  29.5077850  33.8252470  35.5313630
  29.7880140  32.9820370  35.8873050  28.7343580  34.0575580  36.0452380
  20.8272340  36.1144860  32.9904630  21.1298240  36.1212290  32.0823780
  21.5666930  35.7642720  33.4872290  24.0457270  35.0579480  33.9760830
  23.6979270  34.3803470  33.3963280  24.2470040  34.5968990  34.7904220
  33.8858570  43.0629200  36.1417540  34.6477480  43.6325850  36.2477230
  33.9012940  42.4956400  36.9125850  17.3862910  41.5867130  40.3725200
  16.7311750  41.3178770  39.7284900  18.2240860  41.4771610  39.9227180
  33.9377740  43.3563570  33.2990060  34.2126580  44.2642450  33.1709280
  33.7488480  43.2926100  34.2352050  30.3353350  36.3808420  34.5943690
  30.7538230  36.1939400  33.7540350  30.0289410  35.5287470  34.9046620
  33.8343080  41.2932560  38.2919490  33.4586680  40.5260490  37.8600780
  33.1046200  41.6755260  38.7794420  16.6000990  38.7966060  36.3150530
  15.6965070  39.0596260  36.1402190  17.0841610  39.0677230  35.5350490
  33.1094040  39.5190050  41.5926730  33.6331520  39.0252700  40.9616900
  33.6953460  39.6540410  42.3374300  19.1428200  37.8531600  34.2244910
  19.8519900  37.4314820  33.7392190  18.4268140  37.9206830  33.5928260
  18.7902360  33.9070930  33.2647560  19.5130490  34.4479870  33.5828780
  19.0626880  33.6334350  32.3889100  32.5994010  38.7763400  37.5319140
  33.0953130  38.5434270  38.3168020  32.4010080  37.9375240  37.1156780
  18.4794550  33.1577120  43.1670180  19.1270740  32.6074500  42.7265340
  18.8996390  33.4120270  43.9885990  34.0281170  37.4124350  40.0656820
  33.9180450  37.2580390  41.0039090  34.7888760  36.8845290  39.8232230
  34.9171440  35.2432270  33.3062960  35.8420750  35.1113450  33.0981250
  34.8947230  35.3225090  34.2599410  34.9909930  36.0142930  35.9319670
  34.1961430  35.9488050  36.4612580  35.1953210  36.9493570  35.9205020
  26.8708790  33.6416710  44.3369410  26.0880580  34.1162210  44.6166170
  26.5771720  32.7371540  44.2282590  31.4229860  34.3439810  42.3818500
  31.8637950  34.2884910  41.5340100  31.1537450  35.2597820  42.4528680
  33.2868430  33.9755050  40.3927320  33.2256830  33.0316270  40.2458340
  34.0660460  34.0835140  40.9380780  18.2149200  33.9464190  36.8583130
  18.9728560  34.0593070  36.2847160  17.7526370  34.7833390  36.8126560
  24.7563010  36.0603460  39.8485440  23.9437520  35.6860350  39.5081320
  25.2604650  35.3048540  40.1506630  29.2587990  32.7245910  41.0868510
  29.8617360  33.2966120  41.5617030  28.5180980  33.2885350  40.8642410
  32.4022590  33.1267470  36.3608790  32.5973220  34.0250920  36.6276220
  31.6152460  32.8954550  36.8541740  20.5874350  34.4728240  35.3985100
  21.1167110  33.6858040  35.2693050  21.2202670  35.1519430  35.6320630
  22.7812190  34.2103380  38.4530490  22.1514930  33.5090690  38.6200620
  22.2417330  34.9707510  38.2363650  28.4141360  40.9233410  21.8298190
  28.3335410  40.0088020  21.5589900  28.0005780  41.4200480  21.1237900
  26.5459400  42.7012430  23.7107460  25.7701500  42.2212870  24.0006030
  27.1972330  42.0218080  23.5363620  20.5625230  43.0132240  24.5883220
  19.7310110  42.7580950  24.9879730  21.1706210  43.0843010  25.3241140
  18.9717180  37.9734130  18.3725610  18.0833880  38.3150100  18.2705490
  19.2558370  37.7734450  17.4806440  16.9350190  40.5739780  24.2565310
  17.5066300  39.8061980  24.2568950  16.9351730  40.8728540  23.3471920
  18.1775060  35.9824140  26.0434240  17.9977900  35.0849890  26.3237000
  17.7755140  36.5296010  26.7181190  27.0173560  38.1840000  23.9446550
  27.3938380  37.3111880  23.8320220  26.9193070  38.5198700  23.0536990
  21.1478570  36.5565630  19.4063990  21.2545320  37.4569360  19.7132750
  20.2370930  36.5083600  19.1158640  30.7997680  35.6790440  20.8774890
  31.6207300  35.1887010  20.9200370  30.8331760  36.2688100  21.6306730
  18.7961730  38.4784640  24.6516580  19.4771840  38.7423010  25.2703980
  18.4809780  37.6385510  24.9854590  22.9886300  39.5252000  23.7389170
  23.4964520  40.0232970  24.3794190  23.5199540  38.7487200  23.5628530
  35.0897230  37.6957190  27.4418520  34.3849400  38.0838900  26.9233630
  35.3555150  38.3907480  28.0439450  21.2722400  34.1650560  28.0052590
  21.2740840  34.6822950  27.1998490  20.4426710  33.6880740  27.9822520
  22.5225250  43.8045740  26.1826090  22.1894630  44.4314660  26.8247160
  22.6991930  44.3307620  25.4027760  31.0359160  37.6190820  23.6502430
  30.3314730  37.9075710  24.2305540  31.3971320  38.4290930  23.2901990
  20.9537730  35.8760520  26.0123040  21.2954540  36.7202570  25.7176910
  20.0153540  36.0244260  26.1288380  34.1046080  37.0645610  24.0411640
  33.1570990  37.0984590  24.1727070  34.4296070  37.8784560  24.4261000
  24.6365620  33.3642790  22.3367630  24.9440600  32.8089680  21.6203130
  23.7066320  33.4987250  22.1540620  29.5866120  43.9839920  25.9557700
  30.0034910  43.7700030  25.1211160  30.3105940  44.2412710  26.5266320
  27.0246380  41.4291620  19.0727750  26.0975660  41.3629000  19.3016220
  27.1771200  42.3671750  18.9582990  27.0115460  37.7008620  16.0694910
  26.0719130  37.8622580  16.1547370  27.3298720  38.4194300  15.5230900
  33.5328220  42.3827140  26.0473940  32.7046850  42.4520230  25.5724070
  34.1278700  42.9681450  25.5789770  31.0543670  42.9911920  19.5763000
  30.4356090  42.6531470  18.9289300  31.0368120  42.3471680  20.2842190
  30.4970230  39.1696460  26.9928810  30.0841410  39.9950170  27.2468800
  29.7646180  38.5841500  26.8005170  22.6303020  41.9556360  21.8547480
  22.2260020  41.2433610  21.3593380  22.7166140  41.6109600  22.7435520
  21.3431640  38.7299570  25.6346520  21.8946230  38.8394910  24.8599770
  21.8575150  39.1037170  26.3501750  29.2308370  42.2298730  16.5835750
  29.6701650  41.3921160  16.4373570  29.9436790  42.8628130  16.6699890
  21.0174370  42.2518930  29.2451860  20.8782140  43.1241730  29.6139260
  20.1355730  41.9091740  29.0999800  32.8125510  33.4841540  14.8976790
  32.4998170  33.5768370  15.7975860  33.5737980  34.0622570  14.8474220
  19.3307650  40.8501340  19.3554130  19.2105250  41.5763430  18.7435400
  19.0208540  40.0804250  18.8782040  16.9693020  44.0216480  25.1622770
  17.0473440  44.1565250  24.2178490  17.5834700  43.3132370  25.3550890
  34.0226800  38.2213040  30.8750930  33.4071070  38.7292710  30.3466390
  33.7023220  37.3211370  30.8176870  21.7971310  34.1936410  22.7377800
  21.3539460  34.9745950  22.4062320  22.3556300  34.5166300  23.4448740
  26.0841120  37.0604930  28.3413120  25.6220490  37.2687950  29.1533060
  25.6819230  36.2464280  28.0383790  31.0845630  38.2813880  29.4709780
  30.2339220  37.9819630  29.7918850  30.9247420  38.5255890  28.5593600
  28.1795340  39.7815630  31.5708570  28.5048750  38.9479380  31.2310800
  28.9675670  40.3044150  31.7186900  24.9130130  33.8147110  17.6183630
  24.2884310  33.8106980  18.3436940  24.8260250  32.9478070  17.2219600
  23.8347210  34.7383740  24.5967400  24.1319540  35.6446570  24.5159420
  24.3832770  34.2502520  23.9826970  21.5885530  39.3169980  20.4659050
  21.3626450  39.1007150  21.3705670  20.8078060  39.7498440  20.1205020
  28.8183290  39.3233350  19.0649700  28.2192180  40.0469150  18.8813320
  29.3662900  39.2610130  18.2826150  24.0284740  40.2155560  31.1319320
  23.9328340  39.2750290  30.9819720  24.8716720  40.4370630  30.7367390
  27.4248160  37.9596890  21.0952980  27.8177730  38.2769090  20.2821670
  27.7865010  37.0808770  21.2097500  19.1595280  36.6269230  29.2853100
  18.7658670  37.4744440  29.4925880  18.4713680  35.9895600  29.4761740
  25.7340330  36.7104200  32.3549840  25.0438650  36.5176400  32.9895930
  26.4772630  36.9938840  32.8874140  16.4612330  34.5497690  23.3183180
  16.1725380  35.1200550  24.0308160  17.2058090  34.0702140  23.6814410
  16.6482560  38.4917810  14.5285900  16.5657230  39.4348570  14.6700890
  16.2965620  38.3492720  13.6498250  28.0103300  40.5502640  25.1903760
  27.2784420  41.0589450  25.5393860  27.6127640  39.7332620  24.8892540
  24.4480690  37.2256840  23.5956250  24.4516750  36.7846790  22.7460790
  25.3431810  37.5474170  23.7028070  20.2983070  37.1083330  22.5550460
  19.9583120  37.5858560  23.3117510  19.5360390  36.6548450  22.1951560
  24.5100840  38.2268920  16.5863010  24.6313660  38.1855400  17.5348830
  24.1249350  39.0893070  16.4309740  28.4729210  36.0036320  24.6026700
  28.4901950  36.4544970  25.4468550  28.2244790  35.1041960  24.8160140
  23.5222340  40.5370060  15.9846310  22.9539240  40.0888310  15.3582220
  24.2311340  40.8962840  15.4511460  31.8999960  33.4168500  30.4413080
  32.2245730  32.6858160  30.9671060  31.9356470  33.0982140  29.5394070
  24.7488660  41.2858620  25.3421660  25.1158790  40.8117190  26.0883000
  24.5593720  42.1600190  25.6830000  17.6129150  36.0302310  21.4715130
  17.3276070  35.6657980  22.3093750  17.5508010  35.2982770  20.8578270
  22.5388030  40.3267260  27.6605870  22.2345100  41.2059240  27.8856230
  23.4934490  40.3867050  27.6963310  31.8257800  43.5293610  24.0499110
  32.5456920  44.0248900  23.6595220  31.6239620  42.8511500  23.4052980
  27.2867740  34.9231570  18.1928500  26.4732350  34.4244740  18.1173810
  27.0929690  35.7629820  17.7764850  27.2076600  43.6002670  29.9368110
  27.1413910  42.6798340  29.6825700  26.5781740  43.6978110  30.6512750
  30.0016130  39.2951220  16.4890660  30.8895750  39.6068450  16.3142000
  29.9721220  38.4223470  16.0971240  21.1107220  44.2008630  21.8951530
  21.6285890  43.3976890  21.8408420  20.6591240  44.1387770  22.7368360
  18.5951760  41.1670000  28.8077230  18.2366700  41.8323850  29.3950570
  18.3006320  40.3353550  29.1789850  21.7964880  41.6254240  31.6916780
  21.4965020  41.7711420  30.7944600  22.5676120  41.0659530  31.5990170
  32.2730400  40.6063060  15.9570520  32.1894120  41.0377280  15.1066960
  32.9924590  41.0661410  16.3897340  33.3504540  43.0630580  29.0340490
  32.6252730  43.6559360  28.8369880  33.8780000  43.0554120  28.2353860
  17.1059810  41.1661260  15.4311830  17.9754660  41.4486060  15.7147750
  16.6150130  41.9797130  15.3160640  24.2694620  42.5534470  19.5520110
  24.7257400  43.3639720  19.7780300  23.9182830  42.2357610  20.3838600
  20.1706400  32.8972120  20.0242630  20.0421030  32.8890020  20.9727550
  19.3468420  33.2355210  19.6733640  17.1700330  34.6563240  29.4849330
  16.4558850  34.8560160  30.0901940  17.5895370  33.8802810  29.8564130
  19.0906320  42.9834730  17.5593890  18.4834270  43.7233630  17.5689190
  19.5655670  43.0734090  16.7332090  28.6639110  37.1485550  27.2350780
  29.0319930  36.3280760  27.5630350  27.8037310  37.2087440  27.6506430
  32.0301140  36.1042490  18.0438340  31.4014300  36.2088160  17.3296570
  31.5353060  36.3239270  18.8332220  23.9985170  38.3828440  19.4596220
  23.2901320  38.8514780  19.9009830  24.2829650  37.7250450  20.0941410
  25.6241100  39.8025140  27.4588750  26.1226350  40.2770960  28.1240600
  25.7664050  38.8788660  27.6658780  28.0300600  35.1079100  20.8992010
  27.9068380  35.1265230  19.9501520  28.9785160  35.1558040  21.0190410
  22.2020190  36.6913520  16.8346930  23.0510720  37.1283670  16.7687120
  21.8351460  37.0033780  17.6618990  32.8307960  36.0193100  28.3017140
  32.3281560  36.7598500  28.6410950  33.6464620  36.4077100  27.9853930
  31.1229970  41.2626280  21.7478500  30.1820110  41.2776510  21.9226190
  31.4374040  40.4762240  22.1938800  21.1011610  42.9445880  15.3082460
  21.8674880  42.8327240  15.8707890  21.1786300  42.2483850  14.6559230
  19.7958370  40.3770950  15.9915350  19.8761960  39.4298460  16.1032750
  20.6878120  40.7077830  16.0976010  17.3229170  42.1985870  31.2271520
  17.8268190  41.6193150  31.7987750  16.5836590  42.4826100  31.7647890
  24.3767110  43.6056860  30.7607040  23.6112780  44.1741860  30.6761710
  24.5583070  43.3133070  29.8675270  27.4655520  43.9820090  15.3859800
  26.9165620  44.4289390  16.0302540  28.0874780  43.4769340  15.9097470
  19.3552250  40.3415460  32.1221590  19.3957590  40.0429330  33.0306820
  20.2097750  40.7423070  31.9629110  23.1330640  42.9411010  17.2825100
  23.5547060  42.7750880  18.1256490  23.2581480  42.1311240  16.7880240
  21.2958060  38.9207560  30.0896080  20.7654520  38.4298510  29.4619420
  21.9646130  39.3491760  29.5554010  25.6458280  41.9648620  14.5302200
  26.1663940  41.2497640  14.1643350  26.2926680  42.6034490  14.8302710
  30.1936120  43.3877020  29.8537270  30.6077140  43.5422100  30.7027690
  29.2587120  43.5132240  30.0163050  30.6658290  40.7273180  31.8576420
  31.2479060  39.9725500  31.7696900  30.8420060  41.2580620  31.0807900
  21.7830360  35.8869930  30.1693370  21.6887230  35.2690680  29.4444240
  21.2027750  36.6136220  29.9423280  24.5491800  34.4443170  27.2020760
  24.1009100  34.4667430  26.3566310  23.9157000  34.0462190  27.7991060
  24.9551350  43.3397500  27.8233200  25.3739460  44.1830230  27.6509440
  24.0359980  43.4769540  27.5939980  27.2915250  41.0713680  29.2071040
  27.4111460  40.4754820  29.9465880  28.1509250  41.1083370  28.7872340
  29.6303150  41.6250870  27.7833550  29.1038370  42.1493490  27.1798690
  29.9734490  42.2578260  28.4143280  22.0289540  39.0144240  14.2283260
  21.8278600  38.1511600  14.5896600  21.8581590  38.9277600  13.2904860
  24.0584020  37.6135030  30.4646860  24.6483710  37.3050880  31.1524680
  23.2404260  37.1414780  30.6206760  28.8777450  37.2300840  30.6979880
  28.1892970  36.5682380  30.6329870  29.5983470  36.7839110  31.1428340
  29.5077850  33.8252470  16.7570140  29.7880140  32.9820370  17.1129560
  28.7343580  34.0575580  17.2708890  20.8272340  36.1144860  14.2161140
  21.1298240  36.1212290  13.3080290  21.5666930  35.7642720  14.7128800
  24.0457270  35.0579480  15.2017340  23.6979270  34.3803470  14.6219790
  24.2470040  34.5968990  16.0160730  33.8858570  43.0629200  17.3674050
  34.6477480  43.6325850  17.4733740  33.9012940  42.4956400  18.1382360
  17.3862910  41.5867130  21.5981710  16.7311750  41.3178770  20.9541410
  18.2240860  41.4771610  21.1483690  33.9377740  43.3563570  14.5246570
  34.2126580  44.2642450  14.3965790  33.7488480  43.2926100  15.4608560
  30.3353350  36.3808420  15.8200200  30.7538230  36.1939400  14.9796860
  30.0289410  35.5287470  16.1303130  33.8343080  41.2932560  19.5176000
  33.4586680  40.5260490  19.0857290  33.1046200  41.6755260  20.0050930
  18.4238840  41.9719700  26.1385050  18.7911880  41.8847100  27.0181070
  17.8549660  41.2086250  26.0391910  33.2242700  40.4404080  29.1515520
  32.9928790  40.2116830  28.2513470  33.4847250  41.3603630  29.1060410
  17.9754840  38.8828790  30.0443470  17.0810890  38.8495550  30.3837180
  18.5152390  39.0815580  30.8094720  31.6630770  35.6660510  31.9295220
  32.5400950  35.6743910  32.3129220  31.6751610  34.9291350  31.3187570
  16.6000990  38.7966060  17.5407040  15.6965070  39.0596260  17.3658700
  17.0841610  39.0677230  16.7607000  33.1094040  39.5190050  22.8183240
  33.6331520  39.0252700  22.1873410  33.6953460  39.6540410  23.5630810
  33.2883760  39.6029920  26.3402790  32.3386470  39.5693460  26.4547780
  33.4696770  40.5130030  26.1052560  19.1428200  37.8531600  15.4501420
  19.8519900  37.4314820  14.9648700  18.4268140  37.9206830  14.8184770
  18.7902360  33.9070930  14.4904070  19.5130490  34.4479870  14.8085290
  19.0626880  33.6334350  13.6145610  32.5994010  38.7763400  18.7575650
  33.0953130  38.5434270  19.5424530  32.4010080  37.9375240  18.3413290
  18.4794550  33.1577120  24.3926690  19.1270740  32.6074500  23.9521850
  18.8996390  33.4120270  25.2142500  34.0281170  37.4124350  21.2913330
  33.9180450  37.2580390  22.2295600  34.7888760  36.8845290  21.0488740
  32.3746890  33.3518480  27.7496330  33.0119110  33.9652620  28.1155520
  32.5221780  33.3879140  26.8045560  34.9171440  35.2432270  14.5319470
  35.8420750  35.1113450  14.3237760  34.8947230  35.3225090  15.4855920
  34.9909930  36.0142930  17.1576180  34.1961430  35.9488050  17.6869090
  35.1953210  36.9493570  17.1461530  18.2326550  33.3132790  27.1352010
  17.8841370  33.7696610  27.9010190  17.9014250  32.4189920  27.2174440
  25.7451370  34.5044670  30.6571430  25.6840260  35.0966500  31.4066840
  26.6851750  34.3970630  30.5121690  28.3825930  34.1614730  30.2963720
  28.9966340  34.4794020  29.6344800  28.9275490  33.6763320  30.9159580
  18.9047190  32.8408990  30.4102780  19.4530180  32.6597040  29.6468890
  18.9702500  32.0503100  30.9459090  29.1233970  32.7246870  26.6233010
  28.2493810  33.0581980  26.4205940  29.0144720  32.2520050  27.4484880
  30.0305950  34.9317740  28.0074730  29.7019310  34.1169500  27.6276460
  30.9788250  34.8887550  27.8840420  26.8708790  33.6416710  25.5625920
  26.0880580  34.1162210  25.8422680  26.5771720  32.7371540  25.4539100
  31.4229860  34.3439810  23.6075010  31.8637950  34.2884910  22.7596610
  31.1537450  35.2597820  23.6785190  33.2868430  33.9755050  21.6183830
  33.2256830  33.0316270  21.4714850  34.0660460  34.0835140  22.1637290
  18.2149200  33.9464190  18.0839640  18.9728560  34.0593070  17.5103670
  17.7526370  34.7833390  18.0383070  24.7563010  36.0603460  21.0741950
  23.9437520  35.6860350  20.7337830  25.2604650  35.3048540  21.3763140
  29.2587990  32.7245910  22.3125020  29.8617360  33.2966120  22.7873540
  28.5180980  33.2885350  22.0898920  32.4022590  33.1267470  17.5865300
  32.5973220  34.0250920  17.8532730  31.6152460  32.8954550  18.0798250
  20.5874350  34.4728240  16.6241610  21.1167110  33.6858040  16.4949560
  21.2202670  35.1519430  16.8577140  22.7812190  34.2103380  19.6787000
  22.1514930  33.5090690  19.8457130  22.2417330  34.9707510  19.4620160
  22.9067750  33.4887360  32.1139490  22.6252020  33.9920960  31.3500310
  23.2887450  32.6909110  31.7481620  29.5083210  32.9040940  32.6919960
  29.3948660  33.2235550  33.5871480  30.3252950  33.3053450  32.3957240
  28.4141360  40.9233410   3.0554700  28.3335410  40.0088020   2.7846410
  28.0005780  41.4200480   2.3494410  26.5459400  42.7012430   4.9363970
  25.7701500  42.2212870   5.2262540  27.1972330  42.0218080   4.7620130
  20.5625230  43.0132240   5.8139730  19.7310110  42.7580950   6.2136240
  21.1706210  43.0843010   6.5497650  16.9350190  40.5739780   5.4821820
  17.5066300  39.8061980   5.4825460  16.9351730  40.8728540   4.5728430
  18.1775060  35.9824140   7.2690750  17.9977900  35.0849890   7.5493510
  17.7755140  36.5296010   7.9437700  27.0173560  38.1840000   5.1703060
  27.3938380  37.3111880   5.0576730  26.9193070  38.5198700   4.2793500
  30.7997680  35.6790440   2.1031400  31.6207300  35.1887010   2.1456880
  30.8331760  36.2688100   2.8563240  18.7961730  38.4784640   5.8773090
  19.4771840  38.7423010   6.4960490  18.4809780  37.6385510   6.2111100
  22.9886300  39.5252000   4.9645680  23.4964520  40.0232970   5.6050700
  23.5199540  38.7487200   4.7885040  35.0897230  37.6957190   8.6675030
  34.3849400  38.0838900   8.1490140  35.3555150  38.3907480   9.2695960
  21.2722400  34.1650560   9.2309100  21.2740840  34.6822950   8.4255000
  20.4426710  33.6880740   9.2079030  22.5225250  43.8045740   7.4082600
  22.1894630  44.4314660   8.0503670  22.6991930  44.3307620   6.6284270
  31.0359160  37.6190820   4.8758940  30.3314730  37.9075710   5.4562050
  31.3971320  38.4290930   4.5158500  20.9537730  35.8760520   7.2379550
  21.2954540  36.7202570   6.9433420  20.0153540  36.0244260   7.3544890
  34.1046080  37.0645610   5.2668150  33.1570990  37.0984590   5.3983580
  34.4296070  37.8784560   5.6517510  24.6365620  33.3642790   3.5624140
  24.9440600  32.8089680   2.8459640  23.7066320  33.4987250   3.3797130
  29.5866120  43.9839920   7.1814210  30.0034910  43.7700030   6.3467670
  30.3105940  44.2412710   7.7522830  33.5328220  42.3827140   7.2730450
  32.7046850  42.4520230   6.7980580  34.1278700  42.9681450   6.8046280
  30.4970230  39.1696460   8.2185320  30.0841410  39.9950170   8.4725310
  29.7646180  38.5841500   8.0261680  22.6303020  41.9556360   3.0803990
  22.2260020  41.2433610   2.5849890  22.7166140  41.6109600   3.9692030
  21.3431640  38.7299570   6.8603030  21.8946230  38.8394910   6.0856280
  21.8575150  39.1037170   7.5758260  21.0174370  42.2518930  10.4708370
  20.8782140  43.1241730  10.8395770  20.1355730  41.9091740  10.3256310
  16.9693020  44.0216480   6.3879280  17.0473440  44.1565250   5.4435000
  17.5834700  43.3132370   6.5807400  34.0226800  38.2213040  12.1007440
  33.4071070  38.7292710  11.5722900  33.7023220  37.3211370  12.0433380
  21.7971310  34.1936410   3.9634310  21.3539460  34.9745950   3.6318830
  22.3556300  34.5166300   4.6705250  26.0841120  37.0604930   9.5669630
  25.6220490  37.2687950  10.3789570  25.6819230  36.2464280   9.2640300
  31.0845630  38.2813880  10.6966290  30.2339220  37.9819630  11.0175360
  30.9247420  38.5255890   9.7850110  28.1795340  39.7815630  12.7965080
  28.5048750  38.9479380  12.4567310  28.9675670  40.3044150  12.9443410
  23.8347210  34.7383740   5.8223910  24.1319540  35.6446570   5.7415930
  24.3832770  34.2502520   5.2083480  24.0284740  40.2155560  12.3575830
  23.9328340  39.2750290  12.2076230  24.8716720  40.4370630  11.9623900
  19.1595280  36.6269230  10.5109610  18.7658670  37.4744440  10.7182390
  18.4713680  35.9895600  10.7018250  25.7340330  36.7104200  13.5806350
  25.0438650  36.5176400  14.2152440  26.4772630  36.9938840  14.1130650
  16.4612330  34.5497690   4.5439690  16.1725380  35.1200550   5.2564670
  17.2058090  34.0702140   4.9070920  28.0103300  40.5502640   6.4160270
  27.2784420  41.0589450   6.7650370  27.6127640  39.7332620   6.1149050
  24.4480690  37.2256840   4.8212760  24.4516750  36.7846790   3.9717300
  25.3431810  37.5474170   4.9284580  20.2983070  37.1083330   3.7806970
  19.9583120  37.5858560   4.5374020  19.5360390  36.6548450   3.4208070
  28.4729210  36.0036320   5.8283210  28.4901950  36.4544970   6.6725060
  28.2244790  35.1041960   6.0416650  31.8999960  33.4168500  11.6669590
  32.2245730  32.6858160  12.1927570  31.9356470  33.0982140  10.7650580
  24.7488660  41.2858620   6.5678170  25.1158790  40.8117190   7.3139510
  24.5593720  42.1600190   6.9086510  17.6129150  36.0302310   2.6971640
  17.3276070  35.6657980   3.5350260  17.5508010  35.2982770   2.0834780
  22.5388030  40.3267260   8.8862380  22.2345100  41.2059240   9.1112740
  23.4934490  40.3867050   8.9219820  31.8257800  43.5293610   5.2755620
  32.5456920  44.0248900   4.8851730  31.6239620  42.8511500   4.6309490
  27.2076600  43.6002670  11.1624620  27.1413910  42.6798340  10.9082210
  26.5781740  43.6978110  11.8769260  21.1107220  44.2008630   3.1208040
  21.6285890  43.3976890   3.0664930  20.6591240  44.1387770   3.9624870
  18.5951760  41.1670000  10.0333740  18.2366700  41.8323850  10.6207080
  18.3006320  40.3353550  10.4046360  21.7964880  41.6254240  12.9173290
  21.4965020  41.7711420  12.0201110  22.5676120  41.0659530  12.8246680
  33.3504540  43.0630580  10.2597000  32.6252730  43.6559360  10.0626390
  33.8780000  43.0554120   9.4610370  17.1700330  34.6563240  10.7105840
  16.4558850  34.8560160  11.3158450  17.5895370  33.8802810  11.0820640
  28.6639110  37.1485550   8.4607290  29.0319930  36.3280760   8.7886860
  27.8037310  37.2087440   8.8762940  25.6241100  39.8025140   8.6845260
  26.1226350  40.2770960   9.3497110  25.7664050  38.8788660   8.8915290
  32.8307960  36.0193100   9.5273650  32.3281560  36.7598500   9.8667460
  33.6464620  36.4077100   9.2110440  31.1229970  41.2626280   2.9735010
  30.1820110  41.2776510   3.1482700  31.4374040  40.4762240   3.4195310
  17.3229170  42.1985870  12.4528030  17.8268190  41.6193150  13.0244260
  16.5836590  42.4826100  12.9904400  24.3767110  43.6056860  11.9863550
  23.6112780  44.1741860  11.9018220  24.5583070  43.3133070  11.0931780
  19.3552250  40.3415460  13.3478100  19.3957590  40.0429330  14.2563330
  20.2097750  40.7423070  13.1885620  21.2958060  38.9207560  11.3152590
  20.7654520  38.4298510  10.6875930  21.9646130  39.3491760  10.7810520
  30.1936120  43.3877020  11.0793780  30.6077140  43.5422100  11.9284200
  29.2587120  43.5132240  11.2419560  30.6658290  40.7273180  13.0832930
  31.2479060  39.9725500  12.9953410  30.8420060  41.2580620  12.3064410
  21.7830360  35.8869930  11.3949880  21.6887230  35.2690680  10.6700750
  21.2027750  36.6136220  11.1679790  24.5491800  34.4443170   8.4277270
  24.1009100  34.4667430   7.5822820  23.9157000  34.0462190   9.0247570
  24.9551350  43.3397500   9.0489710  25.3739460  44.1830230   8.8765950
  24.0359980  43.4769540   8.8196490  27.2915250  41.0713680  10.4327550
  27.4111460  40.4754820  11.1722390  28.1509250  41.1083370  10.0128850
  29.6303150  41.6250870   9.0090060  29.1038370  42.1493490   8.4055200
  29.9734490  42.2578260   9.6399790  24.0584020  37.6135030  11.6903370
  24.6483710  37.3050880  12.3781190  23.2404260  37.1414780  11.8463270
  28.8777450  37.2300840  11.9236390  28.1892970  36.5682380  11.8586380
  29.5983470  36.7839110  12.3684850  17.3862910  41.5867130   2.8238220
  16.7311750  41.3178770   2.1797920  18.2240860  41.4771610   2.3740200
  18.4238840  41.9719700   7.3641560  18.7911880  41.8847100   8.2437580
  17.8549660  41.2086250   7.2648420  33.2242700  40.4404080  10.3772030
  32.9928790  40.2116830   9.4769980  33.4847250  41.3603630  10.3316920
  17.9754840  38.8828790  11.2699980  17.0810890  38.8495550  11.6093690
  18.5152390  39.0815580  12.0351230  31.6630770  35.6660510  13.1551730
  32.5400950  35.6743910  13.5385730  31.6751610  34.9291350  12.5444080
  33.1094040  39.5190050   4.0439750  33.6331520  39.0252700   3.4129920
  33.6953460  39.6540410   4.7887320  33.2883760  39.6029920   7.5659300
  32.3386470  39.5693460   7.6804290  33.4696770  40.5130030   7.3309070
  18.4794550  33.1577120   5.6183200  19.1270740  32.6074500   5.1778360
  18.8996390  33.4120270   6.4399010  34.0281170  37.4124350   2.5169840
  33.9180450  37.2580390   3.4552110  34.7888760  36.8845290   2.2745250
  32.3746890  33.3518480   8.9752840  33.0119110  33.9652620   9.3412030
  32.5221780  33.3879140   8.0302070  18.2326550  33.3132790   8.3608520
  17.8841370  33.7696610   9.1266700  17.9014250  32.4189920   8.4430950
  25.7451370  34.5044670  11.8827940  25.6840260  35.0966500  12.6323350
  26.6851750  34.3970630  11.7378200  28.3825930  34.1614730  11.5220230
  28.9966340  34.4794020  10.8601310  28.9275490  33.6763320  12.1416090
  18.9047190  32.8408990  11.6359290  19.4530180  32.6597040  10.8725400
  18.9702500  32.0503100  12.1715600  29.1233970  32.7246870   7.8489520
  28.2493810  33.0581980   7.6462450  29.0144720  32.2520050   8.6741390
  30.0305950  34.9317740   9.2331240  29.7019310  34.1169500   8.8532970
  30.9788250  34.8887550   9.1096930  26.8708790  33.6416710   6.7882430
  26.0880580  34.1162210   7.0679190  26.5771720  32.7371540   6.6795610
  31.4229860  34.3439810   4.8331520  31.8637950  34.2884910   3.9853120
  31.1537450  35.2597820   4.9041700  33.2868430  33.9755050   2.8440340
  33.2256830  33.0316270   2.6971360  34.0660460  34.0835140   3.3893800
  24.7563010  36.0603460   2.2998460  23.9437520  35.6860350   1.9594340
  25.2604650  35.3048540   2.6019650  29.2587990  32.7245910   3.5381530
  29.8617360  33.2966120   4.0130050  28.5180980  33.2885350   3.3155430
  22.9067750  33.4887360  13.3396000  22.6252020  33.9920960  12.5756820
  23.2887450  32.6909110  12.9738130  29.5083210  32.9040940  13.9176470
  29.3948660  33.2235550  14.8127990  30.3252950  33.3053450  13.6213750
  28.4141360  22.1489920  40.6041680  28.3335410  21.2344530  40.3333390
  28.0005780  22.6456990  39.8981390  26.5459400  23.9268940  42.4850950
  25.7701500  23.4469380  42.7749520  27.1972330  23.2474590  42.3107110
  20.5625230  24.2388750  43.3626710  19.7310110  23.9837460  43.7623220
  21.1706210  24.3099520  44.0984630  30.5666830  28.3329130  41.2650080
  30.1048360  27.5616370  41.5937250  31.3792380  28.3595200  41.7702530
  20.5426490  28.2728840  43.5584730  20.8454530  27.3826580  43.3794950
  21.2870080  28.8299060  43.3306980  18.9717180  19.1990640  37.1469100
  18.0833880  19.5406610  37.0448980  19.2558370  18.9990960  36.2549930
  16.9350190  21.7996290  43.0308800  17.5066300  21.0318490  43.0312440
  16.9351730  22.0985050  42.1215410  26.7930140  30.6187140  40.8854070
  26.1741580  31.0744640  40.3148510  27.6481920  30.7738600  40.4843770
  25.9868390  26.6026130  42.4921110  25.9176670  25.6616070  42.3310240
  26.7488250  26.6927540  43.0643680  27.0173560  19.4096510  42.7190040
  27.3938380  18.5368390  42.6063710  26.9193070  19.7455210  41.8280480
  21.1478570  17.7822140  38.1807480  21.2545320  18.6825870  38.4876240
  20.2370930  17.7340110  37.8902130  30.7997680  16.9046950  39.6518380
  31.6207300  16.4143520  39.6943860  30.8331760  17.4944610  40.4050220
  18.7961730  19.7041150  43.4260070  19.4771840  19.9679520  44.0447470
  18.4809780  18.8642020  43.7598080  22.9886300  20.7508510  42.5132660
  23.4964520  21.2489480  43.1537680  23.5199540  19.9743710  42.3372020
  27.6593490  25.5026380  38.2785980  27.0410760  25.9675830  37.7148700
  28.1716740  26.1953860  38.6955490  31.0359160  18.8447330  42.4245920
  30.3314730  19.1332220  43.0049030  31.3971320  19.6547440  42.0645480
  20.9537730  17.1017030  44.7866530  21.2954540  17.9459080  44.4920400
  20.0153540  17.2500770  44.9031870  17.0276690  26.1882910  35.6525610
  16.6504670  26.6770010  34.9210510  17.2849760  26.8608190  36.2832140
  32.6521940  28.4622460  44.6873400  31.9685460  29.1321570  44.6790070
  33.1916230  28.6603110  43.9218260  34.1046080  18.2902120  42.8155130
  33.1570990  18.3241100  42.9470560  34.4296070  19.1041070  43.2004490
  24.6365620  14.5899300  41.1111120  24.9440600  14.0346190  40.3946620
  23.7066320  14.7243760  40.9284110  30.1880680  30.3066590  43.4018580
  30.2007840  29.9028880  42.5340840  29.6355900  31.0813880  43.2980010
  31.4826100  27.0282810  38.4908750  31.3722430  26.0857140  38.6158170
  31.4794350  27.3898450  39.3771510  27.0246380  22.6548130  37.8471240
  26.0975660  22.5885510  38.0759710  27.1771200  23.5928260  37.7326480
  27.0115460  18.9265130  34.8438400  26.0719130  19.0879090  34.9290860
  27.3298720  19.6450810  34.2974390  33.5328220  23.6083650  44.8217430
  32.7046850  23.6776740  44.3467560  34.1278700  24.1937960  44.3533260
  31.0543670  24.2168430  38.3506490  30.4356090  23.8787980  37.7032790
  31.0368120  23.5728190  39.0585680  22.6303020  23.1812870  40.6290970
  22.2260020  22.4690120  40.1336870  22.7166140  22.8366110  41.5179010
  23.0984720  26.8680430  42.7930180  22.8013010  26.2625900  42.1137960
  24.0484540  26.9057740  42.6819540  21.3431640  19.9556080  44.4090010
  21.8946230  20.0651420  43.6343260  21.8575150  20.3293680  45.1245240
  29.2308370  23.4555240  35.3579240  29.6701650  22.6177670  35.2117060
  29.9436790  24.0884640  35.4443380  27.3403750  28.3951310  39.3260480
  27.7799660  29.1375640  38.9115870  27.2790640  28.6377880  40.2499440
  32.8125510  14.7098050  33.6720280  32.4998170  14.8024880  34.5719350
  33.5737980  15.2879080  33.6217710  19.3307650  22.0757850  38.1297620
  19.2105250  22.8019940  37.5178890  19.0208540  21.3060760  37.6525530
  16.9693020  25.2472990  43.9366260  17.0473440  25.3821760  42.9921980
  17.5834700  24.5388880  44.1294380  18.2140650  26.9473180  40.3472440
  17.8068730  27.0887770  39.4926040  19.1053660  26.6633340  40.1443650
  30.0073930  31.3820430  36.6823490  29.8475070  31.0923370  37.5805320
  29.8420640  30.6060560  36.1468720  22.4862310  31.1618960  38.4595110
  22.3104790  30.2454500  38.2462910  21.6318050  31.5206250  38.6992910
  29.7100060  28.8907990  35.2421490  29.0165220  28.8885280  34.5823770
  30.4522920  28.4667310  34.8115660  29.2749990  30.5170700  39.3169980
  29.7306940  29.7360080  39.6308600  29.6142510  31.2277520  39.8611160
  21.7971310  15.4192920  41.5121290  21.3539460  16.2002460  41.1805810
  22.3556300  15.7422810  42.2192230  24.9130130  15.0403620  36.3927120
  24.2884310  15.0363490  37.1180430  24.8260250  14.1734580  35.9963090
  23.8347210  15.9640250  43.3710890  24.1319540  16.8703080  43.2902910
  24.3832770  15.4759030  42.7570460  21.5885530  20.5426490  39.2402540
  21.3626450  20.3263660  40.1449160  20.8078060  20.9754950  38.8948510
  28.8183290  20.5489860  37.8393190  28.2192180  21.2725660  37.6556810
  29.3662900  20.4866640  37.0569640  27.4248160  19.1853400  39.8696470
  27.8177730  19.5025600  39.0565160  27.7865010  18.3065280  39.9840990
  16.4612330  15.7754200  42.0926670  16.1725380  16.3457060  42.8051650
  17.2058090  15.2958650  42.4557900  16.6482560  19.7174320  33.3029390
  16.5657230  20.6605080  33.4444380  16.2965620  19.5749230  32.4241740
  28.0103300  21.7759150  43.9647250  27.2784420  22.2845960  44.3137350
  27.6127640  20.9589130  43.6636030  24.4480690  18.4513350  42.3699740
  24.4516750  18.0103300  41.5204280  25.3431810  18.7730680  42.4771560
  20.2983070  18.3339840  41.3293950  19.9583120  18.8115070  42.0861000
  19.5360390  17.8804960  40.9695050  24.5100840  19.4525430  35.3606500
  24.6313660  19.4111910  36.3092320  24.1249350  20.3149580  35.2053230
  28.4729210  17.2292830  43.3770190  28.4901950  17.6801480  44.2212040
  28.2244790  16.3298470  43.5903630  23.5222340  21.7626570  34.7589800
  22.9539240  21.3144820  34.1325710  24.2311340  22.1219350  34.2254950
  24.7488660  22.5115130  44.1165150  25.1158790  22.0373700  44.8626490
  24.5593720  23.3856700  44.4573490  17.6129150  17.2558820  40.2458620
  17.3276070  16.8914490  41.0837240  17.5508010  16.5239280  39.6321760
  21.0669820  25.7584760  37.0316210  20.2932080  25.2182380  36.8714930
  21.7964450  25.2391370  36.6933970  31.8257800  24.7550120  42.8242600
  32.5456920  25.2505410  42.4338710  31.6239620  24.0768010  42.1796470
  27.2867740  16.1488080  36.9671990  26.4732350  15.6501250  36.8917300
  27.0929690  16.9886330  36.5508340  30.0016130  20.5207730  35.2634150
  30.8895750  20.8324960  35.0885490  29.9721220  19.6479980  34.8714730
  21.1107220  25.4265140  40.6695020  21.6285890  24.6233400  40.6151910
  20.6591240  25.3644280  41.5111850  25.9976720  26.6931420  35.9422320
  26.3392420  27.4373650  35.4465640  25.1689430  27.0062540  36.3047150
  32.2730400  21.8319570  34.7314010  32.1894120  22.2633790  33.8810450
  32.9924590  22.2917920  35.1640830  33.3017650  28.6861830  37.4596140
  32.6593810  28.0317450  37.7339860  32.9148310  29.0916920  36.6836810
  28.8804130  26.0147260  41.3067830  29.2327950  25.4175390  40.6469200
  27.9966460  25.6891490  41.4776080  24.9667410  26.7744950  38.7138240
  25.6538540  27.3214160  39.0945830  24.1799830  27.3185680  38.7487850
  17.1059810  22.3917770  34.2055320  17.9754660  22.6742570  34.4891240
  16.6150130  23.2053640  34.0904130  24.2694620  23.7790980  38.3263600
  24.7257400  24.5896230  38.5523790  23.9182830  23.4614120  39.1582090
  20.1706400  14.1228630  38.7986120  20.0421030  14.1146530  39.7471040
  19.3468420  14.4611720  38.4477130  27.8459310  27.2929670  44.2733350
  28.4881540  26.5922830  44.3865520  28.3708660  28.0728110  44.0930240
  31.6915030  27.5778290  33.9972490  31.4652610  26.8608730  34.5897130
  31.3011230  27.3290730  33.1594240  17.4731060  31.6045150  34.7716950
  17.8328700  32.2034490  34.1174220  17.3323400  32.1505040  35.5451980
  31.2731280  25.4950230  35.6586650  30.9852980  25.9562920  36.4464530
  32.0683450  25.0348000  35.9270870  23.4899680  28.9876350  35.5890620
  23.4809780  29.7206040  34.9735130  22.5698040  28.7407930  35.6817580
  19.0906320  24.2091240  36.3337380  18.4834270  24.9490140  36.3432680
  19.5655670  24.2990600  35.5075580  32.0301140  17.3299000  36.8181830
  31.4014300  17.4344670  36.1040060  31.5353060  17.5495780  37.6075710
  26.4759280  29.0504590  34.2515810  26.5771260  28.8468580  33.3217790
  25.5761020  28.7962870  34.4563590  23.9985170  19.6084950  38.2339710
  23.2901320  20.0771290  38.6753320  24.2829650  18.9506960  38.8684900
  28.0300600  16.3335610  39.6735500  27.9068380  16.3521740  38.7245010
  28.9785160  16.3814550  39.7933900  25.1177390  31.5690910  38.9463480
  25.3718890  31.5312300  38.0242850  24.1689870  31.4424240  38.9391730
  22.2020190  17.9170030  35.6090420  23.0510720  18.3540180  35.5430610
  21.8351460  18.2290290  36.4362480  31.1229970  22.4882790  40.5221990
  30.1820110  22.5033020  40.6969680  31.4374040  21.7018750  40.9682290
  21.1011610  24.1702390  34.0825950  21.8674880  24.0583750  34.6451380
  21.1786300  23.4740360  33.4302720  19.7958370  21.6027460  34.7658840
  19.8761960  20.6554970  34.8776240  20.6878120  21.9334340  34.8719500
  33.1255550  29.6591640  42.1976250  33.2502970  30.4822810  42.6700060
  33.9921110  29.4482370  41.8500400  20.5973080  31.7522850  41.8693380
  21.3335560  31.2038310  42.1401950  20.9814000  32.6178860  41.7299370
  17.4818560  27.8196420  37.7434890  16.5558340  28.0617560  37.7340300
  17.9474990  28.6470680  37.6219640  23.7075390  30.9253160  33.6918950
  24.5004000  31.2141990  33.2400740  23.1879740  30.4945330  33.0131430
  32.7605560  30.1523290  35.1155690  32.4747070  29.7388430  34.3009870
  32.5625110  31.0811000  34.9956210  24.2252790  26.1456570  33.5561300
  24.1203430  25.5308920  34.2822680  24.0577010  25.6222460  32.7724310
  27.4655520  25.2076600  34.1603290  26.9165620  25.6545900  34.8046030
  28.0874780  24.7025850  34.6840960  23.1330640  24.1667520  36.0568590
  23.5547060  24.0007390  36.8999980  23.2581480  23.3567750  35.5623730
  25.6458280  23.1905130  33.3045690  26.1663940  22.4754150  32.9386840
  26.2926680  23.8291000  33.6046200  22.0289540  20.2400750  33.0026750
  21.8278600  19.3768110  33.3640090  21.8581590  20.1534110  32.0648350
  29.5077850  15.0508980  35.5313630  29.7880140  14.2076880  35.8873050
  28.7343580  15.2832090  36.0452380  20.8272340  17.3401370  32.9904630
  21.1298240  17.3468800  32.0823780  21.5666930  16.9899230  33.4872290
  24.0457270  16.2835990  33.9760830  23.6979270  15.6059980  33.3963280
  24.2470040  15.8225500  34.7904220  26.2106310  31.2716740  35.5947430
  27.1057100  31.6101710  35.6166190  26.2423940  30.5496150  34.9671710
  19.8502470  26.6443790  33.8234430  20.2877340  27.1873460  34.4792010
  20.3350200  25.8190740  33.8330770  17.0648270  29.4332820  41.2754690
  17.3951280  28.5653880  41.0433330  17.4939270  29.6391340  42.1059650
  21.6610190  27.7641830  38.9356660  21.3605730  27.6406800  39.8360570
  21.5547680  26.9050420  38.5272390  17.5538480  30.3003410  44.0136320
  17.1169470  30.4804210  44.8460470  18.1216160  31.0578030  43.8718040
  34.4302110  27.5438230  33.6383340  33.5995070  27.6114880  34.1090570
  34.6073940  28.4342350  33.3350200  33.8858570  24.2885710  36.1417540
  34.6477480  24.8582360  36.2477230  33.9012940  23.7212910  36.9125850
  17.3862910  22.8123640  40.3725200  16.7311750  22.5435280  39.7284900
  18.2240860  22.7028120  39.9227180  34.8918540  25.1435810  40.9859470
  35.2627370  24.3603130  40.5795440  35.5320470  25.8324910  40.8076770
  33.9377740  24.5820080  33.2990060  34.2126580  25.4898960  33.1709280
  33.7488480  24.5182610  34.2352050  30.3353350  17.6064930  34.5943690
  30.7538230  17.4195910  33.7540350  30.0289410  16.7543980  34.9046620
  33.8343080  22.5189070  38.2919490  33.4586680  21.7517000  37.8600780
  33.1046200  22.9011770  38.7794420  16.6000990  20.0222570  36.3150530
  15.6965070  20.2852770  36.1402190  17.0841610  20.2933740  35.5350490
  33.1094040  20.7446560  41.5926730  33.6331520  20.2509210  40.9616900
  33.6953460  20.8796920  42.3374300  19.1428200  19.0788110  34.2244910
  19.8519900  18.6571330  33.7392190  18.4268140  19.1463340  33.5928260
  18.7902360  15.1327440  33.2647560  19.5130490  15.6736380  33.5828780
  19.0626880  14.8590860  32.3889100  32.5994010  20.0019910  37.5319140
  33.0953130  19.7690780  38.3168020  32.4010080  19.1631750  37.1156780
  18.4794550  14.3833630  43.1670180  19.1270740  13.8331010  42.7265340
  18.8996390  14.6376780  43.9885990  34.0281170  18.6380860  40.0656820
  33.9180450  18.4836900  41.0039090  34.7888760  18.1101800  39.8232230
  34.9171440  16.4688780  33.3062960  35.8420750  16.3369960  33.0981250
  34.8947230  16.5481600  34.2599410  34.9909930  17.2399440  35.9319670
  34.1961430  17.1744560  36.4612580  35.1953210  18.1750080  35.9205020
  31.9328350  31.2790990  39.9258060  32.5287420  30.9575560  39.2492480
  32.1906500  30.8062810  40.7171330  32.4840560  31.9286290  43.7555790
  32.0243530  32.6802100  43.3813810  31.8553020  31.2092760  43.6970590
  22.9136280  30.2374530  42.9303920  23.4301300  29.6261890  42.4052180
  23.5633660  30.7403310  43.4214930  25.6531780  31.1283020  43.7572900
  25.9409590  30.8737320  42.8805910  26.1655000  30.5760380  44.3478470
  26.8708790  14.8673220  44.3369410  26.0880580  15.3418720  44.6166170
  26.5771720  13.9628050  44.2282590  31.4229860  15.5696320  42.3818500
  31.8637950  15.5141420  41.5340100  31.1537450  16.4854330  42.4528680
  33.2868430  15.2011560  40.3927320  33.2256830  14.2572780  40.2458340
  34.0660460  15.3091650  40.9380780  17.5921180  31.3403920  39.3551270
  17.4243220  30.7074600  40.0533160  16.7255690  31.5463320  39.0045460
  18.2149200  15.1720700  36.8583130  18.9728560  15.2849580  36.2847160
  17.7526370  16.0089900  36.8126560  24.7563010  17.2859970  39.8485440
  23.9437520  16.9116860  39.5081320  25.2604650  16.5305050  40.1506630
  29.2587990  13.9502420  41.0868510  29.8617360  14.5222630  41.5617030
  28.5180980  14.5141860  40.8642410  32.4022590  14.3523980  36.3608790
  32.5973220  15.2507430  36.6276220  31.6152460  14.1211060  36.8541740
  19.1983880  30.0337150  36.8001410  18.6731500  30.4145180  36.0963370
  19.1228460  30.6587920  37.5211120  20.5874350  15.6984750  35.3985100
  21.1167110  14.9114550  35.2693050  21.2202670  16.3775940  35.6320630
  22.7812190  15.4359890  38.4530490  22.1514930  14.7347200  38.6200620
  22.2417330  16.1964020  38.2363650  33.9549200  31.5924690  38.1215350
  34.1301390  30.9062430  37.4776270  33.2570770  32.1171740  37.7292020
  21.7976850  31.9819530  35.6750660  22.5295670  31.6978810  35.1274550
  22.0570520  31.7432810  36.5650040  20.9591640  28.0984260  35.6796990
  20.3300520  28.5669360  36.2282820  21.0739470  27.2533480  36.1143180
  30.5666830  28.3329130  22.4906590  30.1048360  27.5616370  22.8193760
  31.3792380  28.3595200  22.9959040  20.5426490  28.2728840  24.7841240
  20.8454530  27.3826580  24.6051460  21.2870080  28.8299060  24.5563490
  18.9717180  19.1990640  18.3725610  18.0833880  19.5406610  18.2705490
  19.2558370  18.9990960  17.4806440  16.9350190  21.7996290  24.2565310
  17.5066300  21.0318490  24.2568950  16.9351730  22.0985050  23.3471920
  26.7930140  30.6187140  22.1110580  26.1741580  31.0744640  21.5405020
  27.6481920  30.7738600  21.7100280  18.1775060  17.2080650  26.0434240
  17.9977900  16.3106400  26.3237000  17.7755140  17.7552520  26.7181190
  21.1478570  17.7822140  19.4063990  21.2545320  18.6825870  19.7132750
  20.2370930  17.7340110  19.1158640  30.7997680  16.9046950  20.8774890
  31.6207300  16.4143520  20.9200370  30.8331760  17.4944610  21.6306730
  18.7961730  19.7041150  24.6516580  19.4771840  19.9679520  25.2703980
  18.4809780  18.8642020  24.9854590  35.0897230  18.9213700  27.4418520
  34.3849400  19.3095410  26.9233630  35.3555150  19.6163990  28.0439450
  21.2722400  15.3907070  28.0052590  21.2740840  15.9079460  27.1998490
  20.4426710  14.9137250  27.9822520  20.9537730  17.1017030  26.0123040
  21.2954540  17.9459080  25.7176910  20.0153540  17.2500770  26.1288380
  21.7344350  26.9983050  27.9975270  22.3518350  27.6734130  27.7159720
  20.8737470  27.4071030  27.9062770  17.0276690  26.1882910  16.8782120
  16.6504670  26.6770010  16.1467020  17.2849760  26.8608190  17.5088650
  32.6521940  28.4622460  25.9129910  31.9685460  29.1321570  25.9046580
  33.1916230  28.6603110  25.1474770  34.1046080  18.2902120  24.0411640
  33.1570990  18.3241100  24.1727070  34.4296070  19.1041070  24.4261000
  24.6365620  14.5899300  22.3367630  24.9440600  14.0346190  21.6203130
  23.7066320  14.7243760  22.1540620  30.1880680  30.3066590  24.6275090
  30.2007840  29.9028880  23.7597350  29.6355900  31.0813880  24.5236520
  31.4826100  27.0282810  19.7165260  31.3722430  26.0857140  19.8414680
  31.4794350  27.3898450  20.6028020  27.0115460  18.9265130  16.0694910
  26.0719130  19.0879090  16.1547370  27.3298720  19.6450810  15.5230900
  33.5328220  23.6083650  26.0473940  32.7046850  23.6776740  25.5724070
  34.1278700  24.1937960  25.5789770  31.0543670  24.2168430  19.5763000
  30.4356090  23.8787980  18.9289300  31.0368120  23.5728190  20.2842190
  30.4970230  20.3952970  26.9928810  30.0841410  21.2206680  27.2468800
  29.7646180  19.8098010  26.8005170  31.1870330  30.4412300  27.6809790
  30.7100890  31.2484490  27.4882400  30.5032120  29.7890630  27.8336000
  22.1903150  26.6062120  30.6694490  21.2931680  26.8302090  30.9167890
  22.2156020  26.7297060  29.7205890  29.2308370  23.4555240  16.5835750
  29.6701650  22.6177670  16.4373570  29.9436790  24.0884640  16.6699890
  21.0174370  23.4775440  29.2451860  20.8782140  24.3498240  29.6139260
  20.1355730  23.1348250  29.0999800  27.3403750  28.3951310  20.5516990
  27.7799660  29.1375640  20.1372380  27.2790640  28.6377880  21.4755950
  22.8154720  29.4197140  31.4537010  22.7870150  29.8240090  30.5865440
  22.6519690  28.4907500  31.2908610  32.8125510  14.7098050  14.8976790
  32.4998170  14.8024880  15.7975860  33.5737980  15.2879080  14.8474220
  19.3307650  22.0757850  19.3554130  19.2105250  22.8019940  18.7435400
  19.0208540  21.3060760  18.8782040  34.7669540  30.2024240  32.7501180
  35.2429260  30.6807130  33.4290260  35.3876700  30.1341730  32.0246680
  16.9693020  25.2472990  25.1622770  17.0473440  25.3821760  24.2178490
  17.5834700  24.5388880  25.3550890  18.2140650  26.9473180  21.5728950
  17.8068730  27.0887770  20.7182550  19.1053660  26.6633340  21.3700160
  34.1702790  27.3937090  29.9101190  34.2965850  27.1548970  28.9918370
  34.2124170  26.5621630  30.3823270  28.0319530  31.0965090  28.4796000
  28.5464200  31.0073100  29.2818430  27.1888610  31.4424790  28.7723910
  30.0073930  31.3820430  17.9080000  29.8475070  31.0923370  18.8061830
  29.8420640  30.6060560  17.3725230  22.4862310  31.1618960  19.6851620
  22.3104790  30.2454500  19.4719420  21.6318050  31.5206250  19.9249420
  29.7100060  28.8907990  16.4678000  29.0165220  28.8885280  15.8080280
  30.4522920  28.4667310  16.0372170  29.2749990  30.5170700  20.5426490
  29.7306940  29.7360080  20.8565110  29.6142510  31.2277520  21.0867670
  34.0226800  19.4469550  30.8750930  33.4071070  19.9549220  30.3466390
  33.7023220  18.5467880  30.8176870  17.0252540  26.2887160  27.7017230
  17.1883580  25.8192520  26.8836600  17.4904990  25.7810720  28.3666070
  21.7971310  15.4192920  22.7377800  21.3539460  16.2002460  22.4062320
  22.3556300  15.7422810  23.4448740  26.0841120  18.2861440  28.3413120
  25.6220490  18.4944460  29.1533060  25.6819230  17.4720790  28.0383790
  31.0845630  19.5070390  29.4709780  30.2339220  19.2076140  29.7918850
  30.9247420  19.7512400  28.5593600  28.1795340  21.0072140  31.5708570
  28.5048750  20.1735890  31.2310800  28.9675670  21.5300660  31.7186900
  24.9130130  15.0403620  17.6183630  24.2884310  15.0363490  18.3436940
  24.8260250  14.1734580  17.2219600  23.8347210  15.9640250  24.5967400
  24.1319540  16.8703080  24.5159420  24.3832770  15.4759030  23.9826970
  28.8183290  20.5489860  19.0649700  28.2192180  21.2725660  18.8813320
  29.3662900  20.4866640  18.2826150  24.0284740  21.4412070  31.1319320
  23.9328340  20.5006800  30.9819720  24.8716720  21.6627140  30.7367390
  19.1595280  17.8525740  29.2853100  18.7658670  18.7000950  29.4925880
  18.4713680  17.2152110  29.4761740  25.7340330  17.9360710  32.3549840
  25.0438650  17.7432910  32.9895930  26.4772630  18.2195350  32.8874140
  16.4612330  15.7754200  23.3183180  16.1725380  16.3457060  24.0308160
  17.2058090  15.2958650  23.6814410  16.6482560  19.7174320  14.5285900
  16.5657230  20.6605080  14.6700890  16.2965620  19.5749230  13.6498250
  20.2983070  18.3339840  22.5550460  19.9583120  18.8115070  23.3117510
  19.5360390  17.8804960  22.1951560  24.5100840  19.4525430  16.5863010
  24.6313660  19.4111910  17.5348830  24.1249350  20.3149580  16.4309740
  28.4729210  17.2292830  24.6026700  28.4901950  17.6801480  25.4468550
  28.2244790  16.3298470  24.8160140  23.5222340  21.7626570  15.9846310
  22.9539240  21.3144820  15.3582220  24.2311340  22.1219350  15.4511460
  31.8999960  14.6425010  30.4413080  32.2245730  13.9114670  30.9671060
  31.9356470  14.3238650  29.5394070  18.5991520  25.6638590  29.8613040
  18.2146310  25.0232260  30.4596000  18.9103710  26.3674710  30.4307770
  17.6129150  17.2558820  21.4715130  17.3276070  16.8914490  22.3093750
  17.5508010  16.5239280  20.8578270  21.0669820  25.7584760  18.2572720
  20.2932080  25.2182380  18.0971440  21.7964450  25.2391370  17.9190480
  27.2867740  16.1488080  18.1928500  26.4732350  15.6501250  18.1173810
  27.0929690  16.9886330  17.7764850  27.2076600  24.8259180  29.9368110
  27.1413910  23.9054850  29.6825700  26.5781740  24.9234620  30.6512750
  30.0016130  20.5207730  16.4890660  30.8895750  20.8324960  16.3142000
  29.9721220  19.6479980  16.0971240  25.9976720  26.6931420  17.1678830
  26.3392420  27.4373650  16.6722150  25.1689430  27.0062540  17.5303660
  18.5951760  22.3926510  28.8077230  18.2366700  23.0580360  29.3950570
  18.3006320  21.5610060  29.1789850  21.7964880  22.8510750  31.6916780
  21.4965020  22.9967930  30.7944600  22.5676120  22.2916040  31.5990170
  27.1393330  27.6479750  29.6871910  27.1537870  26.7160710  29.4690820
  26.4318430  27.7339510  30.3261680  32.2730400  21.8319570  15.9570520
  32.1894120  22.2633790  15.1066960  32.9924590  22.2917920  16.3897340
  33.3504540  24.2887090  29.0340490  32.6252730  24.8815870  28.8369880
  33.8780000  24.2810630  28.2353860  33.3017650  28.6861830  18.6852650
  32.6593810  28.0317450  18.9596370  32.9148310  29.0916920  17.9093320
  24.9667410  26.7744950  19.9394750  25.6538540  27.3214160  20.3202340
  24.1799830  27.3185680  19.9744360  17.1059810  22.3917770  15.4311830
  17.9754660  22.6742570  15.7147750  16.6150130  23.2053640  15.3160640
  26.5727230  29.2897320  26.7812410  27.2169450  29.4956700  27.4585830
  26.9356670  28.5285720  26.3283260  20.1706400  14.1228630  20.0242630
  20.0421030  14.1146530  20.9727550  19.3468420  14.4611720  19.6733640
  31.6915030  27.5778290  15.2229000  31.4652610  26.8608730  15.8153640
  31.3011230  27.3290730  14.3850750  29.6196930  28.0924570  28.7025920
  29.9553170  28.6791260  29.3803840  28.6997270  27.9617280  28.9323710
  17.4731060  31.6045150  15.9973460  17.8328700  32.2034490  15.3430730
  17.3323400  32.1505040  16.7708490  17.1700330  15.8819750  29.4849330
  16.4558850  16.0816670  30.0901940  17.5895370  15.1059320  29.8564130
  31.2731280  25.4950230  16.8843160  30.9852980  25.9562920  17.6721040
  32.0683450  25.0348000  17.1527380  17.4572920  29.8700010  30.4715860
  17.5664040  28.9294750  30.3311250  16.8053480  30.1354760  29.8229590
  25.4485510  28.1415900  31.8713980  25.1282380  27.4225140  32.4159670
  24.7743870  28.8170970  31.9450040  23.4899680  28.9876350  16.8147130
  23.4809780  29.7206040  16.1991640  22.5698040  28.7407930  16.9074090
  19.0906320  24.2091240  17.5593890  18.4834270  24.9490140  17.5689190
  19.5655670  24.2990600  16.7332090  28.6639110  18.3742060  27.2350780
  29.0319930  17.5537270  27.5630350  27.8037310  18.4343950  27.6506430
  32.0301140  17.3299000  18.0438340  31.4014300  17.4344670  17.3296570
  31.5353060  17.5495780  18.8332220  26.4759280  29.0504590  15.4772320
  26.5771260  28.8468580  14.5474300  25.5761020  28.7962870  15.6820100
  23.9985170  19.6084950  19.4596220  23.2901320  20.0771290  19.9009830
  24.2829650  18.9506960  20.0941410  28.0300600  16.3335610  20.8992010
  27.9068380  16.3521740  19.9501520  28.9785160  16.3814550  21.0190410
  25.1177390  31.5690910  20.1719990  25.3718890  31.5312300  19.2499360
  24.1689870  31.4424240  20.1648240  22.2020190  17.9170030  16.8346930
  23.0510720  18.3540180  16.7687120  21.8351460  18.2290290  17.6618990
  32.8307960  17.2449610  28.3017140  32.3281560  17.9855010  28.6410950
  33.6464620  17.6333610  27.9853930  21.1011610  24.1702390  15.3082460
  21.8674880  24.0583750  15.8707890  21.1786300  23.4740360  14.6559230
  19.7958370  21.6027460  15.9915350  19.8761960  20.6554970  16.1032750
  20.6878120  21.9334340  16.0976010  33.1255550  29.6591640  23.4232760
  33.2502970  30.4822810  23.8956570  33.9921110  29.4482370  23.0756910
  20.5973080  31.7522850  23.0949890  21.3335560  31.2038310  23.3658460
  20.9814000  32.6178860  22.9555880  17.4818560  27.8196420  18.9691400
  16.5558340  28.0617560  18.9596810  17.9474990  28.6470680  18.8476150
  19.6031360  30.9368920  32.2835470  20.4044090  31.2580970  32.6970870
  19.0883180  30.5764500  33.0055380  23.7075390  30.9253160  14.9175460
  24.5004000  31.2141990  14.4657250  23.1879740  30.4945330  14.2387940
  28.4395990  27.0448790  32.2310880  27.8334150  27.0680390  31.4906630
  28.1350100  26.3131830  32.7678130  29.8696360  30.7729080  30.8420290
  30.8218110  30.6887100  30.7920530  29.7224580  31.4370790  31.5154080
  32.7605560  30.1523290  16.3412200  32.4747070  29.7388430  15.5266380
  32.5625110  31.0811000  16.2212720  17.3229170  23.4242380  31.2271520
  17.8268190  22.8449660  31.7987750  16.5836590  23.7082610  31.7647890
  24.2252790  26.1456570  14.7817810  24.1203430  25.5308920  15.5079190
  24.0577010  25.6222460  13.9980820  24.3767110  24.8313370  30.7607040
  23.6112780  25.3998370  30.6761710  24.5583070  24.5389580  29.8675270
  27.4655520  25.2076600  15.3859800  26.9165620  25.6545900  16.0302540
  28.0874780  24.7025850  15.9097470  31.5190460  26.5618700  31.3182060
  32.2599930  26.8994460  30.8149520  30.7563140  26.7310760  30.7651830
  19.3552250  21.5671970  32.1221590  19.3957590  21.2685840  33.0306820
  20.2097750  21.9679580  31.9629110  23.1330640  24.1667520  17.2825100
  23.5547060  24.0007390  18.1256490  23.2581480  23.3567750  16.7880240
  21.2958060  20.1464070  30.0896080  20.7654520  19.6555020  29.4619420
  21.9646130  20.5748270  29.5554010  25.6458280  23.1905130  14.5302200
  26.1663940  22.4754150  14.1643350  26.2926680  23.8291000  14.8302710
  30.1936120  24.6133530  29.8537270  30.6077140  24.7678610  30.7027690
  29.2587120  24.7388750  30.0163050  30.6658290  21.9529690  31.8576420
  31.2479060  21.1982010  31.7696900  30.8420060  22.4837130  31.0807900
  21.7830360  17.1126440  30.1693370  21.6887230  16.4947190  29.4444240
  21.2027750  17.8392730  29.9423280  24.5491800  15.6699680  27.2020760
  24.1009100  15.6923940  26.3566310  23.9157000  15.2718700  27.7991060
  27.2915250  22.2970190  29.2071040  27.4111460  21.7011330  29.9465880
  28.1509250  22.3339880  28.7872340  22.0289540  20.2400750  14.2283260
  21.8278600  19.3768110  14.5896600  21.8581590  20.1534110  13.2904860
  22.8058770  30.8707020  28.9390930  22.2679860  31.5953080  28.6199630
  23.0592730  30.3937360  28.1488270  24.0584020  18.8391540  30.4646860
  24.6483710  18.5307390  31.1524680  23.2404260  18.3671290  30.6206760
  28.8777450  18.4557350  30.6979880  28.1892970  17.7938890  30.6329870
  29.5983470  18.0095620  31.1428340  29.5077850  15.0508980  16.7570140
  29.7880140  14.2076880  17.1129560  28.7343580  15.2832090  17.2708890
  20.8272340  17.3401370  14.2161140  21.1298240  17.3468800  13.3080290
  21.5666930  16.9899230  14.7128800  25.6620980  32.1058230  29.1977580
  25.5879680  33.0093370  29.5049950  24.7599820  31.7870130  29.1699650
  24.0457270  16.2835990  15.2017340  23.6979270  15.6059980  14.6219790
  24.2470040  15.8225500  16.0160730  26.2106310  31.2716740  16.8203940
  27.1057100  31.6101710  16.8422700  26.2423940  30.5496150  16.1928220
  19.8502470  26.6443790  15.0490940  20.2877340  27.1873460  15.7048520
  20.3350200  25.8190740  15.0587280  17.0648270  29.4332820  22.5011200
  17.3951280  28.5653880  22.2689840  17.4939270  29.6391340  23.3316160
  21.6610190  27.7641830  20.1613170  21.3605730  27.6406800  21.0617080
  21.5547680  26.9050420  19.7528900  17.5538480  30.3003410  25.2392830
  17.1169470  30.4804210  26.0716980  18.1216160  31.0578030  25.0974550
  33.1900660  29.8020410  29.5270140  32.5902650  29.8612970  28.7834060
  33.3194560  28.8625390  29.6566990  34.4302110  27.5438230  14.8639850
  33.5995070  27.6114880  15.3347080  34.6073940  28.4342350  14.5606710
  33.8858570  24.2885710  17.3674050  34.6477480  24.8582360  17.4733740
  33.9012940  23.7212910  18.1382360  17.3862910  22.8123640  21.5981710
  16.7311750  22.5435280  20.9541410  18.2240860  22.7028120  21.1483690
  34.8918540  25.1435810  22.2115980  35.2627370  24.3603130  21.8051950
  35.5320470  25.8324910  22.0333280  31.8752300  26.5272390  27.6246300
  31.0612140  26.9569550  27.8872090  32.2826500  27.1390800  27.0115350
  33.9377740  24.5820080  14.5246570  34.2126580  25.4898960  14.3965790
  33.7488480  24.5182610  15.4608560  30.3353350  17.6064930  15.8200200
  30.7538230  17.4195910  14.9796860  30.0289410  16.7543980  16.1303130
  33.8343080  22.5189070  19.5176000  33.4586680  21.7517000  19.0857290
  33.1046200  22.9011770  20.0050930  33.2242700  21.6660590  29.1515520
  32.9928790  21.4373340  28.2513470  33.4847250  22.5860140  29.1060410
  17.9754840  20.1085300  30.0443470  17.0810890  20.0752060  30.3837180
  18.5152390  20.3072090  30.8094720  31.6630770  16.8917020  31.9295220
  32.5400950  16.9000420  32.3129220  31.6751610  16.1547860  31.3187570
  16.6000990  20.0222570  17.5407040  15.6965070  20.2852770  17.3658700
  17.0841610  20.2933740  16.7607000  33.1094040  20.7446560  22.8183240
  33.6331520  20.2509210  22.1873410  33.6953460  20.8796920  23.5630810
  33.2883760  20.8286430  26.3402790  32.3386470  20.7949970  26.4547780
  33.4696770  21.7386540  26.1052560  19.1428200  19.0788110  15.4501420
  19.8519900  18.6571330  14.9648700  18.4268140  19.1463340  14.8184770
  18.7902360  15.1327440  14.4904070  19.5130490  15.6736380  14.8085290
  19.0626880  14.8590860  13.6145610  32.5994010  20.0019910  18.7575650
  33.0953130  19.7690780  19.5424530  32.4010080  19.1631750  18.3413290
  18.4794550  14.3833630  24.3926690  19.1270740  13.8331010  23.9521850
  18.8996390  14.6376780  25.2142500  34.0281170  18.6380860  21.2913330
  33.9180450  18.4836900  22.2295600  34.7888760  18.1101800  21.0488740
  32.3746890  14.5774990  27.7496330  33.0119110  15.1909130  28.1155520
  32.5221780  14.6135650  26.8045560  34.9171440  16.4688780  14.5319470
  35.8420750  16.3369960  14.3237760  34.8947230  16.5481600  15.4855920
  34.9909930  17.2399440  17.1576180  34.1961430  17.1744560  17.6869090
  35.1953210  18.1750080  17.1461530  31.9328350  31.2790990  21.1514570
  32.5287420  30.9575560  20.4748990  32.1906500  30.8062810  21.9427840
  18.2326550  14.5389300  27.1352010  17.8841370  14.9953120  27.9010190
  17.9014250  13.6446430  27.2174440  19.8390920  27.7108900  31.3005200
  19.7960550  27.3401810  32.1819660  19.9701930  28.6486470  31.4407020
  23.5396950  29.2668490  26.9014920  23.2988310  29.5343050  26.0145440
  24.4799590  29.4374220  26.9565780  25.7451370  15.7301180  30.6571430
  25.6840260  16.3223010  31.4066840  26.6851750  15.6227140  30.5121690
  28.3825930  15.3871240  30.2963720  28.9966340  15.7050530  29.6344800
  28.9275490  14.9019830  30.9159580  34.8001110  31.2862870  27.7025560
  34.3059390  31.6831740  26.9852690  34.1914400  30.6612080  28.0962840
  18.9047190  14.0665500  30.4102780  19.4530180  13.8853550  29.6468890
  18.9702500  13.2759610  30.9459090  19.6778950  30.6571150  28.4202980
  19.0839270  30.5255850  29.1593020  19.6702790  29.8209290  27.9545080
  29.1233970  13.9503380  26.6233010  28.2493810  14.2838490  26.4205940
  29.0144720  13.4776560  27.4484880  30.0305950  16.1574250  28.0074730
  29.7019310  15.3426010  27.6276460  30.9788250  16.1144060  27.8840420
  32.4840560  31.9286290  24.9812300  32.0243530  32.6802100  24.6070320
  31.8553020  31.2092760  24.9227100  19.3091180  28.0229530  27.3711020
  18.5825240  27.4034820  27.3036970  19.3700330  28.4170140  26.5009100
  22.9136280  30.2374530  24.1560430  23.4301300  29.6261890  23.6308690
  23.5633660  30.7403310  24.6471440  25.6531780  31.1283020  24.9829410
  25.9409590  30.8737320  24.1062420  26.1655000  30.5760380  25.5734980
  26.8708790  14.8673220  25.5625920  26.0880580  15.3418720  25.8422680
  26.5771720  13.9628050  25.4539100  31.4229860  15.5696320  23.6075010
  31.8637950  15.5141420  22.7596610  31.1537450  16.4854330  23.6785190
  33.2868430  15.2011560  21.6183830  33.2256830  14.2572780  21.4714850
  34.0660460  15.3091650  22.1637290  17.5921180  31.3403920  20.5807780
  17.4243220  30.7074600  21.2789670  16.7255690  31.5463320  20.2301970
  18.2149200  15.1720700  18.0839640  18.9728560  15.2849580  17.5103670
  17.7526370  16.0089900  18.0383070  24.7563010  17.2859970  21.0741950
  23.9437520  16.9116860  20.7337830  25.2604650  16.5305050  21.3763140
  29.2587990  13.9502420  22.3125020  29.8617360  14.5222630  22.7873540
  28.5180980  14.5141860  22.0898920  32.4022590  14.3523980  17.5865300
  32.5973220  15.2507430  17.8532730  31.6152460  14.1211060  18.0798250
  19.1983880  30.0337150  18.0257920  18.6731500  30.4145180  17.3219880
  19.1228460  30.6587920  18.7467630  20.5874350  15.6984750  16.6241610
  21.1167110  14.9114550  16.4949560  21.2202670  16.3775940  16.8577140
  22.7812190  15.4359890  19.6787000  22.1514930  14.7347200  19.8457130
  22.2417330  16.1964020  19.4620160  25.7204140  32.0499120  32.3497610
  26.6471450  31.8143390  32.3933570  25.7054570  32.8771120  31.8683640
  33.9549200  31.5924690  19.3471860  34.1301390  30.9062430  18.7032780
  33.2570770  32.1171740  18.9548530  22.9067750  14.7143870  32.1139490
  22.6252020  15.2177470  31.3500310  23.2887450  13.9165620  31.7481620
  21.7976850  31.9819530  16.9007170  22.5295670  31.6978810  16.3531060
  22.0570520  31.7432810  17.7906550  20.9591640  28.0984260  16.9053500
  20.3300520  28.5669360  17.4539330  21.0739470  27.2533480  17.3399690
  29.5083210  14.1297450  32.6919960  29.3948660  14.4492060  33.5871480
  30.3252950  14.5309960  32.3957240  32.2881700  31.2768980  32.1738650
  33.0807020  30.7818210  31.9664610  32.5814850  31.9559120  32.7814260
  28.4141360  22.1489920   3.0554700  28.3335410  21.2344530   2.7846410
  28.0005780  22.6456990   2.3494410  26.5459400  23.9268940   4.9363970
  25.7701500  23.4469380   5.2262540  27.1972330  23.2474590   4.7620130
  20.5625230  24.2388750   5.8139730  19.7310110  23.9837460   6.2136240
  21.1706210  24.3099520   6.5497650  30.5666830  28.3329130   3.7163100
  30.1048360  27.5616370   4.0450270  31.3792380  28.3595200   4.2215550
  20.5426490  28.2728840   6.0097750  20.8454530  27.3826580   5.8307970
  21.2870080  28.8299060   5.7820000  16.9350190  21.7996290   5.4821820
  17.5066300  21.0318490   5.4825460  16.9351730  22.0985050   4.5728430
  26.7930140  30.6187140   3.3367090  26.1741580  31.0744640   2.7661530
  27.6481920  30.7738600   2.9356790  25.9868390  26.6026130   4.9434130
  25.9176670  25.6616070   4.7823260  26.7488250  26.6927540   5.5156700
  18.1775060  17.2080650   7.2690750  17.9977900  16.3106400   7.5493510
  17.7755140  17.7552520   7.9437700  27.0173560  19.4096510   5.1703060
  27.3938380  18.5368390   5.0576730  26.9193070  19.7455210   4.2793500
  30.7997680  16.9046950   2.1031400  31.6207300  16.4143520   2.1456880
  30.8331760  17.4944610   2.8563240  18.7961730  19.7041150   5.8773090
  19.4771840  19.9679520   6.4960490  18.4809780  18.8642020   6.2111100
  22.9886300  20.7508510   4.9645680  23.4964520  21.2489480   5.6050700
  23.5199540  19.9743710   4.7885040  35.0897230  18.9213700   8.6675030
  34.3849400  19.3095410   8.1490140  35.3555150  19.6163990   9.2695960
  21.2722400  15.3907070   9.2309100  21.2740840  15.9079460   8.4255000
  20.4426710  14.9137250   9.2079030  22.5225250  25.0302250   7.4082600
  22.1894630  25.6571170   8.0503670  22.6991930  25.5564130   6.6284270
  31.0359160  18.8447330   4.8758940  30.3314730  19.1332220   5.4562050
  31.3971320  19.6547440   4.5158500  20.9537730  17.1017030   7.2379550
  21.2954540  17.9459080   6.9433420  20.0153540  17.2500770   7.3544890
  21.7344350  26.9983050   9.2231780  22.3518350  27.6734130   8.9416230
  20.8737470  27.4071030   9.1319280  32.6521940  28.4622460   7.1386420
  31.9685460  29.1321570   7.1303090  33.1916230  28.6603110   6.3731280
  34.1046080  18.2902120   5.2668150  33.1570990  18.3241100   5.3983580
  34.4296070  19.1041070   5.6517510  24.6365620  14.5899300   3.5624140
  24.9440600  14.0346190   2.8459640  23.7066320  14.7243760   3.3797130
  30.1880680  30.3066590   5.8531600  30.2007840  29.9028880   4.9853860
  29.6355900  31.0813880   5.7493030  29.5866120  25.2096430   7.1814210
  30.0034910  24.9956540   6.3467670  30.3105940  25.4669220   7.7522830
  33.5328220  23.6083650   7.2730450  32.7046850  23.6776740   6.7980580
  34.1278700  24.1937960   6.8046280  30.4970230  20.3952970   8.2185320
  30.0841410  21.2206680   8.4725310  29.7646180  19.8098010   8.0261680
  22.6303020  23.1812870   3.0803990  22.2260020  22.4690120   2.5849890
  22.7166140  22.8366110   3.9692030  23.0984720  26.8680430   5.2443200
  22.8013010  26.2625900   4.5650980  24.0484540  26.9057740   5.1332560
  21.3431640  19.9556080   6.8603030  21.8946230  20.0651420   6.0856280
  21.8575150  20.3293680   7.5758260  31.1870330  30.4412300   8.9066300
  30.7100890  31.2484490   8.7138910  30.5032120  29.7890630   9.0592510
  22.1903150  26.6062120  11.8951000  21.2931680  26.8302090  12.1424400
  22.2156020  26.7297060  10.9462400  21.0174370  23.4775440  10.4708370
  20.8782140  24.3498240  10.8395770  20.1355730  23.1348250  10.3256310
  22.8154720  29.4197140  12.6793520  22.7870150  29.8240090  11.8121950
  22.6519690  28.4907500  12.5165120  34.7669540  30.2024240  13.9757690
  35.2429260  30.6807130  14.6546770  35.3876700  30.1341730  13.2503190
  16.9693020  25.2472990   6.3879280  17.0473440  25.3821760   5.4435000
  17.5834700  24.5388880   6.5807400  18.2140650  26.9473180   2.7985460
  17.8068730  27.0887770   1.9439060  19.1053660  26.6633340   2.5956670
  34.1702790  27.3937090  11.1357700  34.2965850  27.1548970  10.2174880
  34.2124170  26.5621630  11.6079780  28.0319530  31.0965090   9.7052510
  28.5464200  31.0073100  10.5074940  27.1888610  31.4424790   9.9980420
  29.2749990  30.5170700   1.7683000  29.7306940  29.7360080   2.0821620
  29.6142510  31.2277520   2.3124180  34.0226800  19.4469550  12.1007440
  33.4071070  19.9549220  11.5722900  33.7023220  18.5467880  12.0433380
  17.0252540  26.2887160   8.9273740  17.1883580  25.8192520   8.1093110
  17.4904990  25.7810720   9.5922580  21.7971310  15.4192920   3.9634310
  21.3539460  16.2002460   3.6318830  22.3556300  15.7422810   4.6705250
  26.0841120  18.2861440   9.5669630  25.6220490  18.4944460  10.3789570
  25.6819230  17.4720790   9.2640300  31.0845630  19.5070390  10.6966290
  30.2339220  19.2076140  11.0175360  30.9247420  19.7512400   9.7850110
  28.1795340  21.0072140  12.7965080  28.5048750  20.1735890  12.4567310
  28.9675670  21.5300660  12.9443410  23.8347210  15.9640250   5.8223910
  24.1319540  16.8703080   5.7415930  24.3832770  15.4759030   5.2083480
  24.0284740  21.4412070  12.3575830  23.9328340  20.5006800  12.2076230
  24.8716720  21.6627140  11.9623900  19.1595280  17.8525740  10.5109610
  18.7658670  18.7000950  10.7182390  18.4713680  17.2152110  10.7018250
  25.7340330  17.9360710  13.5806350  25.0438650  17.7432910  14.2152440
  26.4772630  18.2195350  14.1130650  16.4612330  15.7754200   4.5439690
  16.1725380  16.3457060   5.2564670  17.2058090  15.2958650   4.9070920
  28.0103300  21.7759150   6.4160270  27.2784420  22.2845960   6.7650370
  27.6127640  20.9589130   6.1149050  24.4480690  18.4513350   4.8212760
  24.4516750  18.0103300   3.9717300  25.3431810  18.7730680   4.9284580
  20.2983070  18.3339840   3.7806970  19.9583120  18.8115070   4.5374020
  19.5360390  17.8804960   3.4208070  28.4729210  17.2292830   5.8283210
  28.4901950  17.6801480   6.6725060  28.2244790  16.3298470   6.0416650
  31.8999960  14.6425010  11.6669590  32.2245730  13.9114670  12.1927570
  31.9356470  14.3238650  10.7650580  18.5991520  25.6638590  11.0869550
  18.2146310  25.0232260  11.6852510  18.9103710  26.3674710  11.6564280
  24.7488660  22.5115130   6.5678170  25.1158790  22.0373700   7.3139510
  24.5593720  23.3856700   6.9086510  17.6129150  17.2558820   2.6971640
  17.3276070  16.8914490   3.5350260  17.5508010  16.5239280   2.0834780
  22.5388030  21.5523770   8.8862380  22.2345100  22.4315750   9.1112740
  23.4934490  21.6123560   8.9219820  31.8257800  24.7550120   5.2755620
  32.5456920  25.2505410   4.8851730  31.6239620  24.0768010   4.6309490
  27.2076600  24.8259180  11.1624620  27.1413910  23.9054850  10.9082210
  26.5781740  24.9234620  11.8769260  21.1107220  25.4265140   3.1208040
  21.6285890  24.6233400   3.0664930  20.6591240  25.3644280   3.9624870
  18.5951760  22.3926510  10.0333740  18.2366700  23.0580360  10.6207080
  18.3006320  21.5610060  10.4046360  21.7964880  22.8510750  12.9173290
  21.4965020  22.9967930  12.0201110  22.5676120  22.2916040  12.8246680
  27.1393330  27.6479750  10.9128420  27.1537870  26.7160710  10.6947330
  26.4318430  27.7339510  11.5518190  33.3504540  24.2887090  10.2597000
  32.6252730  24.8815870  10.0626390  33.8780000  24.2810630   9.4610370
  28.8804130  26.0147260   3.7580850  29.2327950  25.4175390   3.0982220
  27.9966460  25.6891490   3.9289100  26.5727230  29.2897320   8.0068920
  27.2169450  29.4956700   8.6842340  26.9356670  28.5285720   7.5539770
  27.8459310  27.2929670   6.7246370  28.4881540  26.5922830   6.8378540
  28.3708660  28.0728110   6.5443260  29.6196930  28.0924570   9.9282430
  29.9553170  28.6791260  10.6060350  28.6997270  27.9617280  10.1580220
  17.1700330  15.8819750  10.7105840  16.4558850  16.0816670  11.3158450
  17.5895370  15.1059320  11.0820640  17.4572920  29.8700010  11.6972370
  17.5664040  28.9294750  11.5567760  16.8053480  30.1354760  11.0486100
  25.4485510  28.1415900  13.0970490  25.1282380  27.4225140  13.6416180
  24.7743870  28.8170970  13.1706550  28.6639110  18.3742060   8.4607290
  29.0319930  17.5537270   8.7886860  27.8037310  18.4343950   8.8762940
  25.6241100  21.0281650   8.6845260  26.1226350  21.5027470   9.3497110
  25.7664050  20.1045170   8.8915290  32.8307960  17.2449610   9.5273650
  32.3281560  17.9855010   9.8667460  33.6464620  17.6333610   9.2110440
  31.1229970  22.4882790   2.9735010  30.1820110  22.5033020   3.1482700
  31.4374040  21.7018750   3.4195310  33.1255550  29.6591640   4.6489270
  33.2502970  30.4822810   5.1213080  33.9921110  29.4482370   4.3013420
  20.5973080  31.7522850   4.3206400  21.3335560  31.2038310   4.5914970
  20.9814000  32.6178860   4.1812390  19.6031360  30.9368920  13.5091980
  20.4044090  31.2580970  13.9227380  19.0883180  30.5764500  14.2311890
  28.4395990  27.0448790  13.4567390  27.8334150  27.0680390  12.7163140
  28.1350100  26.3131830  13.9934640  29.8696360  30.7729080  12.0676800
  30.8218110  30.6887100  12.0177040  29.7224580  31.4370790  12.7410590
  17.3229170  23.4242380  12.4528030  17.8268190  22.8449660  13.0244260
  16.5836590  23.7082610  12.9904400  24.3767110  24.8313370  11.9863550
  23.6112780  25.3998370  11.9018220  24.5583070  24.5389580  11.0931780
  31.5190460  26.5618700  12.5438570  32.2599930  26.8994460  12.0406030
  30.7563140  26.7310760  11.9908340  19.3552250  21.5671970  13.3478100
  19.3957590  21.2685840  14.2563330  20.2097750  21.9679580  13.1885620
  21.2958060  20.1464070  11.3152590  20.7654520  19.6555020  10.6875930
  21.9646130  20.5748270  10.7810520  30.1936120  24.6133530  11.0793780
  30.6077140  24.7678610  11.9284200  29.2587120  24.7388750  11.2419560
  30.6658290  21.9529690  13.0832930  31.2479060  21.1982010  12.9953410
  30.8420060  22.4837130  12.3064410  21.7830360  17.1126440  11.3949880
  21.6887230  16.4947190  10.6700750  21.2027750  17.8392730  11.1679790
  24.5491800  15.6699680   8.4277270  24.1009100  15.6923940   7.5822820
  23.9157000  15.2718700   9.0247570  24.9551350  24.5654010   9.0489710
  25.3739460  25.4086740   8.8765950  24.0359980  24.7026050   8.8196490
  27.2915250  22.2970190  10.4327550  27.4111460  21.7011330  11.1722390
  28.1509250  22.3339880  10.0128850  29.6303150  22.8507380   9.0090060
  29.1038370  23.3750000   8.4055200  29.9734490  23.4834770   9.6399790
  22.8058770  30.8707020  10.1647440  22.2679860  31.5953080   9.8456140
  23.0592730  30.3937360   9.3744780  24.0584020  18.8391540  11.6903370
  24.6483710  18.5307390  12.3781190  23.2404260  18.3671290  11.8463270
  28.8777450  18.4557350  11.9236390  28.1892970  17.7938890  11.8586380
  29.5983470  18.0095620  12.3684850  25.6620980  32.1058230  10.4234090
  25.5879680  33.0093370  10.7306460  24.7599820  31.7870130  10.3956160
  17.0648270  29.4332820   3.7267710  17.3951280  28.5653880   3.4946350
  17.4939270  29.6391340   4.5572670  17.5538480  30.3003410   6.4649340
  17.1169470  30.4804210   7.2973490  18.1216160  31.0578030   6.3231060
  33.1900660  29.8020410  10.7526650  32.5902650  29.8612970  10.0090570
  33.3194560  28.8625390  10.8823500  17.3862910  22.8123640   2.8238220
  16.7311750  22.5435280   2.1797920  18.2240860  22.7028120   2.3740200
  34.8918540  25.1435810   3.4372490  35.2627370  24.3603130   3.0308460
  35.5320470  25.8324910   3.2589790  31.8752300  26.5272390   8.8502810
  31.0612140  26.9569550   9.1128600  32.2826500  27.1390800   8.2371860
  18.4238840  23.1976210   7.3641560  18.7911880  23.1103610   8.2437580
  17.8549660  22.4342760   7.2648420  33.2242700  21.6660590  10.3772030
  32.9928790  21.4373340   9.4769980  33.4847250  22.5860140  10.3316920
  17.9754840  20.1085300  11.2699980  17.0810890  20.0752060  11.6093690
  18.5152390  20.3072090  12.0351230  31.6630770  16.8917020  13.1551730
  32.5400950  16.9000420  13.5385730  31.6751610  16.1547860  12.5444080
  33.1094040  20.7446560   4.0439750  33.6331520  20.2509210   3.4129920
  33.6953460  20.8796920   4.7887320  33.2883760  20.8286430   7.5659300
  32.3386470  20.7949970   7.6804290  33.4696770  21.7386540   7.3309070
  18.4794550  14.3833630   5.6183200  19.1270740  13.8331010   5.1778360
  18.8996390  14.6376780   6.4399010  34.0281170  18.6380860   2.5169840
  33.9180450  18.4836900   3.4552110  34.7888760  18.1101800   2.2745250
  32.3746890  14.5774990   8.9752840  33.0119110  15.1909130   9.3412030
  32.5221780  14.6135650   8.0302070  31.9328350  31.2790990   2.3771080
  32.5287420  30.9575560   1.7005500  32.1906500  30.8062810   3.1684350
  18.2326550  14.5389300   8.3608520  17.8841370  14.9953120   9.1266700
  17.9014250  13.6446430   8.4430950  19.8390920  27.7108900  12.5261710
  19.7960550  27.3401810  13.4076170  19.9701930  28.6486470  12.6663530
  23.5396950  29.2668490   8.1271430  23.2988310  29.5343050   7.2401950
  24.4799590  29.4374220   8.1822290  25.7451370  15.7301180  11.8827940
  25.6840260  16.3223010  12.6323350  26.6851750  15.6227140  11.7378200
  28.3825930  15.3871240  11.5220230  28.9966340  15.7050530  10.8601310
  28.9275490  14.9019830  12.1416090  34.8001110  31.2862870   8.9282070
  34.3059390  31.6831740   8.2109200  34.1914400  30.6612080   9.3219350
  18.9047190  14.0665500  11.6359290  19.4530180  13.8853550  10.8725400
  18.9702500  13.2759610  12.1715600  19.6778950  30.6571150   9.6459490
  19.0839270  30.5255850  10.3849530  19.6702790  29.8209290   9.1801590
  29.1233970  13.9503380   7.8489520  28.2493810  14.2838490   7.6462450
  29.0144720  13.4776560   8.6741390  30.0305950  16.1574250   9.2331240
  29.7019310  15.3426010   8.8532970  30.9788250  16.1144060   9.1096930
  32.4840560  31.9286290   6.2068810  32.0243530  32.6802100   5.8326830
  31.8553020  31.2092760   6.1483610  19.3091180  28.0229530   8.5967530
  18.5825240  27.4034820   8.5293480  19.3700330  28.4170140   7.7265610
  22.9136280  30.2374530   5.3816940  23.4301300  29.6261890   4.8565200
  23.5633660  30.7403310   5.8727950  25.6531780  31.1283020   6.2085920
  25.9409590  30.8737320   5.3318930  26.1655000  30.5760380   6.7991490
  26.8708790  14.8673220   6.7882430  26.0880580  15.3418720   7.0679190
  26.5771720  13.9628050   6.6795610  31.4229860  15.5696320   4.8331520
  31.8637950  15.5141420   3.9853120  31.1537450  16.4854330   4.9041700
  33.2868430  15.2011560   2.8440340  33.2256830  14.2572780   2.6971360
  34.0660460  15.3091650   3.3893800  24.7563010  17.2859970   2.2998460
  23.9437520  16.9116860   1.9594340  25.2604650  16.5305050   2.6019650
  29.2587990  13.9502420   3.5381530  29.8617360  14.5222630   4.0130050
  28.5180980  14.5141860   3.3155430  25.7204140  32.0499120  13.5754120
  26.6471450  31.8143390  13.6190080  25.7054570  32.8771120  13.0940150
  22.9067750  14.7143870  13.3396000  22.6252020  15.2177470  12.5756820
  23.2887450  13.9165620  12.9738130  29.5083210  14.1297450  13.9176470
  29.3948660  14.4492060  14.8127990  30.3252950  14.5309960  13.6213750
  32.2881700  31.2768980  13.3995160  33.0807020  30.7818210  13.1921120
  32.5814850  31.9559120  14.0070770  28.4141360   3.3746430  40.6041680
  28.3335410   2.4601040  40.3333390  28.0005780   3.8713500  39.8981390
  26.5459400   5.1525450  42.4850950  25.7701500   4.6725890  42.7749520
  27.1972330   4.4731100  42.3107110  20.5625230   5.4645260  43.3626710
  19.7310110   5.2093970  43.7623220  21.1706210   5.5356030  44.0984630
  30.5666830   9.5585640  41.2650080  30.1048360   8.7872880  41.5937250
  31.3792380   9.5851710  41.7702530  20.5426490   9.4985350  43.5584730
  20.8454530   8.6083090  43.3794950  21.2870080  10.0555570  43.3306980
  16.9350190   3.0252800  43.0308800  17.5066300   2.2575000  43.0312440
  16.9351730   3.3241560  42.1215410  26.7930140  11.8443650  40.8854070
  26.1741580  12.3001150  40.3148510  27.6481920  11.9995110  40.4843770
  25.9868390   7.8282640  42.4921110  25.9176670   6.8872580  42.3310240
  26.7488250   7.9184050  43.0643680  27.6593490   6.7282890  38.2785980
  27.0410760   7.1932340  37.7148700  28.1716740   7.4210370  38.6955490
  17.0276690   7.4139420  35.6525610  16.6504670   7.9026520  34.9210510
  17.2849760   8.0864700  36.2832140  32.6521940   9.6878970  44.6873400
  31.9685460  10.3578080  44.6790070  33.1916230   9.8859620  43.9218260
  30.1880680  11.5323100  43.4018580  30.2007840  11.1285390  42.5340840
  29.6355900  12.3070390  43.2980010  31.4826100   8.2539320  38.4908750
  31.3722430   7.3113650  38.6158170  31.4794350   8.6154960  39.3771510
  27.0246380   3.8804640  37.8471240  26.0975660   3.8142020  38.0759710
  27.1771200   4.8184770  37.7326480  33.5328220   4.8340160  44.8217430
  32.7046850   4.9033250  44.3467560  34.1278700   5.4194470  44.3533260
  31.0543670   5.4424940  38.3506490  30.4356090   5.1044490  37.7032790
  31.0368120   4.7984700  39.0585680  22.6303020   4.4069380  40.6290970
  22.2260020   3.6946630  40.1336870  22.7166140   4.0622620  41.5179010
  23.0984720   8.0936940  42.7930180  22.8013010   7.4882410  42.1137960
  24.0484540   8.1314250  42.6819540  29.2308370   4.6811750  35.3579240
  29.6701650   3.8434180  35.2117060  29.9436790   5.3141150  35.4443380
  27.3403750   9.6207820  39.3260480  27.7799660  10.3632150  38.9115870
  27.2790640   9.8634390  40.2499440  19.3307650   3.3014360  38.1297620
  19.2105250   4.0276450  37.5178890  19.0208540   2.5317270  37.6525530
  16.9693020   6.4729500  43.9366260  17.0473440   6.6078270  42.9921980
  17.5834700   5.7645390  44.1294380  18.2140650   8.1729690  40.3472440
  17.8068730   8.3144280  39.4926040  19.1053660   7.8889850  40.1443650
  30.0073930  12.6076940  36.6823490  29.8475070  12.3179880  37.5805320
  29.8420640  11.8317070  36.1468720  22.4862310  12.3875470  38.4595110
  22.3104790  11.4711010  38.2462910  21.6318050  12.7462760  38.6992910
  29.7100060  10.1164500  35.2421490  29.0165220  10.1141790  34.5823770
  30.4522920   9.6923820  34.8115660  29.2749990  11.7427210  39.3169980
  29.7306940  10.9616590  39.6308600  29.6142510  12.4534030  39.8611160
  21.5885530   1.7683000  39.2402540  21.3626450   1.5520170  40.1449160
  20.8078060   2.2011460  38.8948510  28.8183290   1.7746370  37.8393190
  28.2192180   2.4982170  37.6556810  29.3662900   1.7123150  37.0569640
  28.0103300   3.0015660  43.9647250  27.2784420   3.5102470  44.3137350
  27.6127640   2.1845640  43.6636030  23.5222340   2.9883080  34.7589800
  22.9539240   2.5401330  34.1325710  24.2311340   3.3475860  34.2254950
  24.7488660   3.7371640  44.1165150  25.1158790   3.2630210  44.8626490
  24.5593720   4.6113210  44.4573490  21.0669820   6.9841270  37.0316210
  20.2932080   6.4438890  36.8714930  21.7964450   6.4647880  36.6933970
  31.8257800   5.9806630  42.8242600  32.5456920   6.4761920  42.4338710
  31.6239620   5.3024520  42.1796470  21.1107220   6.6521650  40.6695020
  21.6285890   5.8489910  40.6151910  20.6591240   6.5900790  41.5111850
  25.9976720   7.9187930  35.9422320  26.3392420   8.6630160  35.4465640
  25.1689430   8.2319050  36.3047150  32.2730400   3.0576080  34.7314010
  32.1894120   3.4890300  33.8810450  32.9924590   3.5174430  35.1640830
  33.3017650   9.9118340  37.4596140  32.6593810   9.2573960  37.7339860
  32.9148310  10.3173430  36.6836810  28.8804130   7.2403770  41.3067830
  29.2327950   6.6431900  40.6469200  27.9966460   6.9148000  41.4776080
  24.9667410   8.0001460  38.7138240  25.6538540   8.5470670  39.0945830
  24.1799830   8.5442190  38.7487850  17.1059810   3.6174280  34.2055320
  17.9754660   3.8999080  34.4891240  16.6150130   4.4310150  34.0904130
  24.2694620   5.0047490  38.3263600  24.7257400   5.8152740  38.5523790
  23.9182830   4.6870630  39.1582090  27.8459310   8.5186180  44.2733350
  28.4881540   7.8179340  44.3865520  28.3708660   9.2984620  44.0930240
  31.6915030   8.8034800  33.9972490  31.4652610   8.0865240  34.5897130
  31.3011230   8.5547240  33.1594240  17.4731060  12.8301660  34.7716950
  17.8328700  13.4291000  34.1174220  17.3323400  13.3761550  35.5451980
  31.2731280   6.7206740  35.6586650  30.9852980   7.1819430  36.4464530
  32.0683450   6.2604510  35.9270870  23.4899680  10.2132860  35.5890620
  23.4809780  10.9462550  34.9735130  22.5698040   9.9664440  35.6817580
  19.0906320   5.4347750  36.3337380  18.4834270   6.1746650  36.3432680
  19.5655670   5.5247110  35.5075580  26.4759280  10.2761100  34.2515810
  26.5771260  10.0725090  33.3217790  25.5761020  10.0219380  34.4563590
  25.1177390  12.7947420  38.9463480  25.3718890  12.7568810  38.0242850
  24.1689870  12.6680750  38.9391730  31.1229970   3.7139300  40.5221990
  30.1820110   3.7289530  40.6969680  31.4374040   2.9275260  40.9682290
  21.1011610   5.3958900  34.0825950  21.8674880   5.2840260  34.6451380
  21.1786300   4.6996870  33.4302720  19.7958370   2.8283970  34.7658840
  19.8761960   1.8811480  34.8776240  20.6878120   3.1590850  34.8719500
  33.1255550  10.8848150  42.1976250  33.2502970  11.7079320  42.6700060
  33.9921110  10.6738880  41.8500400  20.5973080  12.9779360  41.8693380
  21.3335560  12.4294820  42.1401950  20.9814000  13.8435370  41.7299370
  17.4818560   9.0452930  37.7434890  16.5558340   9.2874070  37.7340300
  17.9474990   9.8727190  37.6219640  23.7075390  12.1509670  33.6918950
  24.5004000  12.4398500  33.2400740  23.1879740  11.7201840  33.0131430
  32.7605560  11.3779800  35.1155690  32.4747070  10.9644940  34.3009870
  32.5625110  12.3067510  34.9956210  24.2252790   7.3713080  33.5561300
  24.1203430   6.7565430  34.2822680  24.0577010   6.8478970  32.7724310
  27.4655520   6.4333110  34.1603290  26.9165620   6.8802410  34.8046030
  28.0874780   5.9282360  34.6840960  23.1330640   5.3924030  36.0568590
  23.5547060   5.2263900  36.8999980  23.2581480   4.5824260  35.5623730
  25.6458280   4.4161640  33.3045690  26.1663940   3.7010660  32.9386840
  26.2926680   5.0547510  33.6046200  26.2106310  12.4973250  35.5947430
  27.1057100  12.8358220  35.6166190  26.2423940  11.7752660  34.9671710
  19.8502470   7.8700300  33.8234430  20.2877340   8.4129970  34.4792010
  20.3350200   7.0447250  33.8330770  17.0648270  10.6589330  41.2754690
  17.3951280   9.7910390  41.0433330  17.4939270  10.8647850  42.1059650
  21.6610190   8.9898340  38.9356660  21.3605730   8.8663310  39.8360570
  21.5547680   8.1306930  38.5272390  17.5538480  11.5259920  44.0136320
  17.1169470  11.7060720  44.8460470  18.1216160  12.2834540  43.8718040
  34.4302110   8.7694740  33.6383340  33.5995070   8.8371390  34.1090570
  34.6073940   9.6598860  33.3350200  33.8858570   5.5142220  36.1417540
  34.6477480   6.0838870  36.2477230  33.9012940   4.9469420  36.9125850
  17.3862910   4.0380150  40.3725200  16.7311750   3.7691790  39.7284900
  18.2240860   3.9284630  39.9227180  34.8918540   6.3692320  40.9859470
  35.2627370   5.5859640  40.5795440  35.5320470   7.0581420  40.8076770
  33.9377740   5.8076590  33.2990060  34.2126580   6.7155470  33.1709280
  33.7488480   5.7439120  34.2352050  33.8343080   3.7445580  38.2919490
  33.4586680   2.9773510  37.8600780  33.1046200   4.1268280  38.7794420
  33.1094040   1.9703070  41.5926730  33.6331520   1.4765720  40.9616900
  33.6953460   2.1053430  42.3374300  31.9328350  12.5047500  39.9258060
  32.5287420  12.1832070  39.2492480  32.1906500  12.0319320  40.7171330
  32.4840560  13.1542800  43.7555790  32.0243530  13.9058610  43.3813810
  31.8553020  12.4349270  43.6970590  22.9136280  11.4631040  42.9303920
  23.4301300  10.8518400  42.4052180  23.5633660  11.9659820  43.4214930
  25.6531780  12.3539530  43.7572900  25.9409590  12.0993830  42.8805910
  26.1655000  11.8016890  44.3478470  17.5921180  12.5660430  39.3551270
  17.4243220  11.9331110  40.0533160  16.7255690  12.7719830  39.0045460
  19.1983880  11.2593660  36.8001410  18.6731500  11.6401690  36.0963370
  19.1228460  11.8844430  37.5211120  33.9549200  12.8181200  38.1215350
  34.1301390  12.1318940  37.4776270  33.2570770  13.3428250  37.7292020
  21.7976850  13.2076040  35.6750660  22.5295670  12.9235320  35.1274550
  22.0570520  12.9689320  36.5650040  20.9591640   9.3240770  35.6796990
  20.3300520   9.7925870  36.2282820  21.0739470   8.4789990  36.1143180
  28.4141360   3.3746430  21.8298190  28.3335410   2.4601040  21.5589900
  28.0005780   3.8713500  21.1237900  26.5459400   5.1525450  23.7107460
  25.7701500   4.6725890  24.0006030  27.1972330   4.4731100  23.5363620
  20.5625230   5.4645260  24.5883220  19.7310110   5.2093970  24.9879730
  21.1706210   5.5356030  25.3241140  30.5666830   9.5585640  22.4906590
  30.1048360   8.7872880  22.8193760  31.3792380   9.5851710  22.9959040
  20.5426490   9.4985350  24.7841240  20.8454530   8.6083090  24.6051460
  21.2870080  10.0555570  24.5563490  16.9350190   3.0252800  24.2565310
  17.5066300   2.2575000  24.2568950  16.9351730   3.3241560  23.3471920
  26.7930140  11.8443650  22.1110580  26.1741580  12.3001150  21.5405020
  27.6481920  11.9995110  21.7100280  25.9868390   7.8282640  23.7177620
  25.9176670   6.8872580  23.5566750  26.7488250   7.9184050  24.2900190
  27.6593490   6.7282890  19.5042490  27.0410760   7.1932340  18.9405210
  28.1716740   7.4210370  19.9212000  22.5225250   6.2558760  26.1826090
  22.1894630   6.8827680  26.8247160  22.6991930   6.7820640  25.4027760
  21.7344350   8.2239560  27.9975270  22.3518350   8.8990640  27.7159720
  20.8737470   8.6327540  27.9062770  17.0276690   7.4139420  16.8782120
  16.6504670   7.9026520  16.1467020  17.2849760   8.0864700  17.5088650
  32.6521940   9.6878970  25.9129910  31.9685460  10.3578080  25.9046580
  33.1916230   9.8859620  25.1474770  30.1880680  11.5323100  24.6275090
  30.2007840  11.1285390  23.7597350  29.6355900  12.3070390  24.5236520
  31.4826100   8.2539320  19.7165260  31.3722430   7.3113650  19.8414680
  31.4794350   8.6154960  20.6028020  29.5866120   6.4352940  25.9557700
  30.0034910   6.2213050  25.1211160  30.3105940   6.6925730  26.5266320
  27.0246380   3.8804640  19.0727750  26.0975660   3.8142020  19.3016220
  27.1771200   4.8184770  18.9582990  33.5328220   4.8340160  26.0473940
  32.7046850   4.9033250  25.5724070  34.1278700   5.4194470  25.5789770
  31.0543670   5.4424940  19.5763000  30.4356090   5.1044490  18.9289300
  31.0368120   4.7984700  20.2842190  22.6303020   4.4069380  21.8547480
  22.2260020   3.6946630  21.3593380  22.7166140   4.0622620  22.7435520
  23.0984720   8.0936940  24.0186690  22.8013010   7.4882410  23.3394470
  24.0484540   8.1314250  23.9076050  31.1870330  11.6668810  27.6809790
  30.7100890  12.4741000  27.4882400  30.5032120  11.0147140  27.8336000
  22.1903150   7.8318630  30.6694490  21.2931680   8.0558600  30.9167890
  22.2156020   7.9553570  29.7205890  29.2308370   4.6811750  16.5835750
  29.6701650   3.8434180  16.4373570  29.9436790   5.3141150  16.6699890
  21.0174370   4.7031950  29.2451860  20.8782140   5.5754750  29.6139260
  20.1355730   4.3604760  29.0999800  27.3403750   9.6207820  20.5516990
  27.7799660  10.3632150  20.1372380  27.2790640   9.8634390  21.4755950
  22.8154720  10.6453650  31.4537010  22.7870150  11.0496600  30.5865440
  22.6519690   9.7164010  31.2908610  19.3307650   3.3014360  19.3554130
  19.2105250   4.0276450  18.7435400  19.0208540   2.5317270  18.8782040
  34.7669540  11.4280750  32.7501180  35.2429260  11.9063640  33.4290260
  35.3876700  11.3598240  32.0246680  16.9693020   6.4729500  25.1622770
  17.0473440   6.6078270  24.2178490  17.5834700   5.7645390  25.3550890
  18.2140650   8.1729690  21.5728950  17.8068730   8.3144280  20.7182550
  19.1053660   7.8889850  21.3700160  34.1702790   8.6193600  29.9101190
  34.2965850   8.3805480  28.9918370  34.2124170   7.7878140  30.3823270
  28.0319530  12.3221600  28.4796000  28.5464200  12.2329610  29.2818430
  27.1888610  12.6681300  28.7723910  30.0073930  12.6076940  17.9080000
  29.8475070  12.3179880  18.8061830  29.8420640  11.8317070  17.3725230
  22.4862310  12.3875470  19.6851620  22.3104790  11.4711010  19.4719420
  21.6318050  12.7462760  19.9249420  29.7100060  10.1164500  16.4678000
  29.0165220  10.1141790  15.8080280  30.4522920   9.6923820  16.0372170
  29.2749990  11.7427210  20.5426490  29.7306940  10.9616590  20.8565110
  29.6142510  12.4534030  21.0867670  17.0252540   7.5143670  27.7017230
  17.1883580   7.0449030  26.8836600  17.4904990   7.0067230  28.3666070
  28.1795340   2.2328650  31.5708570  28.5048750   1.3992400  31.2310800
  28.9675670   2.7557170  31.7186900  21.5885530   1.7683000  20.4659050
  21.3626450   1.5520170  21.3705670  20.8078060   2.2011460  20.1205020
  28.8183290   1.7746370  19.0649700  28.2192180   2.4982170  18.8813320
  29.3662900   1.7123150  18.2826150  24.0284740   2.6668580  31.1319320
  23.9328340   1.7263310  30.9819720  24.8716720   2.8883650  30.7367390
  28.0103300   3.0015660  25.1903760  27.2784420   3.5102470  25.5393860
  27.6127640   2.1845640  24.8892540  23.5222340   2.9883080  15.9846310
  22.9539240   2.5401330  15.3582220  24.2311340   3.3475860  15.4511460
  18.5991520   6.8895100  29.8613040  18.2146310   6.2488770  30.4596000
  18.9103710   7.5931220  30.4307770  24.7488660   3.7371640  25.3421660
  25.1158790   3.2630210  26.0883000  24.5593720   4.6113210  25.6830000
  22.5388030   2.7780280  27.6605870  22.2345100   3.6572260  27.8856230
  23.4934490   2.8380070  27.6963310  21.0669820   6.9841270  18.2572720
  20.2932080   6.4438890  18.0971440  21.7964450   6.4647880  17.9190480
  31.8257800   5.9806630  24.0499110  32.5456920   6.4761920  23.6595220
  31.6239620   5.3024520  23.4052980  27.2076600   6.0515690  29.9368110
  27.1413910   5.1311360  29.6825700  26.5781740   6.1491130  30.6512750
  21.1107220   6.6521650  21.8951530  21.6285890   5.8489910  21.8408420
  20.6591240   6.5900790  22.7368360  25.9976720   7.9187930  17.1678830
  26.3392420   8.6630160  16.6722150  25.1689430   8.2319050  17.5303660
  18.5951760   3.6183020  28.8077230  18.2366700   4.2836870  29.3950570
  18.3006320   2.7866570  29.1789850  21.7964880   4.0767260  31.6916780
  21.4965020   4.2224440  30.7944600  22.5676120   3.5172550  31.5990170
  27.1393330   8.8736260  29.6871910  27.1537870   7.9417220  29.4690820
  26.4318430   8.9596020  30.3261680  32.2730400   3.0576080  15.9570520
  32.1894120   3.4890300  15.1066960  32.9924590   3.5174430  16.3897340
  33.3504540   5.5143600  29.0340490  32.6252730   6.1072380  28.8369880
  33.8780000   5.5067140  28.2353860  33.3017650   9.9118340  18.6852650
  32.6593810   9.2573960  18.9596370  32.9148310  10.3173430  17.9093320
  28.8804130   7.2403770  22.5324340  29.2327950   6.6431900  21.8725710
  27.9966460   6.9148000  22.7032590  24.9667410   8.0001460  19.9394750
  25.6538540   8.5470670  20.3202340  24.1799830   8.5442190  19.9744360
  17.1059810   3.6174280  15.4311830  17.9754660   3.8999080  15.7147750
  16.6150130   4.4310150  15.3160640  24.2694620   5.0047490  19.5520110
  24.7257400   5.8152740  19.7780300  23.9182830   4.6870630  20.3838600
  26.5727230  10.5153830  26.7812410  27.2169450  10.7213210  27.4585830
  26.9356670   9.7542230  26.3283260  27.8459310   8.5186180  25.4989860
  28.4881540   7.8179340  25.6122030  28.3708660   9.2984620  25.3186750
  31.6915030   8.8034800  15.2229000  31.4652610   8.0865240  15.8153640
  31.3011230   8.5547240  14.3850750  29.6196930   9.3181080  28.7025920
  29.9553170   9.9047770  29.3803840  28.6997270   9.1873790  28.9323710
  17.4731060  12.8301660  15.9973460  17.8328700  13.4291000  15.3430730
  17.3323400  13.3761550  16.7708490  31.2731280   6.7206740  16.8843160
  30.9852980   7.1819430  17.6721040  32.0683450   6.2604510  17.1527380
  17.4572920  11.0956520  30.4715860  17.5664040  10.1551260  30.3311250
  16.8053480  11.3611270  29.8229590  25.4485510   9.3672410  31.8713980
  25.1282380   8.6481650  32.4159670  24.7743870  10.0427480  31.9450040
  23.4899680  10.2132860  16.8147130  23.4809780  10.9462550  16.1991640
  22.5698040   9.9664440  16.9074090  19.0906320   5.4347750  17.5593890
  18.4834270   6.1746650  17.5689190  19.5655670   5.5247110  16.7332090
  26.4759280  10.2761100  15.4772320  26.5771260  10.0725090  14.5474300
  25.5761020  10.0219380  15.6820100  25.1177390  12.7947420  20.1719990
  25.3718890  12.7568810  19.2499360  24.1689870  12.6680750  20.1648240
  31.1229970   3.7139300  21.7478500  30.1820110   3.7289530  21.9226190
  31.4374040   2.9275260  22.1938800  21.1011610   5.3958900  15.3082460
  21.8674880   5.2840260  15.8707890  21.1786300   4.6996870  14.6559230
  19.7958370   2.8283970  15.9915350  19.8761960   1.8811480  16.1032750
  20.6878120   3.1590850  16.0976010  33.1255550  10.8848150  23.4232760
  33.2502970  11.7079320  23.8956570  33.9921110  10.6738880  23.0756910
  20.5973080  12.9779360  23.0949890  21.3335560  12.4294820  23.3658460
  20.9814000  13.8435370  22.9555880  17.4818560   9.0452930  18.9691400
  16.5558340   9.2874070  18.9596810  17.9474990   9.8727190  18.8476150
  19.6031360  12.1625430  32.2835470  20.4044090  12.4837480  32.6970870
  19.0883180  11.8021010  33.0055380  23.7075390  12.1509670  14.9175460
  24.5004000  12.4398500  14.4657250  23.1879740  11.7201840  14.2387940
  28.4395990   8.2705300  32.2310880  27.8334150   8.2936900  31.4906630
  28.1350100   7.5388340  32.7678130  29.8696360  11.9985590  30.8420290
  30.8218110  11.9143610  30.7920530  29.7224580  12.6627300  31.5154080
  32.7605560  11.3779800  16.3412200  32.4747070  10.9644940  15.5266380
  32.5625110  12.3067510  16.2212720  17.3229170   4.6498890  31.2271520
  17.8268190   4.0706170  31.7987750  16.5836590   4.9339120  31.7647890
  24.2252790   7.3713080  14.7817810  24.1203430   6.7565430  15.5079190
  24.0577010   6.8478970  13.9980820  24.3767110   6.0569880  30.7607040
  23.6112780   6.6254880  30.6761710  24.5583070   5.7646090  29.8675270
  27.4655520   6.4333110  15.3859800  26.9165620   6.8802410  16.0302540
  28.0874780   5.9282360  15.9097470  31.5190460   7.7875210  31.3182060
  32.2599930   8.1250970  30.8149520  30.7563140   7.9567270  30.7651830
  19.3552250   2.7928480  32.1221590  19.3957590   2.4942350  33.0306820
  20.2097750   3.1936090  31.9629110  23.1330640   5.3924030  17.2825100
  23.5547060   5.2263900  18.1256490  23.2581480   4.5824260  16.7880240
  25.6458280   4.4161640  14.5302200  26.1663940   3.7010660  14.1643350
  26.2926680   5.0547510  14.8302710  30.1936120   5.8390040  29.8537270
  30.6077140   5.9935120  30.7027690  29.2587120   5.9645260  30.0163050
  30.6658290   3.1786200  31.8576420  31.2479060   2.4238520  31.7696900
  30.8420060   3.7093640  31.0807900  24.9551350   5.7910520  27.8233200
  25.3739460   6.6343250  27.6509440  24.0359980   5.9282560  27.5939980
  27.2915250   3.5226700  29.2071040  27.4111460   2.9267840  29.9465880
  28.1509250   3.5596390  28.7872340  29.6303150   4.0763890  27.7833550
  29.1038370   4.6006510  27.1798690  29.9734490   4.7091280  28.4143280
  22.8058770  12.0963530  28.9390930  22.2679860  12.8209590  28.6199630
  23.0592730  11.6193870  28.1488270  25.6620980  13.3314740  29.1977580
  25.5879680  14.2349880  29.5049950  24.7599820  13.0126640  29.1699650
  26.2106310  12.4973250  16.8203940  27.1057100  12.8358220  16.8422700
  26.2423940  11.7752660  16.1928220  19.8502470   7.8700300  15.0490940
  20.2877340   8.4129970  15.7048520  20.3350200   7.0447250  15.0587280
  17.0648270  10.6589330  22.5011200  17.3951280   9.7910390  22.2689840
  17.4939270  10.8647850  23.3316160  21.6610190   8.9898340  20.1613170
  21.3605730   8.8663310  21.0617080  21.5547680   8.1306930  19.7528900
  17.5538480  11.5259920  25.2392830  17.1169470  11.7060720  26.0716980
  18.1216160  12.2834540  25.0974550  33.1900660  11.0276920  29.5270140
  32.5902650  11.0869480  28.7834060  33.3194560  10.0881900  29.6566990
  34.4302110   8.7694740  14.8639850  33.5995070   8.8371390  15.3347080
  34.6073940   9.6598860  14.5606710  33.8858570   5.5142220  17.3674050
  34.6477480   6.0838870  17.4733740  33.9012940   4.9469420  18.1382360
  17.3862910   4.0380150  21.5981710  16.7311750   3.7691790  20.9541410
  18.2240860   3.9284630  21.1483690  34.8918540   6.3692320  22.2115980
  35.2627370   5.5859640  21.8051950  35.5320470   7.0581420  22.0333280
  31.8752300   7.7528900  27.6246300  31.0612140   8.1826060  27.8872090
  32.2826500   8.3647310  27.0115350  33.9377740   5.8076590  14.5246570
  34.2126580   6.7155470  14.3965790  33.7488480   5.7439120  15.4608560
  33.8343080   3.7445580  19.5176000  33.4586680   2.9773510  19.0857290
  33.1046200   4.1268280  20.0050930  18.4238840   4.4232720  26.1385050
  18.7911880   4.3360120  27.0181070  17.8549660   3.6599270  26.0391910
  33.2242700   2.8917100  29.1515520  32.9928790   2.6629850  28.2513470
  33.4847250   3.8116650  29.1060410  33.1094040   1.9703070  22.8183240
  33.6331520   1.4765720  22.1873410  33.6953460   2.1053430  23.5630810
  33.2883760   2.0542940  26.3402790  32.3386470   2.0206480  26.4547780
  33.4696770   2.9643050  26.1052560  31.9328350  12.5047500  21.1514570
  32.5287420  12.1832070  20.4748990  32.1906500  12.0319320  21.9427840
  19.8390920   8.9365410  31.3005200  19.7960550   8.5658320  32.1819660
  19.9701930   9.8742980  31.4407020  23.5396950  10.4925000  26.9014920
  23.2988310  10.7599560  26.0145440  24.4799590  10.6630730  26.9565780
  34.8001110  12.5119380  27.7025560  34.3059390  12.9088250  26.9852690
  34.1914400  11.8868590  28.0962840  19.6778950  11.8827660  28.4202980
  19.0839270  11.7512360  29.1593020  19.6702790  11.0465800  27.9545080
  32.4840560  13.1542800  24.9812300  32.0243530  13.9058610  24.6070320
  31.8553020  12.4349270  24.9227100  19.3091180   9.2486040  27.3711020
  18.5825240   8.6291330  27.3036970  19.3700330   9.6426650  26.5009100
  22.9136280  11.4631040  24.1560430  23.4301300  10.8518400  23.6308690
  23.5633660  11.9659820  24.6471440  25.6531780  12.3539530  24.9829410
  25.9409590  12.0993830  24.1062420  26.1655000  11.8016890  25.5734980
  17.5921180  12.5660430  20.5807780  17.4243220  11.9331110  21.2789670
  16.7255690  12.7719830  20.2301970  19.1983880  11.2593660  18.0257920
  18.6731500  11.6401690  17.3219880  19.1228460  11.8844430  18.7467630
  25.7204140  13.2755630  32.3497610  26.6471450  13.0399900  32.3933570
  25.7054570  14.1027630  31.8683640  33.9549200  12.8181200  19.3471860
  34.1301390  12.1318940  18.7032780  33.2570770  13.3428250  18.9548530
  21.7976850  13.2076040  16.9007170  22.5295670  12.9235320  16.3531060
  22.0570520  12.9689320  17.7906550  20.9591640   9.3240770  16.9053500
  20.3300520   9.7925870  17.4539330  21.0739470   8.4789990  17.3399690
  32.2881700  12.5025490  32.1738650  33.0807020  12.0074720  31.9664610
  32.5814850  13.1815630  32.7814260  28.4141360   3.3746430   3.0554700
  28.3335410   2.4601040   2.7846410  28.0005780   3.8713500   2.3494410
  26.5459400   5.1525450   4.9363970  25.7701500   4.6725890   5.2262540
  27.1972330   4.4731100   4.7620130  20.5625230   5.4645260   5.8139730
  19.7310110   5.2093970   6.2136240  21.1706210   5.5356030   6.5497650
  30.5666830   9.5585640   3.7163100  30.1048360   8.7872880   4.0450270
  31.3792380   9.5851710   4.2215550  20.5426490   9.4985350   6.0097750
  20.8454530   8.6083090   5.8307970  21.2870080  10.0555570   5.7820000
  16.9350190   3.0252800   5.4821820  17.5066300   2.2575000   5.4825460
  16.9351730   3.3241560   4.5728430  26.7930140  11.8443650   3.3367090
  26.1741580  12.3001150   2.7661530  27.6481920  11.9995110   2.9356790
  25.9868390   7.8282640   4.9434130  25.9176670   6.8872580   4.7823260
  26.7488250   7.9184050   5.5156700  22.5225250   6.2558760   7.4082600
  22.1894630   6.8827680   8.0503670  22.6991930   6.7820640   6.6284270
  21.7344350   8.2239560   9.2231780  22.3518350   8.8990640   8.9416230
  20.8737470   8.6327540   9.1319280  32.6521940   9.6878970   7.1386420
  31.9685460  10.3578080   7.1303090  33.1916230   9.8859620   6.3731280
  30.1880680  11.5323100   5.8531600  30.2007840  11.1285390   4.9853860
  29.6355900  12.3070390   5.7493030  29.5866120   6.4352940   7.1814210
  30.0034910   6.2213050   6.3467670  30.3105940   6.6925730   7.7522830
  33.5328220   4.8340160   7.2730450  32.7046850   4.9033250   6.7980580
  34.1278700   5.4194470   6.8046280  22.6303020   4.4069380   3.0803990
  22.2260020   3.6946630   2.5849890  22.7166140   4.0622620   3.9692030
  23.0984720   8.0936940   5.2443200  22.8013010   7.4882410   4.5650980
  24.0484540   8.1314250   5.1332560  31.1870330  11.6668810   8.9066300
  30.7100890  12.4741000   8.7138910  30.5032120  11.0147140   9.0592510
  22.1903150   7.8318630  11.8951000  21.2931680   8.0558600  12.1424400
  22.2156020   7.9553570  10.9462400  21.0174370   4.7031950  10.4708370
  20.8782140   5.5754750  10.8395770  20.1355730   4.3604760  10.3256310
  22.8154720  10.6453650  12.6793520  22.7870150  11.0496600  11.8121950
  22.6519690   9.7164010  12.5165120  34.7669540  11.4280750  13.9757690
  35.2429260  11.9063640  14.6546770  35.3876700  11.3598240  13.2503190
  16.9693020   6.4729500   6.3879280  17.0473440   6.6078270   5.4435000
  17.5834700   5.7645390   6.5807400  18.2140650   8.1729690   2.7985460
  17.8068730   8.3144280   1.9439060  19.1053660   7.8889850   2.5956670
  34.1702790   8.6193600  11.1357700  34.2965850   8.3805480  10.2174880
  34.2124170   7.7878140  11.6079780  28.0319530  12.3221600   9.7052510
  28.5464200  12.2329610  10.5074940  27.1888610  12.6681300   9.9980420
  29.2749990  11.7427210   1.7683000  29.7306940  10.9616590   2.0821620
  29.6142510  12.4534030   2.3124180  17.0252540   7.5143670   8.9273740
  17.1883580   7.0449030   8.1093110  17.4904990   7.0067230   9.5922580
  28.1795340   2.2328650  12.7965080  28.5048750   1.3992400  12.4567310
  28.9675670   2.7557170  12.9443410  24.0284740   2.6668580  12.3575830
  23.9328340   1.7263310  12.2076230  24.8716720   2.8883650  11.9623900
  28.0103300   3.0015660   6.4160270  27.2784420   3.5102470   6.7650370
  27.6127640   2.1845640   6.1149050  18.5991520   6.8895100  11.0869550
  18.2146310   6.2488770  11.6852510  18.9103710   7.5931220  11.6564280
  24.7488660   3.7371640   6.5678170  25.1158790   3.2630210   7.3139510
  24.5593720   4.6113210   6.9086510  22.5388030   2.7780280   8.8862380
  22.2345100   3.6572260   9.1112740  23.4934490   2.8380070   8.9219820
  31.8257800   5.9806630   5.2755620  32.5456920   6.4761920   4.8851730
  31.6239620   5.3024520   4.6309490  27.2076600   6.0515690  11.1624620
  27.1413910   5.1311360  10.9082210  26.5781740   6.1491130  11.8769260
  21.1107220   6.6521650   3.1208040  21.6285890   5.8489910   3.0664930
  20.6591240   6.5900790   3.9624870  18.5951760   3.6183020  10.0333740
  18.2366700   4.2836870  10.6207080  18.3006320   2.7866570  10.4046360
  21.7964880   4.0767260  12.9173290  21.4965020   4.2224440  12.0201110
  22.5676120   3.5172550  12.8246680  27.1393330   8.8736260  10.9128420
  27.1537870   7.9417220  10.6947330  26.4318430   8.9596020  11.5518190
  33.3504540   5.5143600  10.2597000  32.6252730   6.1072380  10.0626390
  33.8780000   5.5067140   9.4610370  28.8804130   7.2403770   3.7580850
  29.2327950   6.6431900   3.0982220  27.9966460   6.9148000   3.9289100
  26.5727230  10.5153830   8.0068920  27.2169450  10.7213210   8.6842340
  26.9356670   9.7542230   7.5539770  27.8459310   8.5186180   6.7246370
  28.4881540   7.8179340   6.8378540  28.3708660   9.2984620   6.5443260
  29.6196930   9.3181080   9.9282430  29.9553170   9.9047770  10.6060350
  28.6997270   9.1873790  10.1580220  17.4572920  11.0956520  11.6972370
  17.5664040  10.1551260  11.5567760  16.8053480  11.3611270  11.0486100
  25.4485510   9.3672410  13.0970490  25.1282380   8.6481650  13.6416180
  24.7743870  10.0427480  13.1706550  31.1229970   3.7139300   2.9735010
  30.1820110   3.7289530   3.1482700  31.4374040   2.9275260   3.4195310
  33.1255550  10.8848150   4.6489270  33.2502970  11.7079320   5.1213080
  33.9921110  10.6738880   4.3013420  20.5973080  12.9779360   4.3206400
  21.3335560  12.4294820   4.5914970  20.9814000  13.8435370   4.1812390
  19.6031360  12.1625430  13.5091980  20.4044090  12.4837480  13.9227380
  19.0883180  11.8021010  14.2311890  28.4395990   8.2705300  13.4567390
  27.8334150   8.2936900  12.7163140  28.1350100   7.5388340  13.9934640
  29.8696360  11.9985590  12.0676800  30.8218110  11.9143610  12.0177040
  29.7224580  12.6627300  12.7410590  17.3229170   4.6498890  12.4528030
  17.8268190   4.0706170  13.0244260  16.5836590   4.9339120  12.9904400
  24.3767110   6.0569880  11.9863550  23.6112780   6.6254880  11.9018220
  24.5583070   5.7646090  11.0931780  31.5190460   7.7875210  12.5438570
  32.2599930   8.1250970  12.0406030  30.7563140   7.9567270  11.9908340
  19.3552250   2.7928480  13.3478100  19.3957590   2.4942350  14.2563330
  20.2097750   3.1936090  13.1885620  30.1936120   5.8390040  11.0793780
  30.6077140   5.9935120  11.9284200  29.2587120   5.9645260  11.2419560
  30.6658290   3.1786200  13.0832930  31.2479060   2.4238520  12.9953410
  30.8420060   3.7093640  12.3064410  24.9551350   5.7910520   9.0489710
  25.3739460   6.6343250   8.8765950  24.0359980   5.9282560   8.8196490
  27.2915250   3.5226700  10.4327550  27.4111460   2.9267840  11.1722390
  28.1509250   3.5596390  10.0128850  29.6303150   4.0763890   9.0090060
  29.1038370   4.6006510   8.4055200  29.9734490   4.7091280   9.6399790
  22.8058770  12.0963530  10.1647440  22.2679860  12.8209590   9.8456140
  23.0592730  11.6193870   9.3744780  25.6620980  13.3314740  10.4234090
  25.5879680  14.2349880  10.7306460  24.7599820  13.0126640  10.3956160
  17.0648270  10.6589330   3.7267710  17.3951280   9.7910390   3.4946350
  17.4939270  10.8647850   4.5572670  17.5538480  11.5259920   6.4649340
  17.1169470  11.7060720   7.2973490  18.1216160  12.2834540   6.3231060
  33.1900660  11.0276920  10.7526650  32.5902650  11.0869480  10.0090570
  33.3194560  10.0881900  10.8823500  17.3862910   4.0380150   2.8238220
  16.7311750   3.7691790   2.1797920  18.2240860   3.9284630   2.3740200
  34.8918540   6.3692320   3.4372490  35.2627370   5.5859640   3.0308460
  35.5320470   7.0581420   3.2589790  31.8752300   7.7528900   8.8502810
  31.0612140   8.1826060   9.1128600  32.2826500   8.3647310   8.2371860
  18.4238840   4.4232720   7.3641560  18.7911880   4.3360120   8.2437580
  17.8549660   3.6599270   7.2648420  33.2242700   2.8917100  10.3772030
  32.9928790   2.6629850   9.4769980  33.4847250   3.8116650  10.3316920
  33.1094040   1.9703070   4.0439750  33.6331520   1.4765720   3.4129920
  33.6953460   2.1053430   4.7887320  33.2883760   2.0542940   7.5659300
  32.3386470   2.0206480   7.6804290  33.4696770   2.9643050   7.3309070
  31.9328350  12.5047500   2.3771080  32.5287420  12.1832070   1.7005500
  32.1906500  12.0319320   3.1684350  19.8390920   8.9365410  12.5261710
  19.7960550   8.5658320  13.4076170  19.9701930   9.8742980  12.6663530
  23.5396950  10.4925000   8.1271430  23.2988310  10.7599560   7.2401950
  24.4799590  10.6630730   8.1822290  34.8001110  12.5119380   8.9282070
  34.3059390  12.9088250   8.2109200  34.1914400  11.8868590   9.3219350
  19.6778950  11.8827660   9.6459490  19.0839270  11.7512360  10.3849530
  19.6702790  11.0465800   9.1801590  32.4840560  13.1542800   6.2068810
  32.0243530  13.9058610   5.8326830  31.8553020  12.4349270   6.1483610
  19.3091180   9.2486040   8.5967530  18.5825240   8.6291330   8.5293480
  19.3700330   9.6426650   7.7265610  22.9136280  11.4631040   5.3816940
  23.4301300  10.8518400   4.8565200  23.5633660  11.9659820   5.8727950
  25.6531780  12.3539530   6.2085920  25.9409590  12.0993830   5.3318930
  26.1655000  11.8016890   6.7991490  25.7204140  13.2755630  13.5754120
  26.6471450  13.0399900  13.6190080  25.7054570  14.1027630  13.0940150
  32.2881700  12.5025490  13.3995160  33.0807020  12.0074720  13.1921120
  32.5814850  13.1815630  14.0070770   9.6397870  40.9233410  40.6041680
   9.5591920  40.0088020  40.3333390   9.2262290  41.4200480  39.8981390
   7.7715910  42.7012430  42.4850950   6.9958010  42.2212870  42.7749520
   8.4228840  42.0218080  42.3107110   8.2430070  38.1840000  42.7190040
   8.6194890  37.3111880  42.6063710   8.1449580  38.5198700  41.8280480
  12.0254190  35.6790440  39.6518380  12.8463810  35.1887010  39.6943860
  12.0588270  36.2688100  40.4050220   4.2142810  39.5252000  42.5132660
   4.7221030  40.0232970  43.1537680   4.7456050  38.7487200  42.3372020
  12.2615670  37.6190820  42.4245920  11.5571240  37.9075710  43.0049030
  12.6227830  38.4290930  42.0645480  15.3302590  37.0645610  42.8155130
  14.3827500  37.0984590  42.9470560  15.6552580  37.8784560  43.2004490
   5.8622130  33.3642790  41.1111120   6.1697110  32.8089680  40.3946620
   4.9322830  33.4987250  40.9284110   8.2502890  41.4291620  37.8471240
   7.3232170  41.3629000  38.0759710   8.4027710  42.3671750  37.7326480
   8.2371970  37.7008620  34.8438400   7.2975640  37.8622580  34.9290860
   8.5555230  38.4194300  34.2974390  14.7584730  42.3827140  44.8217430
  13.9303360  42.4520230  44.3467560  15.3535210  42.9681450  44.3533260
  12.2800180  42.9911920  38.3506490  11.6612600  42.6531470  37.7032790
  12.2624630  42.3471680  39.0585680   3.8559530  41.9556360  40.6290970
   3.4516530  41.2433610  40.1336870   3.9422650  41.6109600  41.5179010
   2.5688150  38.7299570  44.4090010   3.1202740  38.8394910  43.6343260
   3.0831660  39.1037170  45.1245240  10.4564880  42.2298730  35.3579240
  10.8958160  41.3921160  35.2117060  11.1693300  42.8628130  35.4443380
  14.0382020  33.4841540  33.6720280  13.7254680  33.5768370  34.5719350
  14.7994490  34.0622570  33.6217710   3.0227820  34.1936410  41.5121290
   2.5795970  34.9745950  41.1805810   3.5812810  34.5166300  42.2192230
   6.1386640  33.8147110  36.3927120   5.5140820  33.8106980  37.1180430
   6.0516760  32.9478070  35.9963090   5.0603720  34.7383740  43.3710890
   5.3576050  35.6446570  43.2902910   5.6089280  34.2502520  42.7570460
   2.8142040  39.3169980  39.2402540   2.5882960  39.1007150  40.1449160
   2.0334570  39.7498440  38.8948510  10.0439800  39.3233350  37.8393190
   9.4448690  40.0469150  37.6556810  10.5919410  39.2610130  37.0569640
   8.6504670  37.9596890  39.8696470   9.0434240  38.2769090  39.0565160
   9.0121520  37.0808770  39.9840990   9.2359810  40.5502640  43.9647250
   8.5040930  41.0589450  44.3137350   8.8384150  39.7332620  43.6636030
   5.6737200  37.2256840  42.3699740   5.6773260  36.7846790  41.5204280
   6.5688320  37.5474170  42.4771560   5.7357350  38.2268920  35.3606500
   5.8570170  38.1855400  36.3092320   5.3505860  39.0893070  35.2053230
   9.6985720  36.0036320  43.3770190   9.7158460  36.4544970  44.2212040
   9.4501300  35.1041960  43.5903630   4.7478850  40.5370060  34.7589800
   4.1795750  40.0888310  34.1325710   5.4567850  40.8962840  34.2254950
   5.9745170  41.2858620  44.1165150   6.3415300  40.8117190  44.8626490
   5.7850230  42.1600190  44.4573490  13.0514310  43.5293610  42.8242600
  13.7713430  44.0248900  42.4338710  12.8496130  42.8511500  42.1796470
   8.5124250  34.9231570  36.9671990   7.6988860  34.4244740  36.8917300
   8.3186200  35.7629820  36.5508340  11.2272640  39.2951220  35.2634150
  12.1152260  39.6068450  35.0885490  11.1977730  38.4223470  34.8714730
   2.3363730  44.2008630  40.6695020   2.8542400  43.3976890  40.6151910
   1.8847750  44.1387770  41.5111850  13.4986910  40.6063060  34.7314010
  13.4150630  41.0377280  33.8810450  14.2181100  41.0661410  35.1640830
   5.4951130  42.5534470  38.3263600   5.9513910  43.3639720  38.5523790
   5.1439340  42.2357610  39.1582090  13.2557650  36.1042490  36.8181830
  12.6270810  36.2088160  36.1040060  12.7609570  36.3239270  37.6075710
   5.2241680  38.3828440  38.2339710   4.5157830  38.8514780  38.6753320
   5.5086160  37.7250450  38.8684900   9.2557110  35.1079100  39.6735500
   9.1324890  35.1265230  38.7245010  10.2041670  35.1558040  39.7933900
   3.4276700  36.6913520  35.6090420   4.2767230  37.1283670  35.5430610
   3.0607970  37.0033780  36.4362480  12.3486480  41.2626280  40.5221990
  11.4076620  41.2776510  40.6969680  12.6630550  40.4762240  40.9682290
   2.3268120  42.9445880  34.0825950   3.0931390  42.8327240  34.6451380
   2.4042810  42.2483850  33.4302720   8.6912030  43.9820090  34.1603290
   8.1422130  44.4289390  34.8046030   9.3131290  43.4769340  34.6840960
   4.3587150  42.9411010  36.0568590   4.7803570  42.7750880  36.8999980
   4.4837990  42.1311240  35.5623730   6.8714790  41.9648620  33.3045690
   7.3920450  41.2497640  32.9386840   7.5183190  42.6034490  33.6046200
   3.2546050  39.0144240  33.0026750   3.0535110  38.1511600  33.3640090
   3.0838100  38.9277600  32.0648350  10.7334360  33.8252470  35.5313630
  11.0136650  32.9820370  35.8873050   9.9600090  34.0575580  36.0452380
   2.0528850  36.1144860  32.9904630   2.3554750  36.1212290  32.0823780
   2.7923440  35.7642720  33.4872290   5.2713780  35.0579480  33.9760830
   4.9235780  34.3803470  33.3963280   5.4726550  34.5968990  34.7904220
  15.1115080  43.0629200  36.1417540  15.8733990  43.6325850  36.2477230
  15.1269450  42.4956400  36.9125850  15.1634250  43.3563570  33.2990060
  15.4383090  44.2642450  33.1709280  14.9744990  43.2926100  34.2352050
  11.5609860  36.3808420  34.5943690  11.9794740  36.1939400  33.7540350
  11.2545920  35.5287470  34.9046620  15.0599590  41.2932560  38.2919490
  14.6843190  40.5260490  37.8600780  14.3302710  41.6755260  38.7794420
  14.3350550  39.5190050  41.5926730  14.8588030  39.0252700  40.9616900
  14.9209970  39.6540410  42.3374300  13.8250520  38.7763400  37.5319140
  14.3209640  38.5434270  38.3168020  13.6266590  37.9375240  37.1156780
  15.2537680  37.4124350  40.0656820  15.1436960  37.2580390  41.0039090
  16.0145270  36.8845290  39.8232230  16.1427950  35.2432270  33.3062960
  17.0677260  35.1113450  33.0981250  16.1203740  35.3225090  34.2599410
  16.2166440  36.0142930  35.9319670  15.4217940  35.9488050  36.4612580
  16.4209720  36.9493570  35.9205020   8.0965300  33.6416710  44.3369410
   7.3137090  34.1162210  44.6166170   7.8028230  32.7371540  44.2282590
  12.6486370  34.3439810  42.3818500  13.0894460  34.2884910  41.5340100
  12.3793960  35.2597820  42.4528680  14.5124940  33.9755050  40.3927320
  14.4513340  33.0316270  40.2458340  15.2916970  34.0835140  40.9380780
   5.9819520  36.0603460  39.8485440   5.1694030  35.6860350  39.5081320
   6.4861160  35.3048540  40.1506630  10.4844500  32.7245910  41.0868510
  11.0873870  33.2966120  41.5617030   9.7437490  33.2885350  40.8642410
  13.6279100  33.1267470  36.3608790  13.8229730  34.0250920  36.6276220
  12.8408970  32.8954550  36.8541740   1.8130860  34.4728240  35.3985100
   2.3423620  33.6858040  35.2693050   2.4459180  35.1519430  35.6320630
   4.0068700  34.2103380  38.4530490   3.3771440  33.5090690  38.6200620
   3.4673840  34.9707510  38.2363650   9.6397870  40.9233410  21.8298190
   9.5591920  40.0088020  21.5589900   9.2262290  41.4200480  21.1237900
   7.7715910  42.7012430  23.7107460   6.9958010  42.2212870  24.0006030
   8.4228840  42.0218080  23.5363620   8.2430070  38.1840000  23.9446550
   8.6194890  37.3111880  23.8320220   8.1449580  38.5198700  23.0536990
  12.0254190  35.6790440  20.8774890  12.8463810  35.1887010  20.9200370
  12.0588270  36.2688100  21.6306730   4.2142810  39.5252000  23.7389170
   4.7221030  40.0232970  24.3794190   4.7456050  38.7487200  23.5628530
  16.3153740  37.6957190  27.4418520  15.6105910  38.0838900  26.9233630
  16.5811660  38.3907480  28.0439450   2.4978910  34.1650560  28.0052590
   2.4997350  34.6822950  27.1998490   1.6683220  33.6880740  27.9822520
   3.7481760  43.8045740  26.1826090   3.4151140  44.4314660  26.8247160
   3.9248440  44.3307620  25.4027760  12.2615670  37.6190820  23.6502430
  11.5571240  37.9075710  24.2305540  12.6227830  38.4290930  23.2901990
  15.3302590  37.0645610  24.0411640  14.3827500  37.0984590  24.1727070
  15.6552580  37.8784560  24.4261000   5.8622130  33.3642790  22.3367630
   6.1697110  32.8089680  21.6203130   4.9322830  33.4987250  22.1540620
  10.8122630  43.9839920  25.9557700  11.2291420  43.7700030  25.1211160
  11.5362450  44.2412710  26.5266320   8.2502890  41.4291620  19.0727750
   7.3232170  41.3629000  19.3016220   8.4027710  42.3671750  18.9582990
   8.2371970  37.7008620  16.0694910   7.2975640  37.8622580  16.1547370
   8.5555230  38.4194300  15.5230900  14.7584730  42.3827140  26.0473940
  13.9303360  42.4520230  25.5724070  15.3535210  42.9681450  25.5789770
  12.2800180  42.9911920  19.5763000  11.6612600  42.6531470  18.9289300
  12.2624630  42.3471680  20.2842190  11.7226740  39.1696460  26.9928810
  11.3097920  39.9950170  27.2468800  10.9902690  38.5841500  26.8005170
   3.8559530  41.9556360  21.8547480   3.4516530  41.2433610  21.3593380
   3.9422650  41.6109600  22.7435520   2.5688150  38.7299570  25.6346520
   3.1202740  38.8394910  24.8599770   3.0831660  39.1037170  26.3501750
  10.4564880  42.2298730  16.5835750  10.8958160  41.3921160  16.4373570
  11.1693300  42.8628130  16.6699890  14.0382020  33.4841540  14.8976790
  13.7254680  33.5768370  15.7975860  14.7994490  34.0622570  14.8474220
  15.2483310  38.2213040  30.8750930  14.6327580  38.7292710  30.3466390
  14.9279730  37.3211370  30.8176870   3.0227820  34.1936410  22.7377800
   2.5795970  34.9745950  22.4062320   3.5812810  34.5166300  23.4448740
   7.3097630  37.0604930  28.3413120   6.8477000  37.2687950  29.1533060
   6.9075740  36.2464280  28.0383790  12.3102140  38.2813880  29.4709780
  11.4595730  37.9819630  29.7918850  12.1503930  38.5255890  28.5593600
   9.4051850  39.7815630  31.5708570   9.7305260  38.9479380  31.2310800
  10.1932180  40.3044150  31.7186900   6.1386640  33.8147110  17.6183630
   5.5140820  33.8106980  18.3436940   6.0516760  32.9478070  17.2219600
   5.0603720  34.7383740  24.5967400   5.3576050  35.6446570  24.5159420
   5.6089280  34.2502520  23.9826970   2.8142040  39.3169980  20.4659050
   2.5882960  39.1007150  21.3705670   2.0334570  39.7498440  20.1205020
  10.0439800  39.3233350  19.0649700   9.4448690  40.0469150  18.8813320
  10.5919410  39.2610130  18.2826150   5.2541250  40.2155560  31.1319320
   5.1584850  39.2750290  30.9819720   6.0973230  40.4370630  30.7367390
   8.6504670  37.9596890  21.0952980   9.0434240  38.2769090  20.2821670
   9.0121520  37.0808770  21.2097500   6.9596840  36.7104200  32.3549840
   6.2695160  36.5176400  32.9895930   7.7029140  36.9938840  32.8874140
   9.2359810  40.5502640  25.1903760   8.5040930  41.0589450  25.5393860
   8.8384150  39.7332620  24.8892540   5.6737200  37.2256840  23.5956250
   5.6773260  36.7846790  22.7460790   6.5688320  37.5474170  23.7028070
   5.7357350  38.2268920  16.5863010   5.8570170  38.1855400  17.5348830
   5.3505860  39.0893070  16.4309740   9.6985720  36.0036320  24.6026700
   9.7158460  36.4544970  25.4468550   9.4501300  35.1041960  24.8160140
   4.7478850  40.5370060  15.9846310   4.1795750  40.0888310  15.3582220
   5.4567850  40.8962840  15.4511460  13.1256470  33.4168500  30.4413080
  13.4502240  32.6858160  30.9671060  13.1612980  33.0982140  29.5394070
   5.9745170  41.2858620  25.3421660   6.3415300  40.8117190  26.0883000
   5.7850230  42.1600190  25.6830000   3.7644540  40.3267260  27.6605870
   3.4601610  41.2059240  27.8856230   4.7191000  40.3867050  27.6963310
  13.0514310  43.5293610  24.0499110  13.7713430  44.0248900  23.6595220
  12.8496130  42.8511500  23.4052980   8.5124250  34.9231570  18.1928500
   7.6988860  34.4244740  18.1173810   8.3186200  35.7629820  17.7764850
   8.4333110  43.6002670  29.9368110   8.3670420  42.6798340  29.6825700
   7.8038250  43.6978110  30.6512750  11.2272640  39.2951220  16.4890660
  12.1152260  39.6068450  16.3142000  11.1977730  38.4223470  16.0971240
   2.3363730  44.2008630  21.8951530   2.8542400  43.3976890  21.8408420
   1.8847750  44.1387770  22.7368360   3.0221390  41.6254240  31.6916780
   2.7221530  41.7711420  30.7944600   3.7932630  41.0659530  31.5990170
  13.4986910  40.6063060  15.9570520  13.4150630  41.0377280  15.1066960
  14.2181100  41.0661410  16.3897340  14.5761050  43.0630580  29.0340490
  13.8509240  43.6559360  28.8369880  15.1036510  43.0554120  28.2353860
   5.4951130  42.5534470  19.5520110   5.9513910  43.3639720  19.7780300
   5.1439340  42.2357610  20.3838600   9.8895620  37.1485550  27.2350780
  10.2576440  36.3280760  27.5630350   9.0293820  37.2087440  27.6506430
  13.2557650  36.1042490  18.0438340  12.6270810  36.2088160  17.3296570
  12.7609570  36.3239270  18.8332220   5.2241680  38.3828440  19.4596220
   4.5157830  38.8514780  19.9009830   5.5086160  37.7250450  20.0941410
   6.8497610  39.8025140  27.4588750   7.3482860  40.2770960  28.1240600
   6.9920560  38.8788660  27.6658780   9.2557110  35.1079100  20.8992010
   9.1324890  35.1265230  19.9501520  10.2041670  35.1558040  21.0190410
   3.4276700  36.6913520  16.8346930   4.2767230  37.1283670  16.7687120
   3.0607970  37.0033780  17.6618990  14.0564470  36.0193100  28.3017140
  13.5538070  36.7598500  28.6410950  14.8721130  36.4077100  27.9853930
  12.3486480  41.2626280  21.7478500  11.4076620  41.2776510  21.9226190
  12.6630550  40.4762240  22.1938800   2.3268120  42.9445880  15.3082460
   3.0931390  42.8327240  15.8707890   2.4042810  42.2483850  14.6559230
   5.6023620  43.6056860  30.7607040   4.8369290  44.1741860  30.6761710
   5.7839580  43.3133070  29.8675270   8.6912030  43.9820090  15.3859800
   8.1422130  44.4289390  16.0302540   9.3131290  43.4769340  15.9097470
   4.3587150  42.9411010  17.2825100   4.7803570  42.7750880  18.1256490
   4.4837990  42.1311240  16.7880240   2.5214570  38.9207560  30.0896080
   1.9911030  38.4298510  29.4619420   3.1902640  39.3491760  29.5554010
   6.8714790  41.9648620  14.5302200   7.3920450  41.2497640  14.1643350
   7.5183190  42.6034490  14.8302710  11.4192630  43.3877020  29.8537270
  11.8333650  43.5422100  30.7027690  10.4843630  43.5132240  30.0163050
  11.8914800  40.7273180  31.8576420  12.4735570  39.9725500  31.7696900
  12.0676570  41.2580620  31.0807900   3.0086870  35.8869930  30.1693370
   2.9143740  35.2690680  29.4444240   2.4284260  36.6136220  29.9423280
   5.7748310  34.4443170  27.2020760   5.3265610  34.4667430  26.3566310
   5.1413510  34.0462190  27.7991060   6.1807860  43.3397500  27.8233200
   6.5995970  44.1830230  27.6509440   5.2616490  43.4769540  27.5939980
   8.5171760  41.0713680  29.2071040   8.6367970  40.4754820  29.9465880
   9.3765760  41.1083370  28.7872340  10.8559660  41.6250870  27.7833550
  10.3294880  42.1493490  27.1798690  11.1991000  42.2578260  28.4143280
   3.2546050  39.0144240  14.2283260   3.0535110  38.1511600  14.5896600
   3.0838100  38.9277600  13.2904860   5.2840530  37.6135030  30.4646860
   5.8740220  37.3050880  31.1524680   4.4660770  37.1414780  30.6206760
  10.1033960  37.2300840  30.6979880   9.4149480  36.5682380  30.6329870
  10.8239980  36.7839110  31.1428340  10.7334360  33.8252470  16.7570140
  11.0136650  32.9820370  17.1129560   9.9600090  34.0575580  17.2708890
   2.0528850  36.1144860  14.2161140   2.3554750  36.1212290  13.3080290
   2.7923440  35.7642720  14.7128800   5.2713780  35.0579480  15.2017340
   4.9235780  34.3803470  14.6219790   5.4726550  34.5968990  16.0160730
  15.1115080  43.0629200  17.3674050  15.8733990  43.6325850  17.4733740
  15.1269450  42.4956400  18.1382360  15.1634250  43.3563570  14.5246570
  15.4383090  44.2642450  14.3965790  14.9744990  43.2926100  15.4608560
  11.5609860  36.3808420  15.8200200  11.9794740  36.1939400  14.9796860
  11.2545920  35.5287470  16.1303130  15.0599590  41.2932560  19.5176000
  14.6843190  40.5260490  19.0857290  14.3302710  41.6755260  20.0050930
  14.4499210  40.4404080  29.1515520  14.2185300  40.2116830  28.2513470
  14.7103760  41.3603630  29.1060410  12.8887280  35.6660510  31.9295220
  13.7657460  35.6743910  32.3129220  12.9008120  34.9291350  31.3187570
  14.3350550  39.5190050  22.8183240  14.8588030  39.0252700  22.1873410
  14.9209970  39.6540410  23.5630810  14.5140270  39.6029920  26.3402790
  13.5642980  39.5693460  26.4547780  14.6953280  40.5130030  26.1052560
  13.8250520  38.7763400  18.7575650  14.3209640  38.5434270  19.5424530
  13.6266590  37.9375240  18.3413290  15.2537680  37.4124350  21.2913330
  15.1436960  37.2580390  22.2295600  16.0145270  36.8845290  21.0488740
  13.6003400  33.3518480  27.7496330  14.2375620  33.9652620  28.1155520
  13.7478290  33.3879140  26.8045560  16.1427950  35.2432270  14.5319470
  17.0677260  35.1113450  14.3237760  16.1203740  35.3225090  15.4855920
  16.2166440  36.0142930  17.1576180  15.4217940  35.9488050  17.6869090
  16.4209720  36.9493570  17.1461530   6.9707880  34.5044670  30.6571430
   6.9096770  35.0966500  31.4066840   7.9108260  34.3970630  30.5121690
   9.6082440  34.1614730  30.2963720  10.2222850  34.4794020  29.6344800
  10.1532000  33.6763320  30.9159580  10.3490480  32.7246870  26.6233010
   9.4750320  33.0581980  26.4205940  10.2401230  32.2520050  27.4484880
  11.2562460  34.9317740  28.0074730  10.9275820  34.1169500  27.6276460
  12.2044760  34.8887550  27.8840420   8.0965300  33.6416710  25.5625920
   7.3137090  34.1162210  25.8422680   7.8028230  32.7371540  25.4539100
  12.6486370  34.3439810  23.6075010  13.0894460  34.2884910  22.7596610
  12.3793960  35.2597820  23.6785190  14.5124940  33.9755050  21.6183830
  14.4513340  33.0316270  21.4714850  15.2916970  34.0835140  22.1637290
   5.9819520  36.0603460  21.0741950   5.1694030  35.6860350  20.7337830
   6.4861160  35.3048540  21.3763140  10.4844500  32.7245910  22.3125020
  11.0873870  33.2966120  22.7873540   9.7437490  33.2885350  22.0898920
  13.6279100  33.1267470  17.5865300  13.8229730  34.0250920  17.8532730
  12.8408970  32.8954550  18.0798250   1.8130860  34.4728240  16.6241610
   2.3423620  33.6858040  16.4949560   2.4459180  35.1519430  16.8577140
   4.0068700  34.2103380  19.6787000   3.3771440  33.5090690  19.8457130
   3.4673840  34.9707510  19.4620160   4.1324260  33.4887360  32.1139490
   3.8508530  33.9920960  31.3500310   4.5143960  32.6909110  31.7481620
  10.7339720  32.9040940  32.6919960  10.6205170  33.2235550  33.5871480
  11.5509460  33.3053450  32.3957240   9.6397870  40.9233410   3.0554700
   9.5591920  40.0088020   2.7846410   9.2262290  41.4200480   2.3494410
   7.7715910  42.7012430   4.9363970   6.9958010  42.2212870   5.2262540
   8.4228840  42.0218080   4.7620130   8.2430070  38.1840000   5.1703060
   8.6194890  37.3111880   5.0576730   8.1449580  38.5198700   4.2793500
  12.0254190  35.6790440   2.1031400  12.8463810  35.1887010   2.1456880
  12.0588270  36.2688100   2.8563240   4.2142810  39.5252000   4.9645680
   4.7221030  40.0232970   5.6050700   4.7456050  38.7487200   4.7885040
  16.3153740  37.6957190   8.6675030  15.6105910  38.0838900   8.1490140
  16.5811660  38.3907480   9.2695960   2.4978910  34.1650560   9.2309100
   2.4997350  34.6822950   8.4255000   1.6683220  33.6880740   9.2079030
   3.7481760  43.8045740   7.4082600   3.4151140  44.4314660   8.0503670
   3.9248440  44.3307620   6.6284270  12.2615670  37.6190820   4.8758940
  11.5571240  37.9075710   5.4562050  12.6227830  38.4290930   4.5158500
  15.3302590  37.0645610   5.2668150  14.3827500  37.0984590   5.3983580
  15.6552580  37.8784560   5.6517510   5.8622130  33.3642790   3.5624140
   6.1697110  32.8089680   2.8459640   4.9322830  33.4987250   3.3797130
  10.8122630  43.9839920   7.1814210  11.2291420  43.7700030   6.3467670
  11.5362450  44.2412710   7.7522830  14.7584730  42.3827140   7.2730450
  13.9303360  42.4520230   6.7980580  15.3535210  42.9681450   6.8046280
  11.7226740  39.1696460   8.2185320  11.3097920  39.9950170   8.4725310
  10.9902690  38.5841500   8.0261680   3.8559530  41.9556360   3.0803990
   3.4516530  41.2433610   2.5849890   3.9422650  41.6109600   3.9692030
   2.5688150  38.7299570   6.8603030   3.1202740  38.8394910   6.0856280
   3.0831660  39.1037170   7.5758260  15.2483310  38.2213040  12.1007440
  14.6327580  38.7292710  11.5722900  14.9279730  37.3211370  12.0433380
   3.0227820  34.1936410   3.9634310   2.5795970  34.9745950   3.6318830
   3.5812810  34.5166300   4.6705250   7.3097630  37.0604930   9.5669630
   6.8477000  37.2687950  10.3789570   6.9075740  36.2464280   9.2640300
  12.3102140  38.2813880  10.6966290  11.4595730  37.9819630  11.0175360
  12.1503930  38.5255890   9.7850110   9.4051850  39.7815630  12.7965080
   9.7305260  38.9479380  12.4567310  10.1932180  40.3044150  12.9443410
   5.0603720  34.7383740   5.8223910   5.3576050  35.6446570   5.7415930
   5.6089280  34.2502520   5.2083480   5.2541250  40.2155560  12.3575830
   5.1584850  39.2750290  12.2076230   6.0973230  40.4370630  11.9623900
   6.9596840  36.7104200  13.5806350   6.2695160  36.5176400  14.2152440
   7.7029140  36.9938840  14.1130650   9.2359810  40.5502640   6.4160270
   8.5040930  41.0589450   6.7650370   8.8384150  39.7332620   6.1149050
   5.6737200  37.2256840   4.8212760   5.6773260  36.7846790   3.9717300
   6.5688320  37.5474170   4.9284580   9.6985720  36.0036320   5.8283210
   9.7158460  36.4544970   6.6725060   9.4501300  35.1041960   6.0416650
  13.1256470  33.4168500  11.6669590  13.4502240  32.6858160  12.1927570
  13.1612980  33.0982140  10.7650580   5.9745170  41.2858620   6.5678170
   6.3415300  40.8117190   7.3139510   5.7850230  42.1600190   6.9086510
   3.7644540  40.3267260   8.8862380   3.4601610  41.2059240   9.1112740
   4.7191000  40.3867050   8.9219820  13.0514310  43.5293610   5.2755620
  13.7713430  44.0248900   4.8851730  12.8496130  42.8511500   4.6309490
   8.4333110  43.6002670  11.1624620   8.3670420  42.6798340  10.9082210
   7.8038250  43.6978110  11.8769260   2.3363730  44.2008630   3.1208040
   2.8542400  43.3976890   3.0664930   1.8847750  44.1387770   3.9624870
   3.0221390  41.6254240  12.9173290   2.7221530  41.7711420  12.0201110
   3.7932630  41.0659530  12.8246680  14.5761050  43.0630580  10.2597000
  13.8509240  43.6559360  10.0626390  15.1036510  43.0554120   9.4610370
   9.8895620  37.1485550   8.4607290  10.2576440  36.3280760   8.7886860
   9.0293820  37.2087440   8.8762940   6.8497610  39.8025140   8.6845260
   7.3482860  40.2770960   9.3497110   6.9920560  38.8788660   8.8915290
  14.0564470  36.0193100   9.5273650  13.5538070  36.7598500   9.8667460
  14.8721130  36.4077100   9.2110440  12.3486480  41.2626280   2.9735010
  11.4076620  41.2776510   3.1482700  12.6630550  40.4762240   3.4195310
   5.6023620  43.6056860  11.9863550   4.8369290  44.1741860  11.9018220
   5.7839580  43.3133070  11.0931780   2.5214570  38.9207560  11.3152590
   1.9911030  38.4298510  10.6875930   3.1902640  39.3491760  10.7810520
  11.4192630  43.3877020  11.0793780  11.8333650  43.5422100  11.9284200
  10.4843630  43.5132240  11.2419560  11.8914800  40.7273180  13.0832930
  12.4735570  39.9725500  12.9953410  12.0676570  41.2580620  12.3064410
   3.0086870  35.8869930  11.3949880   2.9143740  35.2690680  10.6700750
   2.4284260  36.6136220  11.1679790   5.7748310  34.4443170   8.4277270
   5.3265610  34.4667430   7.5822820   5.1413510  34.0462190   9.0247570
   6.1807860  43.3397500   9.0489710   6.5995970  44.1830230   8.8765950
   5.2616490  43.4769540   8.8196490   8.5171760  41.0713680  10.4327550
   8.6367970  40.4754820  11.1722390   9.3765760  41.1083370  10.0128850
  10.8559660  41.6250870   9.0090060  10.3294880  42.1493490   8.4055200
  11.1991000  42.2578260   9.6399790   5.2840530  37.6135030  11.6903370
   5.8740220  37.3050880  12.3781190   4.4660770  37.1414780  11.8463270
  10.1033960  37.2300840  11.9236390   9.4149480  36.5682380  11.8586380
  10.8239980  36.7839110  12.3684850  14.4499210  40.4404080  10.3772030
  14.2185300  40.2116830   9.4769980  14.7103760  41.3603630  10.3316920
  12.8887280  35.6660510  13.1551730  13.7657460  35.6743910  13.5385730
  12.9008120  34.9291350  12.5444080  14.3350550  39.5190050   4.0439750
  14.8588030  39.0252700   3.4129920  14.9209970  39.6540410   4.7887320
  14.5140270  39.6029920   7.5659300  13.5642980  39.5693460   7.6804290
  14.6953280  40.5130030   7.3309070  15.2537680  37.4124350   2.5169840
  15.1436960  37.2580390   3.4552110  16.0145270  36.8845290   2.2745250
  13.6003400  33.3518480   8.9752840  14.2375620  33.9652620   9.3412030
  13.7478290  33.3879140   8.0302070   6.9707880  34.5044670  11.8827940
   6.9096770  35.0966500  12.6323350   7.9108260  34.3970630  11.7378200
   9.6082440  34.1614730  11.5220230  10.2222850  34.4794020  10.8601310
  10.1532000  33.6763320  12.1416090  10.3490480  32.7246870   7.8489520
   9.4750320  33.0581980   7.6462450  10.2401230  32.2520050   8.6741390
  11.2562460  34.9317740   9.2331240  10.9275820  34.1169500   8.8532970
  12.2044760  34.8887550   9.1096930   8.0965300  33.6416710   6.7882430
   7.3137090  34.1162210   7.0679190   7.8028230  32.7371540   6.6795610
  12.6486370  34.3439810   4.8331520  13.0894460  34.2884910   3.9853120
  12.3793960  35.2597820   4.9041700  14.5124940  33.9755050   2.8440340
  14.4513340  33.0316270   2.6971360  15.2916970  34.0835140   3.3893800
   5.9819520  36.0603460   2.2998460   5.1694030  35.6860350   1.9594340
   6.4861160  35.3048540   2.6019650  10.4844500  32.7245910   3.5381530
  11.0873870  33.2966120   4.0130050   9.7437490  33.2885350   3.3155430
   4.1324260  33.4887360  13.3396000   3.8508530  33.9920960  12.5756820
   4.5143960  32.6909110  12.9738130  10.7339720  32.9040940  13.9176470
  10.6205170  33.2235550  14.8127990  11.5509460  33.3053450  13.6213750
   9.6397870  22.1489920  40.6041680   9.5591920  21.2344530  40.3333390
   9.2262290  22.6456990  39.8981390   7.7715910  23.9268940  42.4850950
   6.9958010  23.4469380  42.7749520   8.4228840  23.2474590  42.3107110
  11.7923340  28.3329130  41.2650080  11.3304870  27.5616370  41.5937250
  12.6048890  28.3595200  41.7702530   1.7683000  28.2728840  43.5584730
   2.0711040  27.3826580  43.3794950   2.5126590  28.8299060  43.3306980
   8.0186650  30.6187140  40.8854070   7.3998090  31.0744640  40.3148510
   8.8738430  30.7738600  40.4843770   7.2124900  26.6026130  42.4921110
   7.1433180  25.6616070  42.3310240   7.9744760  26.6927540  43.0643680
   8.2430070  19.4096510  42.7190040   8.6194890  18.5368390  42.6063710
   8.1449580  19.7455210  41.8280480  12.0254190  16.9046950  39.6518380
  12.8463810  16.4143520  39.6943860  12.0588270  17.4944610  40.4050220
   4.2142810  20.7508510  42.5132660   4.7221030  21.2489480  43.1537680
   4.7456050  19.9743710  42.3372020   8.8850000  25.5026380  38.2785980
   8.2667270  25.9675830  37.7148700   9.3973250  26.1953860  38.6955490
  12.2615670  18.8447330  42.4245920  11.5571240  19.1332220  43.0049030
  12.6227830  19.6547440  42.0645480  13.8778450  28.4622460  44.6873400
  13.1941970  29.1321570  44.6790070  14.4172740  28.6603110  43.9218260
  15.3302590  18.2902120  42.8155130  14.3827500  18.3241100  42.9470560
  15.6552580  19.1041070  43.2004490   5.8622130  14.5899300  41.1111120
   6.1697110  14.0346190  40.3946620   4.9322830  14.7243760  40.9284110
  11.4137190  30.3066590  43.4018580  11.4264350  29.9028880  42.5340840
  10.8612410  31.0813880  43.2980010  12.7082610  27.0282810  38.4908750
  12.5978940  26.0857140  38.6158170  12.7050860  27.3898450  39.3771510
   8.2502890  22.6548130  37.8471240   7.3232170  22.5885510  38.0759710
   8.4027710  23.5928260  37.7326480   8.2371970  18.9265130  34.8438400
   7.2975640  19.0879090  34.9290860   8.5555230  19.6450810  34.2974390
  14.7584730  23.6083650  44.8217430  13.9303360  23.6776740  44.3467560
  15.3535210  24.1937960  44.3533260  12.2800180  24.2168430  38.3506490
  11.6612600  23.8787980  37.7032790  12.2624630  23.5728190  39.0585680
   3.8559530  23.1812870  40.6290970   3.4516530  22.4690120  40.1336870
   3.9422650  22.8366110  41.5179010   4.3241230  26.8680430  42.7930180
   4.0269520  26.2625900  42.1137960   5.2741050  26.9057740  42.6819540
   2.5688150  19.9556080  44.4090010   3.1202740  20.0651420  43.6343260
   3.0831660  20.3293680  45.1245240  10.4564880  23.4555240  35.3579240
  10.8958160  22.6177670  35.2117060  11.1693300  24.0884640  35.4443380
   8.5660260  28.3951310  39.3260480   9.0056170  29.1375640  38.9115870
   8.5047150  28.6377880  40.2499440  14.0382020  14.7098050  33.6720280
  13.7254680  14.8024880  34.5719350  14.7994490  15.2879080  33.6217710
  11.2330440  31.3820430  36.6823490  11.0731580  31.0923370  37.5805320
  11.0677150  30.6060560  36.1468720   3.7118820  31.1618960  38.4595110
   3.5361300  30.2454500  38.2462910   2.8574560  31.5206250  38.6992910
  10.9356570  28.8907990  35.2421490  10.2421730  28.8885280  34.5823770
  11.6779430  28.4667310  34.8115660  10.5006500  30.5170700  39.3169980
  10.9563450  29.7360080  39.6308600  10.8399020  31.2277520  39.8611160
   3.0227820  15.4192920  41.5121290   2.5795970  16.2002460  41.1805810
   3.5812810  15.7422810  42.2192230   6.1386640  15.0403620  36.3927120
   5.5140820  15.0363490  37.1180430   6.0516760  14.1734580  35.9963090
   5.0603720  15.9640250  43.3710890   5.3576050  16.8703080  43.2902910
   5.6089280  15.4759030  42.7570460   2.8142040  20.5426490  39.2402540
   2.5882960  20.3263660  40.1449160   2.0334570  20.9754950  38.8948510
  10.0439800  20.5489860  37.8393190   9.4448690  21.2725660  37.6556810
  10.5919410  20.4866640  37.0569640   8.6504670  19.1853400  39.8696470
   9.0434240  19.5025600  39.0565160   9.0121520  18.3065280  39.9840990
   9.2359810  21.7759150  43.9647250   8.5040930  22.2845960  44.3137350
   8.8384150  20.9589130  43.6636030   5.6737200  18.4513350  42.3699740
   5.6773260  18.0103300  41.5204280   6.5688320  18.7730680  42.4771560
   5.7357350  19.4525430  35.3606500   5.8570170  19.4111910  36.3092320
   5.3505860  20.3149580  35.2053230   9.6985720  17.2292830  43.3770190
   9.7158460  17.6801480  44.2212040   9.4501300  16.3298470  43.5903630
   4.7478850  21.7626570  34.7589800   4.1795750  21.3144820  34.1325710
   5.4567850  22.1219350  34.2254950   5.9745170  22.5115130  44.1165150
   6.3415300  22.0373700  44.8626490   5.7850230  23.3856700  44.4573490
  13.0514310  24.7550120  42.8242600  13.7713430  25.2505410  42.4338710
  12.8496130  24.0768010  42.1796470   8.5124250  16.1488080  36.9671990
   7.6988860  15.6501250  36.8917300   8.3186200  16.9886330  36.5508340
  11.2272640  20.5207730  35.2634150  12.1152260  20.8324960  35.0885490
  11.1977730  19.6479980  34.8714730   2.3363730  25.4265140  40.6695020
   2.8542400  24.6233400  40.6151910   1.8847750  25.3644280  41.5111850
   7.2233230  26.6931420  35.9422320   7.5648930  27.4373650  35.4465640
   6.3945940  27.0062540  36.3047150  13.4986910  21.8319570  34.7314010
  13.4150630  22.2633790  33.8810450  14.2181100  22.2917920  35.1640830
  14.5274160  28.6861830  37.4596140  13.8850320  28.0317450  37.7339860
  14.1404820  29.0916920  36.6836810  10.1060640  26.0147260  41.3067830
  10.4584460  25.4175390  40.6469200   9.2222970  25.6891490  41.4776080
   6.1923920  26.7744950  38.7138240   6.8795050  27.3214160  39.0945830
   5.4056340  27.3185680  38.7487850   5.4951130  23.7790980  38.3263600
   5.9513910  24.5896230  38.5523790   5.1439340  23.4614120  39.1582090
   9.0715820  27.2929670  44.2733350   9.7138050  26.5922830  44.3865520
   9.5965170  28.0728110  44.0930240  12.9171540  27.5778290  33.9972490
  12.6909120  26.8608730  34.5897130  12.5267740  27.3290730  33.1594240
  12.4987790  25.4950230  35.6586650  12.2109490  25.9562920  36.4464530
  13.2939960  25.0348000  35.9270870   4.7156190  28.9876350  35.5890620
   4.7066290  29.7206040  34.9735130   3.7954550  28.7407930  35.6817580
  13.2557650  17.3299000  36.8181830  12.6270810  17.4344670  36.1040060
  12.7609570  17.5495780  37.6075710   7.7015790  29.0504590  34.2515810
   7.8027770  28.8468580  33.3217790   6.8017530  28.7962870  34.4563590
   5.2241680  19.6084950  38.2339710   4.5157830  20.0771290  38.6753320
   5.5086160  18.9506960  38.8684900   9.2557110  16.3335610  39.6735500
   9.1324890  16.3521740  38.7245010  10.2041670  16.3814550  39.7933900
   6.3433900  31.5690910  38.9463480   6.5975400  31.5312300  38.0242850
   5.3946380  31.4424240  38.9391730   3.4276700  17.9170030  35.6090420
   4.2767230  18.3540180  35.5430610   3.0607970  18.2290290  36.4362480
  12.3486480  22.4882790  40.5221990  11.4076620  22.5033020  40.6969680
  12.6630550  21.7018750  40.9682290   2.3268120  24.1702390  34.0825950
   3.0931390  24.0583750  34.6451380   2.4042810  23.4740360  33.4302720
  14.3512060  29.6591640  42.1976250  14.4759480  30.4822810  42.6700060
  15.2177620  29.4482370  41.8500400   1.8229590  31.7522850  41.8693380
   2.5592070  31.2038310  42.1401950   2.2070510  32.6178860  41.7299370
   4.9331900  30.9253160  33.6918950   5.7260510  31.2141990  33.2400740
   4.4136250  30.4945330  33.0131430  13.9862070  30.1523290  35.1155690
  13.7003580  29.7388430  34.3009870  13.7881620  31.0811000  34.9956210
   5.4509300  26.1456570  33.5561300   5.3459940  25.5308920  34.2822680
   5.2833520  25.6222460  32.7724310   8.6912030  25.2076600  34.1603290
   8.1422130  25.6545900  34.8046030   9.3131290  24.7025850  34.6840960
   4.3587150  24.1667520  36.0568590   4.7803570  24.0007390  36.8999980
   4.4837990  23.3567750  35.5623730   6.8714790  23.1905130  33.3045690
   7.3920450  22.4754150  32.9386840   7.5183190  23.8291000  33.6046200
   3.2546050  20.2400750  33.0026750   3.0535110  19.3768110  33.3640090
   3.0838100  20.1534110  32.0648350  10.7334360  15.0508980  35.5313630
  11.0136650  14.2076880  35.8873050   9.9600090  15.2832090  36.0452380
   2.0528850  17.3401370  32.9904630   2.3554750  17.3468800  32.0823780
   2.7923440  16.9899230  33.4872290   5.2713780  16.2835990  33.9760830
   4.9235780  15.6059980  33.3963280   5.4726550  15.8225500  34.7904220
   7.4362820  31.2716740  35.5947430   8.3313610  31.6101710  35.6166190
   7.4680450  30.5496150  34.9671710   2.8866700  27.7641830  38.9356660
   2.5862240  27.6406800  39.8360570   2.7804190  26.9050420  38.5272390
  15.6558620  27.5438230  33.6383340  14.8251580  27.6114880  34.1090570
  15.8330450  28.4342350  33.3350200  15.1115080  24.2885710  36.1417540
  15.8733990  24.8582360  36.2477230  15.1269450  23.7212910  36.9125850
  16.1175050  25.1435810  40.9859470  16.4883880  24.3603130  40.5795440
  16.7576980  25.8324910  40.8076770  15.1634250  24.5820080  33.2990060
  15.4383090  25.4898960  33.1709280  14.9744990  24.5182610  34.2352050
  11.5609860  17.6064930  34.5943690  11.9794740  17.4195910  33.7540350
  11.2545920  16.7543980  34.9046620  15.0599590  22.5189070  38.2919490
  14.6843190  21.7517000  37.8600780  14.3302710  22.9011770  38.7794420
  14.3350550  20.7446560  41.5926730  14.8588030  20.2509210  40.9616900
  14.9209970  20.8796920  42.3374300  13.8250520  20.0019910  37.5319140
  14.3209640  19.7690780  38.3168020  13.6266590  19.1631750  37.1156780
  15.2537680  18.6380860  40.0656820  15.1436960  18.4836900  41.0039090
  16.0145270  18.1101800  39.8232230  16.1427950  16.4688780  33.3062960
  17.0677260  16.3369960  33.0981250  16.1203740  16.5481600  34.2599410
  16.2166440  17.2399440  35.9319670  15.4217940  17.1744560  36.4612580
  16.4209720  18.1750080  35.9205020  13.1584860  31.2790990  39.9258060
  13.7543930  30.9575560  39.2492480  13.4163010  30.8062810  40.7171330
  13.7097070  31.9286290  43.7555790  13.2500040  32.6802100  43.3813810
  13.0809530  31.2092760  43.6970590   4.1392790  30.2374530  42.9303920
   4.6557810  29.6261890  42.4052180   4.7890170  30.7403310  43.4214930
   6.8788290  31.1283020  43.7572900   7.1666100  30.8737320  42.8805910
   7.3911510  30.5760380  44.3478470   8.0965300  14.8673220  44.3369410
   7.3137090  15.3418720  44.6166170   7.8028230  13.9628050  44.2282590
  12.6486370  15.5696320  42.3818500  13.0894460  15.5141420  41.5340100
  12.3793960  16.4854330  42.4528680  14.5124940  15.2011560  40.3927320
  14.4513340  14.2572780  40.2458340  15.2916970  15.3091650  40.9380780
   5.9819520  17.2859970  39.8485440   5.1694030  16.9116860  39.5081320
   6.4861160  16.5305050  40.1506630  10.4844500  13.9502420  41.0868510
  11.0873870  14.5222630  41.5617030   9.7437490  14.5141860  40.8642410
  13.6279100  14.3523980  36.3608790  13.8229730  15.2507430  36.6276220
  12.8408970  14.1211060  36.8541740   1.8130860  15.6984750  35.3985100
   2.3423620  14.9114550  35.2693050   2.4459180  16.3775940  35.6320630
   4.0068700  15.4359890  38.4530490   3.3771440  14.7347200  38.6200620
   3.4673840  16.1964020  38.2363650  15.1805710  31.5924690  38.1215350
  15.3557900  30.9062430  37.4776270  14.4827280  32.1171740  37.7292020
   3.0233360  31.9819530  35.6750660   3.7552180  31.6978810  35.1274550
   3.2827030  31.7432810  36.5650040   9.6397870  22.1489920  21.8298190
   9.5591920  21.2344530  21.5589900   9.2262290  22.6456990  21.1237900
   7.7715910  23.9268940  23.7107460   6.9958010  23.4469380  24.0006030
   8.4228840  23.2474590  23.5363620  11.7923340  28.3329130  22.4906590
  11.3304870  27.5616370  22.8193760  12.6048890  28.3595200  22.9959040
   1.7683000  28.2728840  24.7841240   2.0711040  27.3826580  24.6051460
   2.5126590  28.8299060  24.5563490   8.0186650  30.6187140  22.1110580
   7.3998090  31.0744640  21.5405020   8.8738430  30.7738600  21.7100280
   7.2124900  26.6026130  23.7177620   7.1433180  25.6616070  23.5566750
   7.9744760  26.6927540  24.2900190   8.2430070  19.4096510  23.9446550
   8.6194890  18.5368390  23.8320220   8.1449580  19.7455210  23.0536990
  12.0254190  16.9046950  20.8774890  12.8463810  16.4143520  20.9200370
  12.0588270  17.4944610  21.6306730   4.2142810  20.7508510  23.7389170
   4.7221030  21.2489480  24.3794190   4.7456050  19.9743710  23.5628530
  16.3153740  18.9213700  27.4418520  15.6105910  19.3095410  26.9233630
  16.5811660  19.6163990  28.0439450   2.4978910  15.3907070  28.0052590
   2.4997350  15.9079460  27.1998490   1.6683220  14.9137250  27.9822520
   8.8850000  25.5026380  19.5042490   8.2667270  25.9675830  18.9405210
   9.3973250  26.1953860  19.9212000   3.7481760  25.0302250  26.1826090
   3.4151140  25.6571170  26.8247160   3.9248440  25.5564130  25.4027760
  12.2615670  18.8447330  23.6502430  11.5571240  19.1332220  24.2305540
  12.6227830  19.6547440  23.2901990   2.9600860  26.9983050  27.9975270
   3.5774860  27.6734130  27.7159720   2.0993980  27.4071030  27.9062770
  13.8778450  28.4622460  25.9129910  13.1941970  29.1321570  25.9046580
  14.4172740  28.6603110  25.1474770  15.3302590  18.2902120  24.0411640
  14.3827500  18.3241100  24.1727070  15.6552580  19.1041070  24.4261000
   5.8622130  14.5899300  22.3367630   6.1697110  14.0346190  21.6203130
   4.9322830  14.7243760  22.1540620  11.4137190  30.3066590  24.6275090
  11.4264350  29.9028880  23.7597350  10.8612410  31.0813880  24.5236520
  12.7082610  27.0282810  19.7165260  12.5978940  26.0857140  19.8414680
  12.7050860  27.3898450  20.6028020  10.8122630  25.2096430  25.9557700
  11.2291420  24.9956540  25.1211160  11.5362450  25.4669220  26.5266320
   8.2502890  22.6548130  19.0727750   7.3232170  22.5885510  19.3016220
   8.4027710  23.5928260  18.9582990   8.2371970  18.9265130  16.0694910
   7.2975640  19.0879090  16.1547370   8.5555230  19.6450810  15.5230900
  14.7584730  23.6083650  26.0473940  13.9303360  23.6776740  25.5724070
  15.3535210  24.1937960  25.5789770  12.2800180  24.2168430  19.5763000
  11.6612600  23.8787980  18.9289300  12.2624630  23.5728190  20.2842190
  11.7226740  20.3952970  26.9928810  11.3097920  21.2206680  27.2468800
  10.9902690  19.8098010  26.8005170   3.8559530  23.1812870  21.8547480
   3.4516530  22.4690120  21.3593380   3.9422650  22.8366110  22.7435520
   4.3241230  26.8680430  24.0186690   4.0269520  26.2625900  23.3394470
   5.2741050  26.9057740  23.9076050   2.5688150  19.9556080  25.6346520
   3.1202740  20.0651420  24.8599770   3.0831660  20.3293680  26.3501750
  12.4126840  30.4412300  27.6809790  11.9357400  31.2484490  27.4882400
  11.7288630  29.7890630  27.8336000   3.4159660  26.6062120  30.6694490
   2.5188190  26.8302090  30.9167890   3.4412530  26.7297060  29.7205890
  10.4564880  23.4555240  16.5835750  10.8958160  22.6177670  16.4373570
  11.1693300  24.0884640  16.6699890   8.5660260  28.3951310  20.5516990
   9.0056170  29.1375640  20.1372380   8.5047150  28.6377880  21.4755950
   4.0411230  29.4197140  31.4537010   4.0126660  29.8240090  30.5865440
   3.8776200  28.4907500  31.2908610  14.0382020  14.7098050  14.8976790
  13.7254680  14.8024880  15.7975860  14.7994490  15.2879080  14.8474220
  15.9926050  30.2024240  32.7501180  16.4685770  30.6807130  33.4290260
  16.6133210  30.1341730  32.0246680  15.3959300  27.3937090  29.9101190
  15.5222360  27.1548970  28.9918370  15.4380680  26.5621630  30.3823270
   9.2576040  31.0965090  28.4796000   9.7720710  31.0073100  29.2818430
   8.4145120  31.4424790  28.7723910  11.2330440  31.3820430  17.9080000
  11.0731580  31.0923370  18.8061830  11.0677150  30.6060560  17.3725230
   3.7118820  31.1618960  19.6851620   3.5361300  30.2454500  19.4719420
   2.8574560  31.5206250  19.9249420  10.9356570  28.8907990  16.4678000
  10.2421730  28.8885280  15.8080280  11.6779430  28.4667310  16.0372170
  10.5006500  30.5170700  20.5426490  10.9563450  29.7360080  20.8565110
  10.8399020  31.2277520  21.0867670  15.2483310  19.4469550  30.8750930
  14.6327580  19.9549220  30.3466390  14.9279730  18.5467880  30.8176870
   3.0227820  15.4192920  22.7377800   2.5795970  16.2002460  22.4062320
   3.5812810  15.7422810  23.4448740   7.3097630  18.2861440  28.3413120
   6.8477000  18.4944460  29.1533060   6.9075740  17.4720790  28.0383790
  12.3102140  19.5070390  29.4709780  11.4595730  19.2076140  29.7918850
  12.1503930  19.7512400  28.5593600   9.4051850  21.0072140  31.5708570
   9.7305260  20.1735890  31.2310800  10.1932180  21.5300660  31.7186900
   6.1386640  15.0403620  17.6183630   5.5140820  15.0363490  18.3436940
   6.0516760  14.1734580  17.2219600   5.0603720  15.9640250  24.5967400
   5.3576050  16.8703080  24.5159420   5.6089280  15.4759030  23.9826970
   2.8142040  20.5426490  20.4659050   2.5882960  20.3263660  21.3705670
   2.0334570  20.9754950  20.1205020  10.0439800  20.5489860  19.0649700
   9.4448690  21.2725660  18.8813320  10.5919410  20.4866640  18.2826150
   5.2541250  21.4412070  31.1319320   5.1584850  20.5006800  30.9819720
   6.0973230  21.6627140  30.7367390   8.6504670  19.1853400  21.0952980
   9.0434240  19.5025600  20.2821670   9.0121520  18.3065280  21.2097500
   6.9596840  17.9360710  32.3549840   6.2695160  17.7432910  32.9895930
   7.7029140  18.2195350  32.8874140   9.2359810  21.7759150  25.1903760
   8.5040930  22.2845960  25.5393860   8.8384150  20.9589130  24.8892540
   5.6737200  18.4513350  23.5956250   5.6773260  18.0103300  22.7460790
   6.5688320  18.7730680  23.7028070   5.7357350  19.4525430  16.5863010
   5.8570170  19.4111910  17.5348830   5.3505860  20.3149580  16.4309740
   9.6985720  17.2292830  24.6026700   9.7158460  17.6801480  25.4468550
   9.4501300  16.3298470  24.8160140   4.7478850  21.7626570  15.9846310
   4.1795750  21.3144820  15.3582220   5.4567850  22.1219350  15.4511460
  13.1256470  14.6425010  30.4413080  13.4502240  13.9114670  30.9671060
  13.1612980  14.3238650  29.5394070   5.9745170  22.5115130  25.3421660
   6.3415300  22.0373700  26.0883000   5.7850230  23.3856700  25.6830000
   3.7644540  21.5523770  27.6605870   3.4601610  22.4315750  27.8856230
   4.7191000  21.6123560  27.6963310  13.0514310  24.7550120  24.0499110
  13.7713430  25.2505410  23.6595220  12.8496130  24.0768010  23.4052980
   8.5124250  16.1488080  18.1928500   7.6988860  15.6501250  18.1173810
   8.3186200  16.9886330  17.7764850   8.4333110  24.8259180  29.9368110
   8.3670420  23.9054850  29.6825700   7.8038250  24.9234620  30.6512750
  11.2272640  20.5207730  16.4890660  12.1152260  20.8324960  16.3142000
  11.1977730  19.6479980  16.0971240   2.3363730  25.4265140  21.8951530
   2.8542400  24.6233400  21.8408420   1.8847750  25.3644280  22.7368360
   7.2233230  26.6931420  17.1678830   7.5648930  27.4373650  16.6722150
   6.3945940  27.0062540  17.5303660   3.0221390  22.8510750  31.6916780
   2.7221530  22.9967930  30.7944600   3.7932630  22.2916040  31.5990170
   8.3649840  27.6479750  29.6871910   8.3794380  26.7160710  29.4690820
   7.6574940  27.7339510  30.3261680  13.4986910  21.8319570  15.9570520
  13.4150630  22.2633790  15.1066960  14.2181100  22.2917920  16.3897340
  14.5761050  24.2887090  29.0340490  13.8509240  24.8815870  28.8369880
  15.1036510  24.2810630  28.2353860  14.5274160  28.6861830  18.6852650
  13.8850320  28.0317450  18.9596370  14.1404820  29.0916920  17.9093320
  10.1060640  26.0147260  22.5324340  10.4584460  25.4175390  21.8725710
   9.2222970  25.6891490  22.7032590   6.1923920  26.7744950  19.9394750
   6.8795050  27.3214160  20.3202340   5.4056340  27.3185680  19.9744360
   5.4951130  23.7790980  19.5520110   5.9513910  24.5896230  19.7780300
   5.1439340  23.4614120  20.3838600   7.7983740  29.2897320  26.7812410
   8.4425960  29.4956700  27.4585830   8.1613180  28.5285720  26.3283260
   9.0715820  27.2929670  25.4989860   9.7138050  26.5922830  25.6122030
   9.5965170  28.0728110  25.3186750  12.9171540  27.5778290  15.2229000
  12.6909120  26.8608730  15.8153640  12.5267740  27.3290730  14.3850750
  10.8453440  28.0924570  28.7025920  11.1809680  28.6791260  29.3803840
   9.9253780  27.9617280  28.9323710  12.4987790  25.4950230  16.8843160
  12.2109490  25.9562920  17.6721040  13.2939960  25.0348000  17.1527380
   6.6742020  28.1415900  31.8713980   6.3538890  27.4225140  32.4159670
   6.0000380  28.8170970  31.9450040   4.7156190  28.9876350  16.8147130
   4.7066290  29.7206040  16.1991640   3.7954550  28.7407930  16.9074090
   9.8895620  18.3742060  27.2350780  10.2576440  17.5537270  27.5630350
   9.0293820  18.4343950  27.6506430  13.2557650  17.3299000  18.0438340
  12.6270810  17.4344670  17.3296570  12.7609570  17.5495780  18.8332220
   7.7015790  29.0504590  15.4772320   7.8027770  28.8468580  14.5474300
   6.8017530  28.7962870  15.6820100   5.2241680  19.6084950  19.4596220
   4.5157830  20.0771290  19.9009830   5.5086160  18.9506960  20.0941410
   6.8497610  21.0281650  27.4588750   7.3482860  21.5027470  28.1240600
   6.9920560  20.1045170  27.6658780   9.2557110  16.3335610  20.8992010
   9.1324890  16.3521740  19.9501520  10.2041670  16.3814550  21.0190410
   6.3433900  31.5690910  20.1719990   6.5975400  31.5312300  19.2499360
   5.3946380  31.4424240  20.1648240   3.4276700  17.9170030  16.8346930
   4.2767230  18.3540180  16.7687120   3.0607970  18.2290290  17.6618990
  14.0564470  17.2449610  28.3017140  13.5538070  17.9855010  28.6410950
  14.8721130  17.6333610  27.9853930  12.3486480  22.4882790  21.7478500
  11.4076620  22.5033020  21.9226190  12.6630550  21.7018750  22.1938800
   2.3268120  24.1702390  15.3082460   3.0931390  24.0583750  15.8707890
   2.4042810  23.4740360  14.6559230  14.3512060  29.6591640  23.4232760
  14.4759480  30.4822810  23.8956570  15.2177620  29.4482370  23.0756910
   1.8229590  31.7522850  23.0949890   2.5592070  31.2038310  23.3658460
   2.2070510  32.6178860  22.9555880   4.9331900  30.9253160  14.9175460
   5.7260510  31.2141990  14.4657250   4.4136250  30.4945330  14.2387940
   9.6652500  27.0448790  32.2310880   9.0590660  27.0680390  31.4906630
   9.3606610  26.3131830  32.7678130  11.0952870  30.7729080  30.8420290
  12.0474620  30.6887100  30.7920530  10.9481090  31.4370790  31.5154080
  13.9862070  30.1523290  16.3412200  13.7003580  29.7388430  15.5266380
  13.7881620  31.0811000  16.2212720   5.4509300  26.1456570  14.7817810
   5.3459940  25.5308920  15.5079190   5.2833520  25.6222460  13.9980820
   5.6023620  24.8313370  30.7607040   4.8369290  25.3998370  30.6761710
   5.7839580  24.5389580  29.8675270   8.6912030  25.2076600  15.3859800
   8.1422130  25.6545900  16.0302540   9.3131290  24.7025850  15.9097470
  12.7446970  26.5618700  31.3182060  13.4856440  26.8994460  30.8149520
  11.9819650  26.7310760  30.7651830   4.3587150  24.1667520  17.2825100
   4.7803570  24.0007390  18.1256490   4.4837990  23.3567750  16.7880240
   2.5214570  20.1464070  30.0896080   1.9911030  19.6555020  29.4619420
   3.1902640  20.5748270  29.5554010   6.8714790  23.1905130  14.5302200
   7.3920450  22.4754150  14.1643350   7.5183190  23.8291000  14.8302710
  11.4192630  24.6133530  29.8537270  11.8333650  24.7678610  30.7027690
  10.4843630  24.7388750  30.0163050  11.8914800  21.9529690  31.8576420
  12.4735570  21.1982010  31.7696900  12.0676570  22.4837130  31.0807900
   3.0086870  17.1126440  30.1693370   2.9143740  16.4947190  29.4444240
   2.4284260  17.8392730  29.9423280   5.7748310  15.6699680  27.2020760
   5.3265610  15.6923940  26.3566310   5.1413510  15.2718700  27.7991060
   6.1807860  24.5654010  27.8233200   6.5995970  25.4086740  27.6509440
   5.2616490  24.7026050  27.5939980   8.5171760  22.2970190  29.2071040
   8.6367970  21.7011330  29.9465880   9.3765760  22.3339880  28.7872340
  10.8559660  22.8507380  27.7833550  10.3294880  23.3750000  27.1798690
  11.1991000  23.4834770  28.4143280   3.2546050  20.2400750  14.2283260
   3.0535110  19.3768110  14.5896600   3.0838100  20.1534110  13.2904860
   4.0315280  30.8707020  28.9390930   3.4936370  31.5953080  28.6199630
   4.2849240  30.3937360  28.1488270   5.2840530  18.8391540  30.4646860
   5.8740220  18.5307390  31.1524680   4.4660770  18.3671290  30.6206760
  10.1033960  18.4557350  30.6979880   9.4149480  17.7938890  30.6329870
  10.8239980  18.0095620  31.1428340  10.7334360  15.0508980  16.7570140
  11.0136650  14.2076880  17.1129560   9.9600090  15.2832090  17.2708890
   2.0528850  17.3401370  14.2161140   2.3554750  17.3468800  13.3080290
   2.7923440  16.9899230  14.7128800   6.8877490  32.1058230  29.1977580
   6.8136190  33.0093370  29.5049950   5.9856330  31.7870130  29.1699650
   5.2713780  16.2835990  15.2017340   4.9235780  15.6059980  14.6219790
   5.4726550  15.8225500  16.0160730   7.4362820  31.2716740  16.8203940
   8.3313610  31.6101710  16.8422700   7.4680450  30.5496150  16.1928220
   2.8866700  27.7641830  20.1613170   2.5862240  27.6406800  21.0617080
   2.7804190  26.9050420  19.7528900  14.4157170  29.8020410  29.5270140
  13.8159160  29.8612970  28.7834060  14.5451070  28.8625390  29.6566990
  15.6558620  27.5438230  14.8639850  14.8251580  27.6114880  15.3347080
  15.8330450  28.4342350  14.5606710  15.1115080  24.2885710  17.3674050
  15.8733990  24.8582360  17.4733740  15.1269450  23.7212910  18.1382360
  16.1175050  25.1435810  22.2115980  16.4883880  24.3603130  21.8051950
  16.7576980  25.8324910  22.0333280  13.1008810  26.5272390  27.6246300
  12.2868650  26.9569550  27.8872090  13.5083010  27.1390800  27.0115350
  15.1634250  24.5820080  14.5246570  15.4383090  25.4898960  14.3965790
  14.9744990  24.5182610  15.4608560  11.5609860  17.6064930  15.8200200
  11.9794740  17.4195910  14.9796860  11.2545920  16.7543980  16.1303130
  15.0599590  22.5189070  19.5176000  14.6843190  21.7517000  19.0857290
  14.3302710  22.9011770  20.0050930  14.4499210  21.6660590  29.1515520
  14.2185300  21.4373340  28.2513470  14.7103760  22.5860140  29.1060410
  12.8887280  16.8917020  31.9295220  13.7657460  16.9000420  32.3129220
  12.9008120  16.1547860  31.3187570  14.3350550  20.7446560  22.8183240
  14.8588030  20.2509210  22.1873410  14.9209970  20.8796920  23.5630810
  14.5140270  20.8286430  26.3402790  13.5642980  20.7949970  26.4547780
  14.6953280  21.7386540  26.1052560  13.8250520  20.0019910  18.7575650
  14.3209640  19.7690780  19.5424530  13.6266590  19.1631750  18.3413290
  15.2537680  18.6380860  21.2913330  15.1436960  18.4836900  22.2295600
  16.0145270  18.1101800  21.0488740  13.6003400  14.5774990  27.7496330
  14.2375620  15.1909130  28.1155520  13.7478290  14.6135650  26.8045560
  16.1427950  16.4688780  14.5319470  17.0677260  16.3369960  14.3237760
  16.1203740  16.5481600  15.4855920  16.2166440  17.2399440  17.1576180
  15.4217940  17.1744560  17.6869090  16.4209720  18.1750080  17.1461530
  13.1584860  31.2790990  21.1514570  13.7543930  30.9575560  20.4748990
  13.4163010  30.8062810  21.9427840   4.7653460  29.2668490  26.9014920
   4.5244820  29.5343050  26.0145440   5.7056100  29.4374220  26.9565780
   6.9707880  15.7301180  30.6571430   6.9096770  16.3223010  31.4066840
   7.9108260  15.6227140  30.5121690   9.6082440  15.3871240  30.2963720
  10.2222850  15.7050530  29.6344800  10.1532000  14.9019830  30.9159580
  16.0257620  31.2862870  27.7025560  15.5315900  31.6831740  26.9852690
  15.4170910  30.6612080  28.0962840  10.3490480  13.9503380  26.6233010
   9.4750320  14.2838490  26.4205940  10.2401230  13.4776560  27.4484880
  11.2562460  16.1574250  28.0074730  10.9275820  15.3426010  27.6276460
  12.2044760  16.1144060  27.8840420  13.7097070  31.9286290  24.9812300
  13.2500040  32.6802100  24.6070320  13.0809530  31.2092760  24.9227100
   4.1392790  30.2374530  24.1560430   4.6557810  29.6261890  23.6308690
   4.7890170  30.7403310  24.6471440   6.8788290  31.1283020  24.9829410
   7.1666100  30.8737320  24.1062420   7.3911510  30.5760380  25.5734980
   8.0965300  14.8673220  25.5625920   7.3137090  15.3418720  25.8422680
   7.8028230  13.9628050  25.4539100  12.6486370  15.5696320  23.6075010
  13.0894460  15.5141420  22.7596610  12.3793960  16.4854330  23.6785190
  14.5124940  15.2011560  21.6183830  14.4513340  14.2572780  21.4714850
  15.2916970  15.3091650  22.1637290   5.9819520  17.2859970  21.0741950
   5.1694030  16.9116860  20.7337830   6.4861160  16.5305050  21.3763140
  10.4844500  13.9502420  22.3125020  11.0873870  14.5222630  22.7873540
   9.7437490  14.5141860  22.0898920  13.6279100  14.3523980  17.5865300
  13.8229730  15.2507430  17.8532730  12.8408970  14.1211060  18.0798250
   1.8130860  15.6984750  16.6241610   2.3423620  14.9114550  16.4949560
   2.4459180  16.3775940  16.8577140   4.0068700  15.4359890  19.6787000
   3.3771440  14.7347200  19.8457130   3.4673840  16.1964020  19.4620160
   6.9460650  32.0499120  32.3497610   7.8727960  31.8143390  32.3933570
   6.9311080  32.8771120  31.8683640  15.1805710  31.5924690  19.3471860
  15.3557900  30.9062430  18.7032780  14.4827280  32.1171740  18.9548530
   4.1324260  14.7143870  32.1139490   3.8508530  15.2177470  31.3500310
   4.5143960  13.9165620  31.7481620   3.0233360  31.9819530  16.9007170
   3.7552180  31.6978810  16.3531060   3.2827030  31.7432810  17.7906550
  10.7339720  14.1297450  32.6919960  10.6205170  14.4492060  33.5871480
  11.5509460  14.5309960  32.3957240  13.5138210  31.2768980  32.1738650
  14.3063530  30.7818210  31.9664610  13.8071360  31.9559120  32.7814260
   9.6397870  22.1489920   3.0554700   9.5591920  21.2344530   2.7846410
   9.2262290  22.6456990   2.3494410   7.7715910  23.9268940   4.9363970
   6.9958010  23.4469380   5.2262540   8.4228840  23.2474590   4.7620130
  11.7923340  28.3329130   3.7163100  11.3304870  27.5616370   4.0450270
  12.6048890  28.3595200   4.2215550   1.7683000  28.2728840   6.0097750
   2.0711040  27.3826580   5.8307970   2.5126590  28.8299060   5.7820000
   8.0186650  30.6187140   3.3367090   7.3998090  31.0744640   2.7661530
   8.8738430  30.7738600   2.9356790   7.2124900  26.6026130   4.9434130
   7.1433180  25.6616070   4.7823260   7.9744760  26.6927540   5.5156700
   8.2430070  19.4096510   5.1703060   8.6194890  18.5368390   5.0576730
   8.1449580  19.7455210   4.2793500  12.0254190  16.9046950   2.1031400
  12.8463810  16.4143520   2.1456880  12.0588270  17.4944610   2.8563240
   4.2142810  20.7508510   4.9645680   4.7221030  21.2489480   5.6050700
   4.7456050  19.9743710   4.7885040  16.3153740  18.9213700   8.6675030
  15.6105910  19.3095410   8.1490140  16.5811660  19.6163990   9.2695960
   2.4978910  15.3907070   9.2309100   2.4997350  15.9079460   8.4255000
   1.6683220  14.9137250   9.2079030   3.7481760  25.0302250   7.4082600
   3.4151140  25.6571170   8.0503670   3.9248440  25.5564130   6.6284270
  12.2615670  18.8447330   4.8758940  11.5571240  19.1332220   5.4562050
  12.6227830  19.6547440   4.5158500   2.9600860  26.9983050   9.2231780
   3.5774860  27.6734130   8.9416230   2.0993980  27.4071030   9.1319280
  13.8778450  28.4622460   7.1386420  13.1941970  29.1321570   7.1303090
  14.4172740  28.6603110   6.3731280  15.3302590  18.2902120   5.2668150
  14.3827500  18.3241100   5.3983580  15.6552580  19.1041070   5.6517510
   5.8622130  14.5899300   3.5624140   6.1697110  14.0346190   2.8459640
   4.9322830  14.7243760   3.3797130  11.4137190  30.3066590   5.8531600
  11.4264350  29.9028880   4.9853860  10.8612410  31.0813880   5.7493030
  10.8122630  25.2096430   7.1814210  11.2291420  24.9956540   6.3467670
  11.5362450  25.4669220   7.7522830  14.7584730  23.6083650   7.2730450
  13.9303360  23.6776740   6.7980580  15.3535210  24.1937960   6.8046280
  11.7226740  20.3952970   8.2185320  11.3097920  21.2206680   8.4725310
  10.9902690  19.8098010   8.0261680   3.8559530  23.1812870   3.0803990
   3.4516530  22.4690120   2.5849890   3.9422650  22.8366110   3.9692030
   4.3241230  26.8680430   5.2443200   4.0269520  26.2625900   4.5650980
   5.2741050  26.9057740   5.1332560   2.5688150  19.9556080   6.8603030
   3.1202740  20.0651420   6.0856280   3.0831660  20.3293680   7.5758260
  12.4126840  30.4412300   8.9066300  11.9357400  31.2484490   8.7138910
  11.7288630  29.7890630   9.0592510   3.4159660  26.6062120  11.8951000
   2.5188190  26.8302090  12.1424400   3.4412530  26.7297060  10.9462400
   4.0411230  29.4197140  12.6793520   4.0126660  29.8240090  11.8121950
   3.8776200  28.4907500  12.5165120  15.9926050  30.2024240  13.9757690
  16.4685770  30.6807130  14.6546770  16.6133210  30.1341730  13.2503190
  15.3959300  27.3937090  11.1357700  15.5222360  27.1548970  10.2174880
  15.4380680  26.5621630  11.6079780   9.2576040  31.0965090   9.7052510
   9.7720710  31.0073100  10.5074940   8.4145120  31.4424790   9.9980420
  10.5006500  30.5170700   1.7683000  10.9563450  29.7360080   2.0821620
  10.8399020  31.2277520   2.3124180  15.2483310  19.4469550  12.1007440
  14.6327580  19.9549220  11.5722900  14.9279730  18.5467880  12.0433380
   3.0227820  15.4192920   3.9634310   2.5795970  16.2002460   3.6318830
   3.5812810  15.7422810   4.6705250   7.3097630  18.2861440   9.5669630
   6.8477000  18.4944460  10.3789570   6.9075740  17.4720790   9.2640300
  12.3102140  19.5070390  10.6966290  11.4595730  19.2076140  11.0175360
  12.1503930  19.7512400   9.7850110   9.4051850  21.0072140  12.7965080
   9.7305260  20.1735890  12.4567310  10.1932180  21.5300660  12.9443410
   5.0603720  15.9640250   5.8223910   5.3576050  16.8703080   5.7415930
   5.6089280  15.4759030   5.2083480   5.2541250  21.4412070  12.3575830
   5.1584850  20.5006800  12.2076230   6.0973230  21.6627140  11.9623900
   6.9596840  17.9360710  13.5806350   6.2695160  17.7432910  14.2152440
   7.7029140  18.2195350  14.1130650   9.2359810  21.7759150   6.4160270
   8.5040930  22.2845960   6.7650370   8.8384150  20.9589130   6.1149050
   5.6737200  18.4513350   4.8212760   5.6773260  18.0103300   3.9717300
   6.5688320  18.7730680   4.9284580   9.6985720  17.2292830   5.8283210
   9.7158460  17.6801480   6.6725060   9.4501300  16.3298470   6.0416650
  13.1256470  14.6425010  11.6669590  13.4502240  13.9114670  12.1927570
  13.1612980  14.3238650  10.7650580   5.9745170  22.5115130   6.5678170
   6.3415300  22.0373700   7.3139510   5.7850230  23.3856700   6.9086510
   3.7644540  21.5523770   8.8862380   3.4601610  22.4315750   9.1112740
   4.7191000  21.6123560   8.9219820  13.0514310  24.7550120   5.2755620
  13.7713430  25.2505410   4.8851730  12.8496130  24.0768010   4.6309490
   8.4333110  24.8259180  11.1624620   8.3670420  23.9054850  10.9082210
   7.8038250  24.9234620  11.8769260   2.3363730  25.4265140   3.1208040
   2.8542400  24.6233400   3.0664930   1.8847750  25.3644280   3.9624870
   3.0221390  22.8510750  12.9173290   2.7221530  22.9967930  12.0201110
   3.7932630  22.2916040  12.8246680   8.3649840  27.6479750  10.9128420
   8.3794380  26.7160710  10.6947330   7.6574940  27.7339510  11.5518190
  14.5761050  24.2887090  10.2597000  13.8509240  24.8815870  10.0626390
  15.1036510  24.2810630   9.4610370  10.1060640  26.0147260   3.7580850
  10.4584460  25.4175390   3.0982220   9.2222970  25.6891490   3.9289100
   7.7983740  29.2897320   8.0068920   8.4425960  29.4956700   8.6842340
   8.1613180  28.5285720   7.5539770   9.0715820  27.2929670   6.7246370
   9.7138050  26.5922830   6.8378540   9.5965170  28.0728110   6.5443260
  10.8453440  28.0924570   9.9282430  11.1809680  28.6791260  10.6060350
   9.9253780  27.9617280  10.1580220   6.6742020  28.1415900  13.0970490
   6.3538890  27.4225140  13.6416180   6.0000380  28.8170970  13.1706550
   9.8895620  18.3742060   8.4607290  10.2576440  17.5537270   8.7886860
   9.0293820  18.4343950   8.8762940   6.8497610  21.0281650   8.6845260
   7.3482860  21.5027470   9.3497110   6.9920560  20.1045170   8.8915290
  14.0564470  17.2449610   9.5273650  13.5538070  17.9855010   9.8667460
  14.8721130  17.6333610   9.2110440  12.3486480  22.4882790   2.9735010
  11.4076620  22.5033020   3.1482700  12.6630550  21.7018750   3.4195310
  14.3512060  29.6591640   4.6489270  14.4759480  30.4822810   5.1213080
  15.2177620  29.4482370   4.3013420   1.8229590  31.7522850   4.3206400
   2.5592070  31.2038310   4.5914970   2.2070510  32.6178860   4.1812390
   9.6652500  27.0448790  13.4567390   9.0590660  27.0680390  12.7163140
   9.3606610  26.3131830  13.9934640  11.0952870  30.7729080  12.0676800
  12.0474620  30.6887100  12.0177040  10.9481090  31.4370790  12.7410590
   5.6023620  24.8313370  11.9863550   4.8369290  25.3998370  11.9018220
   5.7839580  24.5389580  11.0931780  12.7446970  26.5618700  12.5438570
  13.4856440  26.8994460  12.0406030  11.9819650  26.7310760  11.9908340
   2.5214570  20.1464070  11.3152590   1.9911030  19.6555020  10.6875930
   3.1902640  20.5748270  10.7810520  11.4192630  24.6133530  11.0793780
  11.8333650  24.7678610  11.9284200  10.4843630  24.7388750  11.2419560
  11.8914800  21.9529690  13.0832930  12.4735570  21.1982010  12.9953410
  12.0676570  22.4837130  12.3064410   3.0086870  17.1126440  11.3949880
   2.9143740  16.4947190  10.6700750   2.4284260  17.8392730  11.1679790
   5.7748310  15.6699680   8.4277270   5.3265610  15.6923940   7.5822820
   5.1413510  15.2718700   9.0247570   6.1807860  24.5654010   9.0489710
   6.5995970  25.4086740   8.8765950   5.2616490  24.7026050   8.8196490
   8.5171760  22.2970190  10.4327550   8.6367970  21.7011330  11.1722390
   9.3765760  22.3339880  10.0128850  10.8559660  22.8507380   9.0090060
  10.3294880  23.3750000   8.4055200  11.1991000  23.4834770   9.6399790
   4.0315280  30.8707020  10.1647440   3.4936370  31.5953080   9.8456140
   4.2849240  30.3937360   9.3744780   5.2840530  18.8391540  11.6903370
   5.8740220  18.5307390  12.3781190   4.4660770  18.3671290  11.8463270
  10.1033960  18.4557350  11.9236390   9.4149480  17.7938890  11.8586380
  10.8239980  18.0095620  12.3684850   6.8877490  32.1058230  10.4234090
   6.8136190  33.0093370  10.7306460   5.9856330  31.7870130  10.3956160
  14.4157170  29.8020410  10.7526650  13.8159160  29.8612970  10.0090570
  14.5451070  28.8625390  10.8823500  16.1175050  25.1435810   3.4372490
  16.4883880  24.3603130   3.0308460  16.7576980  25.8324910   3.2589790
  13.1008810  26.5272390   8.8502810  12.2868650  26.9569550   9.1128600
  13.5083010  27.1390800   8.2371860  14.4499210  21.6660590  10.3772030
  14.2185300  21.4373340   9.4769980  14.7103760  22.5860140  10.3316920
  12.8887280  16.8917020  13.1551730  13.7657460  16.9000420  13.5385730
  12.9008120  16.1547860  12.5444080  14.3350550  20.7446560   4.0439750
  14.8588030  20.2509210   3.4129920  14.9209970  20.8796920   4.7887320
  14.5140270  20.8286430   7.5659300  13.5642980  20.7949970   7.6804290
  14.6953280  21.7386540   7.3309070  15.2537680  18.6380860   2.5169840
  15.1436960  18.4836900   3.4552110  16.0145270  18.1101800   2.2745250
  13.6003400  14.5774990   8.9752840  14.2375620  15.1909130   9.3412030
  13.7478290  14.6135650   8.0302070  13.1584860  31.2790990   2.3771080
  13.7543930  30.9575560   1.7005500  13.4163010  30.8062810   3.1684350
   4.7653460  29.2668490   8.1271430   4.5244820  29.5343050   7.2401950
   5.7056100  29.4374220   8.1822290   6.9707880  15.7301180  11.8827940
   6.9096770  16.3223010  12.6323350   7.9108260  15.6227140  11.7378200
   9.6082440  15.3871240  11.5220230  10.2222850  15.7050530  10.8601310
  10.1532000  14.9019830  12.1416090  16.0257620  31.2862870   8.9282070
  15.5315900  31.6831740   8.2109200  15.4170910  30.6612080   9.3219350
  10.3490480  13.9503380   7.8489520   9.4750320  14.2838490   7.6462450
  10.2401230  13.4776560   8.6741390  11.2562460  16.1574250   9.2331240
  10.9275820  15.3426010   8.8532970  12.2044760  16.1144060   9.1096930
  13.7097070  31.9286290   6.2068810  13.2500040  32.6802100   5.8326830
  13.0809530  31.2092760   6.1483610   4.1392790  30.2374530   5.3816940
   4.6557810  29.6261890   4.8565200   4.7890170  30.7403310   5.8727950
   6.8788290  31.1283020   6.2085920   7.1666100  30.8737320   5.3318930
   7.3911510  30.5760380   6.7991490   8.0965300  14.8673220   6.7882430
   7.3137090  15.3418720   7.0679190   7.8028230  13.9628050   6.6795610
  12.6486370  15.5696320   4.8331520  13.0894460  15.5141420   3.9853120
  12.3793960  16.4854330   4.9041700  14.5124940  15.2011560   2.8440340
  14.4513340  14.2572780   2.6971360  15.2916970  15.3091650   3.3893800
   5.9819520  17.2859970   2.2998460   5.1694030  16.9116860   1.9594340
   6.4861160  16.5305050   2.6019650  10.4844500  13.9502420   3.5381530
  11.0873870  14.5222630   4.0130050   9.7437490  14.5141860   3.3155430
   6.9460650  32.0499120  13.5754120   7.8727960  31.8143390  13.6190080
   6.9311080  32.8771120  13.0940150   4.1324260  14.7143870  13.3396000
   3.8508530  15.2177470  12.5756820   4.5143960  13.9165620  12.9738130
  10.7339720  14.1297450  13.9176470  10.6205170  14.4492060  14.8127990
  11.5509460  14.5309960  13.6213750  13.5138210  31.2768980  13.3995160
  14.3063530  30.7818210  13.1921120  13.8071360  31.9559120  14.0070770
   9.6397870   3.3746430  40.6041680   9.5591920   2.4601040  40.3333390
   9.2262290   3.8713500  39.8981390   7.7715910   5.1525450  42.4850950
   6.9958010   4.6725890  42.7749520   8.4228840   4.4731100  42.3107110
  11.7923340   9.5585640  41.2650080  11.3304870   8.7872880  41.5937250
  12.6048890   9.5851710  41.7702530   1.7683000   9.4985350  43.5584730
   2.0711040   8.6083090  43.3794950   2.5126590  10.0555570  43.3306980
   8.0186650  11.8443650  40.8854070   7.3998090  12.3001150  40.3148510
   8.8738430  11.9995110  40.4843770   7.2124900   7.8282640  42.4921110
   7.1433180   6.8872580  42.3310240   7.9744760   7.9184050  43.0643680
   8.8850000   6.7282890  38.2785980   8.2667270   7.1932340  37.7148700
   9.3973250   7.4210370  38.6955490  13.8778450   9.6878970  44.6873400
  13.1941970  10.3578080  44.6790070  14.4172740   9.8859620  43.9218260
  11.4137190  11.5323100  43.4018580  11.4264350  11.1285390  42.5340840
  10.8612410  12.3070390  43.2980010  12.7082610   8.2539320  38.4908750
  12.5978940   7.3113650  38.6158170  12.7050860   8.6154960  39.3771510
   8.2502890   3.8804640  37.8471240   7.3232170   3.8142020  38.0759710
   8.4027710   4.8184770  37.7326480  14.7584730   4.8340160  44.8217430
  13.9303360   4.9033250  44.3467560  15.3535210   5.4194470  44.3533260
  12.2800180   5.4424940  38.3506490  11.6612600   5.1044490  37.7032790
  12.2624630   4.7984700  39.0585680   3.8559530   4.4069380  40.6290970
   3.4516530   3.6946630  40.1336870   3.9422650   4.0622620  41.5179010
   4.3241230   8.0936940  42.7930180   4.0269520   7.4882410  42.1137960
   5.2741050   8.1314250  42.6819540  10.4564880   4.6811750  35.3579240
  10.8958160   3.8434180  35.2117060  11.1693300   5.3141150  35.4443380
   8.5660260   9.6207820  39.3260480   9.0056170  10.3632150  38.9115870
   8.5047150   9.8634390  40.2499440  11.2330440  12.6076940  36.6823490
  11.0731580  12.3179880  37.5805320  11.0677150  11.8317070  36.1468720
   3.7118820  12.3875470  38.4595110   3.5361300  11.4711010  38.2462910
   2.8574560  12.7462760  38.6992910  10.9356570  10.1164500  35.2421490
  10.2421730  10.1141790  34.5823770  11.6779430   9.6923820  34.8115660
  10.5006500  11.7427210  39.3169980  10.9563450  10.9616590  39.6308600
  10.8399020  12.4534030  39.8611160   2.8142040   1.7683000  39.2402540
   2.5882960   1.5520170  40.1449160   2.0334570   2.2011460  38.8948510
  10.0439800   1.7746370  37.8393190   9.4448690   2.4982170  37.6556810
  10.5919410   1.7123150  37.0569640   9.2359810   3.0015660  43.9647250
   8.5040930   3.5102470  44.3137350   8.8384150   2.1845640  43.6636030
   4.7478850   2.9883080  34.7589800   4.1795750   2.5401330  34.1325710
   5.4567850   3.3475860  34.2254950   5.9745170   3.7371640  44.1165150
   6.3415300   3.2630210  44.8626490   5.7850230   4.6113210  44.4573490
  13.0514310   5.9806630  42.8242600  13.7713430   6.4761920  42.4338710
  12.8496130   5.3024520  42.1796470   2.3363730   6.6521650  40.6695020
   2.8542400   5.8489910  40.6151910   1.8847750   6.5900790  41.5111850
   7.2233230   7.9187930  35.9422320   7.5648930   8.6630160  35.4465640
   6.3945940   8.2319050  36.3047150  13.4986910   3.0576080  34.7314010
  13.4150630   3.4890300  33.8810450  14.2181100   3.5174430  35.1640830
  14.5274160   9.9118340  37.4596140  13.8850320   9.2573960  37.7339860
  14.1404820  10.3173430  36.6836810  10.1060640   7.2403770  41.3067830
  10.4584460   6.6431900  40.6469200   9.2222970   6.9148000  41.4776080
   6.1923920   8.0001460  38.7138240   6.8795050   8.5470670  39.0945830
   5.4056340   8.5442190  38.7487850   5.4951130   5.0047490  38.3263600
   5.9513910   5.8152740  38.5523790   5.1439340   4.6870630  39.1582090
   9.0715820   8.5186180  44.2733350   9.7138050   7.8179340  44.3865520
   9.5965170   9.2984620  44.0930240  12.9171540   8.8034800  33.9972490
  12.6909120   8.0865240  34.5897130  12.5267740   8.5547240  33.1594240
  12.4987790   6.7206740  35.6586650  12.2109490   7.1819430  36.4464530
  13.2939960   6.2604510  35.9270870   4.7156190  10.2132860  35.5890620
   4.7066290  10.9462550  34.9735130   3.7954550   9.9664440  35.6817580
   7.7015790  10.2761100  34.2515810   7.8027770  10.0725090  33.3217790
   6.8017530  10.0219380  34.4563590   6.3433900  12.7947420  38.9463480
   6.5975400  12.7568810  38.0242850   5.3946380  12.6680750  38.9391730
  12.3486480   3.7139300  40.5221990  11.4076620   3.7289530  40.6969680
  12.6630550   2.9275260  40.9682290   2.3268120   5.3958900  34.0825950
   3.0931390   5.2840260  34.6451380   2.4042810   4.6996870  33.4302720
  14.3512060  10.8848150  42.1976250  14.4759480  11.7079320  42.6700060
  15.2177620  10.6738880  41.8500400   1.8229590  12.9779360  41.8693380
   2.5592070  12.4294820  42.1401950   2.2070510  13.8435370  41.7299370
   4.9331900  12.1509670  33.6918950   5.7260510  12.4398500  33.2400740
   4.4136250  11.7201840  33.0131430  13.9862070  11.3779800  35.1155690
  13.7003580  10.9644940  34.3009870  13.7881620  12.3067510  34.9956210
   5.4509300   7.3713080  33.5561300   5.3459940   6.7565430  34.2822680
   5.2833520   6.8478970  32.7724310   8.6912030   6.4333110  34.1603290
   8.1422130   6.8802410  34.8046030   9.3131290   5.9282360  34.6840960
   4.3587150   5.3924030  36.0568590   4.7803570   5.2263900  36.8999980
   4.4837990   4.5824260  35.5623730   6.8714790   4.4161640  33.3045690
   7.3920450   3.7010660  32.9386840   7.5183190   5.0547510  33.6046200
   7.4362820  12.4973250  35.5947430   8.3313610  12.8358220  35.6166190
   7.4680450  11.7752660  34.9671710   2.8866700   8.9898340  38.9356660
   2.5862240   8.8663310  39.8360570   2.7804190   8.1306930  38.5272390
  15.6558620   8.7694740  33.6383340  14.8251580   8.8371390  34.1090570
  15.8330450   9.6598860  33.3350200  15.1115080   5.5142220  36.1417540
  15.8733990   6.0838870  36.2477230  15.1269450   4.9469420  36.9125850
  16.1175050   6.3692320  40.9859470  16.4883880   5.5859640  40.5795440
  16.7576980   7.0581420  40.8076770  15.1634250   5.8076590  33.2990060
  15.4383090   6.7155470  33.1709280  14.9744990   5.7439120  34.2352050
  15.0599590   3.7445580  38.2919490  14.6843190   2.9773510  37.8600780
  14.3302710   4.1268280  38.7794420  14.3350550   1.9703070  41.5926730
  14.8588030   1.4765720  40.9616900  14.9209970   2.1053430  42.3374300
  13.1584860  12.5047500  39.9258060  13.7543930  12.1832070  39.2492480
  13.4163010  12.0319320  40.7171330  13.7097070  13.1542800  43.7555790
  13.2500040  13.9058610  43.3813810  13.0809530  12.4349270  43.6970590
   4.1392790  11.4631040  42.9303920   4.6557810  10.8518400  42.4052180
   4.7890170  11.9659820  43.4214930   6.8788290  12.3539530  43.7572900
   7.1666100  12.0993830  42.8805910   7.3911510  11.8016890  44.3478470
  15.1805710  12.8181200  38.1215350  15.3557900  12.1318940  37.4776270
  14.4827280  13.3428250  37.7292020   3.0233360  13.2076040  35.6750660
   3.7552180  12.9235320  35.1274550   3.2827030  12.9689320  36.5650040
   9.6397870   3.3746430  21.8298190   9.5591920   2.4601040  21.5589900
   9.2262290   3.8713500  21.1237900   7.7715910   5.1525450  23.7107460
   6.9958010   4.6725890  24.0006030   8.4228840   4.4731100  23.5363620
  11.7923340   9.5585640  22.4906590  11.3304870   8.7872880  22.8193760
  12.6048890   9.5851710  22.9959040   1.7683000   9.4985350  24.7841240
   2.0711040   8.6083090  24.6051460   2.5126590  10.0555570  24.5563490
   8.0186650  11.8443650  22.1110580   7.3998090  12.3001150  21.5405020
   8.8738430  11.9995110  21.7100280   7.2124900   7.8282640  23.7177620
   7.1433180   6.8872580  23.5566750   7.9744760   7.9184050  24.2900190
   8.8850000   6.7282890  19.5042490   8.2667270   7.1932340  18.9405210
   9.3973250   7.4210370  19.9212000   3.7481760   6.2558760  26.1826090
   3.4151140   6.8827680  26.8247160   3.9248440   6.7820640  25.4027760
   2.9600860   8.2239560  27.9975270   3.5774860   8.8990640  27.7159720
   2.0993980   8.6327540  27.9062770  13.8778450   9.6878970  25.9129910
  13.1941970  10.3578080  25.9046580  14.4172740   9.8859620  25.1474770
  11.4137190  11.5323100  24.6275090  11.4264350  11.1285390  23.7597350
  10.8612410  12.3070390  24.5236520  12.7082610   8.2539320  19.7165260
  12.5978940   7.3113650  19.8414680  12.7050860   8.6154960  20.6028020
  10.8122630   6.4352940  25.9557700  11.2291420   6.2213050  25.1211160
  11.5362450   6.6925730  26.5266320   8.2502890   3.8804640  19.0727750
   7.3232170   3.8142020  19.3016220   8.4027710   4.8184770  18.9582990
  14.7584730   4.8340160  26.0473940  13.9303360   4.9033250  25.5724070
  15.3535210   5.4194470  25.5789770  12.2800180   5.4424940  19.5763000
  11.6612600   5.1044490  18.9289300  12.2624630   4.7984700  20.2842190
   3.8559530   4.4069380  21.8547480   3.4516530   3.6946630  21.3593380
   3.9422650   4.0622620  22.7435520   4.3241230   8.0936940  24.0186690
   4.0269520   7.4882410  23.3394470   5.2741050   8.1314250  23.9076050
  12.4126840  11.6668810  27.6809790  11.9357400  12.4741000  27.4882400
  11.7288630  11.0147140  27.8336000   3.4159660   7.8318630  30.6694490
   2.5188190   8.0558600  30.9167890   3.4412530   7.9553570  29.7205890
  10.4564880   4.6811750  16.5835750  10.8958160   3.8434180  16.4373570
  11.1693300   5.3141150  16.6699890   8.5660260   9.6207820  20.5516990
   9.0056170  10.3632150  20.1372380   8.5047150   9.8634390  21.4755950
   4.0411230  10.6453650  31.4537010   4.0126660  11.0496600  30.5865440
   3.8776200   9.7164010  31.2908610  15.9926050  11.4280750  32.7501180
  16.4685770  11.9063640  33.4290260  16.6133210  11.3598240  32.0246680
  15.3959300   8.6193600  29.9101190  15.5222360   8.3805480  28.9918370
  15.4380680   7.7878140  30.3823270   9.2576040  12.3221600  28.4796000
   9.7720710  12.2329610  29.2818430   8.4145120  12.6681300  28.7723910
  11.2330440  12.6076940  17.9080000  11.0731580  12.3179880  18.8061830
  11.0677150  11.8317070  17.3725230   3.7118820  12.3875470  19.6851620
   3.5361300  11.4711010  19.4719420   2.8574560  12.7462760  19.9249420
  10.9356570  10.1164500  16.4678000  10.2421730  10.1141790  15.8080280
  11.6779430   9.6923820  16.0372170  10.5006500  11.7427210  20.5426490
  10.9563450  10.9616590  20.8565110  10.8399020  12.4534030  21.0867670
   9.4051850   2.2328650  31.5708570   9.7305260   1.3992400  31.2310800
  10.1932180   2.7557170  31.7186900   2.8142040   1.7683000  20.4659050
   2.5882960   1.5520170  21.3705670   2.0334570   2.2011460  20.1205020
  10.0439800   1.7746370  19.0649700   9.4448690   2.4982170  18.8813320
  10.5919410   1.7123150  18.2826150   5.2541250   2.6668580  31.1319320
   5.1584850   1.7263310  30.9819720   6.0973230   2.8883650  30.7367390
   9.2359810   3.0015660  25.1903760   8.5040930   3.5102470  25.5393860
   8.8384150   2.1845640  24.8892540   4.7478850   2.9883080  15.9846310
   4.1795750   2.5401330  15.3582220   5.4567850   3.3475860  15.4511460
   5.9745170   3.7371640  25.3421660   6.3415300   3.2630210  26.0883000
   5.7850230   4.6113210  25.6830000   3.7644540   2.7780280  27.6605870
   3.4601610   3.6572260  27.8856230   4.7191000   2.8380070  27.6963310
  13.0514310   5.9806630  24.0499110  13.7713430   6.4761920  23.6595220
  12.8496130   5.3024520  23.4052980   8.4333110   6.0515690  29.9368110
   8.3670420   5.1311360  29.6825700   7.8038250   6.1491130  30.6512750
   2.3363730   6.6521650  21.8951530   2.8542400   5.8489910  21.8408420
   1.8847750   6.5900790  22.7368360   7.2233230   7.9187930  17.1678830
   7.5648930   8.6630160  16.6722150   6.3945940   8.2319050  17.5303660
   3.0221390   4.0767260  31.6916780   2.7221530   4.2224440  30.7944600
   3.7932630   3.5172550  31.5990170   8.3649840   8.8736260  29.6871910
   8.3794380   7.9417220  29.4690820   7.6574940   8.9596020  30.3261680
  13.4986910   3.0576080  15.9570520  13.4150630   3.4890300  15.1066960
  14.2181100   3.5174430  16.3897340  14.5761050   5.5143600  29.0340490
  13.8509240   6.1072380  28.8369880  15.1036510   5.5067140  28.2353860
  14.5274160   9.9118340  18.6852650  13.8850320   9.2573960  18.9596370
  14.1404820  10.3173430  17.9093320  10.1060640   7.2403770  22.5324340
  10.4584460   6.6431900  21.8725710   9.2222970   6.9148000  22.7032590
   6.1923920   8.0001460  19.9394750   6.8795050   8.5470670  20.3202340
   5.4056340   8.5442190  19.9744360   5.4951130   5.0047490  19.5520110
   5.9513910   5.8152740  19.7780300   5.1439340   4.6870630  20.3838600
   7.7983740  10.5153830  26.7812410   8.4425960  10.7213210  27.4585830
   8.1613180   9.7542230  26.3283260   9.0715820   8.5186180  25.4989860
   9.7138050   7.8179340  25.6122030   9.5965170   9.2984620  25.3186750
  12.9171540   8.8034800  15.2229000  12.6909120   8.0865240  15.8153640
  12.5267740   8.5547240  14.3850750  10.8453440   9.3181080  28.7025920
  11.1809680   9.9047770  29.3803840   9.9253780   9.1873790  28.9323710
  12.4987790   6.7206740  16.8843160  12.2109490   7.1819430  17.6721040
  13.2939960   6.2604510  17.1527380   6.6742020   9.3672410  31.8713980
   6.3538890   8.6481650  32.4159670   6.0000380  10.0427480  31.9450040
   4.7156190  10.2132860  16.8147130   4.7066290  10.9462550  16.1991640
   3.7954550   9.9664440  16.9074090   7.7015790  10.2761100  15.4772320
   7.8027770  10.0725090  14.5474300   6.8017530  10.0219380  15.6820100
   6.3433900  12.7947420  20.1719990   6.5975400  12.7568810  19.2499360
   5.3946380  12.6680750  20.1648240  12.3486480   3.7139300  21.7478500
  11.4076620   3.7289530  21.9226190  12.6630550   2.9275260  22.1938800
   2.3268120   5.3958900  15.3082460   3.0931390   5.2840260  15.8707890
   2.4042810   4.6996870  14.6559230  14.3512060  10.8848150  23.4232760
  14.4759480  11.7079320  23.8956570  15.2177620  10.6738880  23.0756910
   1.8229590  12.9779360  23.0949890   2.5592070  12.4294820  23.3658460
   2.2070510  13.8435370  22.9555880   4.9331900  12.1509670  14.9175460
   5.7260510  12.4398500  14.4657250   4.4136250  11.7201840  14.2387940
   9.6652500   8.2705300  32.2310880   9.0590660   8.2936900  31.4906630
   9.3606610   7.5388340  32.7678130  11.0952870  11.9985590  30.8420290
  12.0474620  11.9143610  30.7920530  10.9481090  12.6627300  31.5154080
  13.9862070  11.3779800  16.3412200  13.7003580  10.9644940  15.5266380
  13.7881620  12.3067510  16.2212720   5.4509300   7.3713080  14.7817810
   5.3459940   6.7565430  15.5079190   5.2833520   6.8478970  13.9980820
   5.6023620   6.0569880  30.7607040   4.8369290   6.6254880  30.6761710
   5.7839580   5.7646090  29.8675270   8.6912030   6.4333110  15.3859800
   8.1422130   6.8802410  16.0302540   9.3131290   5.9282360  15.9097470
  12.7446970   7.7875210  31.3182060  13.4856440   8.1250970  30.8149520
  11.9819650   7.9567270  30.7651830   4.3587150   5.3924030  17.2825100
   4.7803570   5.2263900  18.1256490   4.4837990   4.5824260  16.7880240
   6.8714790   4.4161640  14.5302200   7.3920450   3.7010660  14.1643350
   7.5183190   5.0547510  14.8302710  11.4192630   5.8390040  29.8537270
  11.8333650   5.9935120  30.7027690  10.4843630   5.9645260  30.0163050
  11.8914800   3.1786200  31.8576420  12.4735570   2.4238520  31.7696900
  12.0676570   3.7093640  31.0807900   6.1807860   5.7910520  27.8233200
   6.5995970   6.6343250  27.6509440   5.2616490   5.9282560  27.5939980
   8.5171760   3.5226700  29.2071040   8.6367970   2.9267840  29.9465880
   9.3765760   3.5596390  28.7872340  10.8559660   4.0763890  27.7833550
  10.3294880   4.6006510  27.1798690  11.1991000   4.7091280  28.4143280
   4.0315280  12.0963530  28.9390930   3.4936370  12.8209590  28.6199630
   4.2849240  11.6193870  28.1488270   6.8877490  13.3314740  29.1977580
   6.8136190  14.2349880  29.5049950   5.9856330  13.0126640  29.1699650
   7.4362820  12.4973250  16.8203940   8.3313610  12.8358220  16.8422700
   7.4680450  11.7752660  16.1928220   2.8866700   8.9898340  20.1613170
   2.5862240   8.8663310  21.0617080   2.7804190   8.1306930  19.7528900
  14.4157170  11.0276920  29.5270140  13.8159160  11.0869480  28.7834060
  14.5451070  10.0881900  29.6566990  15.6558620   8.7694740  14.8639850
  14.8251580   8.8371390  15.3347080  15.8330450   9.6598860  14.5606710
  15.1115080   5.5142220  17.3674050  15.8733990   6.0838870  17.4733740
  15.1269450   4.9469420  18.1382360  16.1175050   6.3692320  22.2115980
  16.4883880   5.5859640  21.8051950  16.7576980   7.0581420  22.0333280
  13.1008810   7.7528900  27.6246300  12.2868650   8.1826060  27.8872090
  13.5083010   8.3647310  27.0115350  15.1634250   5.8076590  14.5246570
  15.4383090   6.7155470  14.3965790  14.9744990   5.7439120  15.4608560
  15.0599590   3.7445580  19.5176000  14.6843190   2.9773510  19.0857290
  14.3302710   4.1268280  20.0050930  14.4499210   2.8917100  29.1515520
  14.2185300   2.6629850  28.2513470  14.7103760   3.8116650  29.1060410
  14.3350550   1.9703070  22.8183240  14.8588030   1.4765720  22.1873410
  14.9209970   2.1053430  23.5630810  14.5140270   2.0542940  26.3402790
  13.5642980   2.0206480  26.4547780  14.6953280   2.9643050  26.1052560
  13.1584860  12.5047500  21.1514570  13.7543930  12.1832070  20.4748990
  13.4163010  12.0319320  21.9427840   4.7653460  10.4925000  26.9014920
   4.5244820  10.7599560  26.0145440   5.7056100  10.6630730  26.9565780
  16.0257620  12.5119380  27.7025560  15.5315900  12.9088250  26.9852690
  15.4170910  11.8868590  28.0962840  13.7097070  13.1542800  24.9812300
  13.2500040  13.9058610  24.6070320  13.0809530  12.4349270  24.9227100
   4.1392790  11.4631040  24.1560430   4.6557810  10.8518400  23.6308690
   4.7890170  11.9659820  24.6471440   6.8788290  12.3539530  24.9829410
   7.1666100  12.0993830  24.1062420   7.3911510  11.8016890  25.5734980
   6.9460650  13.2755630  32.3497610   7.8727960  13.0399900  32.3933570
   6.9311080  14.1027630  31.8683640  15.1805710  12.8181200  19.3471860
  15.3557900  12.1318940  18.7032780  14.4827280  13.3428250  18.9548530
   3.0233360  13.2076040  16.9007170   3.7552180  12.9235320  16.3531060
   3.2827030  12.9689320  17.7906550  13.5138210  12.5025490  32.1738650
  14.3063530  12.0074720  31.9664610  13.8071360  13.1815630  32.7814260
   9.6397870   3.3746430   3.0554700   9.5591920   2.4601040   2.7846410
   9.2262290   3.8713500   2.3494410   7.7715910   5.1525450   4.9363970
   6.9958010   4.6725890   5.2262540   8.4228840   4.4731100   4.7620130
  11.7923340   9.5585640   3.7163100  11.3304870   8.7872880   4.0450270
  12.6048890   9.5851710   4.2215550   1.7683000   9.4985350   6.0097750
   2.0711040   8.6083090   5.8307970   2.5126590  10.0555570   5.7820000
   8.0186650  11.8443650   3.3367090   7.3998090  12.3001150   2.7661530
   8.8738430  11.9995110   2.9356790   7.2124900   7.8282640   4.9434130
   7.1433180   6.8872580   4.7823260   7.9744760   7.9184050   5.5156700
   3.7481760   6.2558760   7.4082600   3.4151140   6.8827680   8.0503670
   3.9248440   6.7820640   6.6284270   2.9600860   8.2239560   9.2231780
   3.5774860   8.8990640   8.9416230   2.0993980   8.6327540   9.1319280
  13.8778450   9.6878970   7.1386420  13.1941970  10.3578080   7.1303090
  14.4172740   9.8859620   6.3731280  11.4137190  11.5323100   5.8531600
  11.4264350  11.1285390   4.9853860  10.8612410  12.3070390   5.7493030
  10.8122630   6.4352940   7.1814210  11.2291420   6.2213050   6.3467670
  11.5362450   6.6925730   7.7522830  14.7584730   4.8340160   7.2730450
  13.9303360   4.9033250   6.7980580  15.3535210   5.4194470   6.8046280
   3.8559530   4.4069380   3.0803990   3.4516530   3.6946630   2.5849890
   3.9422650   4.0622620   3.9692030   4.3241230   8.0936940   5.2443200
   4.0269520   7.4882410   4.5650980   5.2741050   8.1314250   5.1332560
  12.4126840  11.6668810   8.9066300  11.9357400  12.4741000   8.7138910
  11.7288630  11.0147140   9.0592510   3.4159660   7.8318630  11.8951000
   2.5188190   8.0558600  12.1424400   3.4412530   7.9553570  10.9462400
   4.0411230  10.6453650  12.6793520   4.0126660  11.0496600  11.8121950
   3.8776200   9.7164010  12.5165120  15.9926050  11.4280750  13.9757690
  16.4685770  11.9063640  14.6546770  16.6133210  11.3598240  13.2503190
  15.3959300   8.6193600  11.1357700  15.5222360   8.3805480  10.2174880
  15.4380680   7.7878140  11.6079780   9.2576040  12.3221600   9.7052510
   9.7720710  12.2329610  10.5074940   8.4145120  12.6681300   9.9980420
  10.5006500  11.7427210   1.7683000  10.9563450  10.9616590   2.0821620
  10.8399020  12.4534030   2.3124180   9.4051850   2.2328650  12.7965080
   9.7305260   1.3992400  12.4567310  10.1932180   2.7557170  12.9443410
   5.2541250   2.6668580  12.3575830   5.1584850   1.7263310  12.2076230
   6.0973230   2.8883650  11.9623900   9.2359810   3.0015660   6.4160270
   8.5040930   3.5102470   6.7650370   8.8384150   2.1845640   6.1149050
   5.9745170   3.7371640   6.5678170   6.3415300   3.2630210   7.3139510
   5.7850230   4.6113210   6.9086510   3.7644540   2.7780280   8.8862380
   3.4601610   3.6572260   9.1112740   4.7191000   2.8380070   8.9219820
  13.0514310   5.9806630   5.2755620  13.7713430   6.4761920   4.8851730
  12.8496130   5.3024520   4.6309490   8.4333110   6.0515690  11.1624620
   8.3670420   5.1311360  10.9082210   7.8038250   6.1491130  11.8769260
   2.3363730   6.6521650   3.1208040   2.8542400   5.8489910   3.0664930
   1.8847750   6.5900790   3.9624870   3.0221390   4.0767260  12.9173290
   2.7221530   4.2224440  12.0201110   3.7932630   3.5172550  12.8246680
   8.3649840   8.8736260  10.9128420   8.3794380   7.9417220  10.6947330
   7.6574940   8.9596020  11.5518190  14.5761050   5.5143600  10.2597000
  13.8509240   6.1072380  10.0626390  15.1036510   5.5067140   9.4610370
  10.1060640   7.2403770   3.7580850  10.4584460   6.6431900   3.0982220
   9.2222970   6.9148000   3.9289100   7.7983740  10.5153830   8.0068920
   8.4425960  10.7213210   8.6842340   8.1613180   9.7542230   7.5539770
   9.0715820   8.5186180   6.7246370   9.7138050   7.8179340   6.8378540
   9.5965170   9.2984620   6.5443260  10.8453440   9.3181080   9.9282430
  11.1809680   9.9047770  10.6060350   9.9253780   9.1873790  10.1580220
   6.6742020   9.3672410  13.0970490   6.3538890   8.6481650  13.6416180
   6.0000380  10.0427480  13.1706550  12.3486480   3.7139300   2.9735010
  11.4076620   3.7289530   3.1482700  12.6630550   2.9275260   3.4195310
  14.3512060  10.8848150   4.6489270  14.4759480  11.7079320   5.1213080
  15.2177620  10.6738880   4.3013420   1.8229590  12.9779360   4.3206400
   2.5592070  12.4294820   4.5914970   2.2070510  13.8435370   4.1812390
   9.6652500   8.2705300  13.4567390   9.0590660   8.2936900  12.7163140
   9.3606610   7.5388340  13.9934640  11.0952870  11.9985590  12.0676800
  12.0474620  11.9143610  12.0177040  10.9481090  12.6627300  12.7410590
   5.6023620   6.0569880  11.9863550   4.8369290   6.6254880  11.9018220
   5.7839580   5.7646090  11.0931780  12.7446970   7.7875210  12.5438570
  13.4856440   8.1250970  12.0406030  11.9819650   7.9567270  11.9908340
  11.4192630   5.8390040  11.0793780  11.8333650   5.9935120  11.9284200
  10.4843630   5.9645260  11.2419560  11.8914800   3.1786200  13.0832930
  12.4735570   2.4238520  12.9953410  12.0676570   3.7093640  12.3064410
   6.1807860   5.7910520   9.0489710   6.5995970   6.6343250   8.8765950
   5.2616490   5.9282560   8.8196490   8.5171760   3.5226700  10.4327550
   8.6367970   2.9267840  11.1722390   9.3765760   3.5596390  10.0128850
  10.8559660   4.0763890   9.0090060  10.3294880   4.6006510   8.4055200
  11.1991000   4.7091280   9.6399790   4.0315280  12.0963530  10.1647440
   3.4936370  12.8209590   9.8456140   4.2849240  11.6193870   9.3744780
   6.8877490  13.3314740  10.4234090   6.8136190  14.2349880  10.7306460
   5.9856330  13.0126640  10.3956160  14.4157170  11.0276920  10.7526650
  13.8159160  11.0869480  10.0090570  14.5451070  10.0881900  10.8823500
  16.1175050   6.3692320   3.4372490  16.4883880   5.5859640   3.0308460
  16.7576980   7.0581420   3.2589790  13.1008810   7.7528900   8.8502810
  12.2868650   8.1826060   9.1128600  13.5083010   8.3647310   8.2371860
  14.4499210   2.8917100  10.3772030  14.2185300   2.6629850   9.4769980
  14.7103760   3.8116650  10.3316920  14.3350550   1.9703070   4.0439750
  14.8588030   1.4765720   3.4129920  14.9209970   2.1053430   4.7887320
  14.5140270   2.0542940   7.5659300  13.5642980   2.0206480   7.6804290
  14.6953280   2.9643050   7.3309070  13.1584860  12.5047500   2.3771080
  13.7543930  12.1832070   1.7005500  13.4163010  12.0319320   3.1684350
   4.7653460  10.4925000   8.1271430   4.5244820  10.7599560   7.2401950
   5.7056100  10.6630730   8.1822290  16.0257620  12.5119380   8.9282070
  15.5315900  12.9088250   8.2109200  15.4170910  11.8868590   9.3219350
  13.7097070  13.1542800   6.2068810  13.2500040  13.9058610   5.8326830
  13.0809530  12.4349270   6.1483610   4.1392790  11.4631040   5.3816940
   4.6557810  10.8518400   4.8565200   4.7890170  11.9659820   5.8727950
   6.8788290  12.3539530   6.2085920   7.1666100  12.0993830   5.3318930
   7.3911510  11.8016890   6.7991490   6.9460650  13.2755630  13.5754120
   7.8727960  13.0399900  13.6190080   6.9311080  14.1027630  13.0940150
  13.5138210  12.5025490  13.3995160  14.3063530  12.0074720  13.1921120
  13.8071360  13.1815630  14.0070770
  51.0396720  45.9691630  46.5900430  90.0000000  90.0000000  90.0000000
