default_name
  1720
 -29.8980000   8.0000000  -0.1710000 -29.4550000   9.4970000  -0.4750000
 -28.3300000   9.6750000  -1.5700000 -28.5490000   8.9670000  -2.9430000
 -27.4780000   8.9730000  -4.0300000 -26.2190000   8.0940000  -3.6480000
 -26.4220000   6.5340000  -3.5000000 -25.1910000   5.6950000  -3.0810000
 -24.5870000   5.9800000  -1.6680000 -25.5280000   5.7060000  -0.4260000
 -26.2100000   4.2930000  -0.2060000 -25.1950000   3.1270000  -0.0850000
 -24.4840000   2.8610000   1.2600000 -23.5220000   1.6600000   1.0120000
 -22.3290000   2.0190000   0.0530000 -21.5790000   3.3390000   0.3200000
 -21.1150000   3.5710000   1.8220000 -20.0230000   2.5810000   2.2110000
 -19.4470000   2.9420000   3.5760000 -18.2920000   1.9500000   4.1230000
 -17.0270000   1.8730000   3.2340000 -16.4190000   3.2630000   3.1000000
 -15.2350000   3.4580000   2.0950000 -15.7570000   3.7940000   0.6860000
 -14.8240000   3.6470000  -0.4750000 -13.7220000   4.7600000  -0.5750000
 -12.5120000   4.2630000  -1.4320000 -12.8450000   3.7740000  -2.8620000
 -11.6610000   3.2930000  -3.7140000 -11.0710000   1.8910000  -3.2670000
  -9.6810000   1.6470000  -3.9510000  -8.4530000   2.6230000  -3.6110000
  -7.9660000   2.6060000  -2.0930000  -7.7470000   1.1990000  -1.1930000
  -6.7850000   0.0670000  -1.5870000  -5.4220000   0.6710000  -2.0880000
  -4.5960000   1.4100000  -1.0530000  -3.0850000   1.4870000  -1.4170000
  -2.8040000   2.3750000  -2.6620000  -3.5520000   3.7530000  -2.7480000
  -3.5280000   4.7680000  -1.5670000  -2.0720000   5.0850000  -1.0220000
  -1.2290000   5.9890000  -1.9370000  -1.2280000   7.5950000  -1.6440000
  -0.8170000   8.0710000  -0.2890000   0.6490000   7.9100000   0.1780000
   1.6110000   8.9650000  -0.5510000   1.6080000  10.3980000   0.2120000
   2.0710000  10.4410000   1.7290000   3.0220000  11.6060000   2.1850000
   2.5510000  12.9990000   1.8730000   1.0940000  13.4010000   2.3590000
   0.9540000  13.3550000   3.9070000   1.9080000  14.2230000   4.7700000
   2.2860000  15.6830000   4.2450000   1.1360000  16.8510000   4.3480000
   0.7070000  16.9960000   5.8600000   1.8180000  17.1890000   6.9710000
   2.9570000  18.3120000   6.8850000   2.3850000  19.7690000   6.5140000
   1.2790000  20.2530000   7.5070000   1.5700000  20.5820000   8.9860000
   2.8600000  21.4680000   9.1420000   2.7440000  22.8840000   8.5680000
   3.9180000  23.9190000   8.9590000   5.4670000  23.5500000   8.4640000
   5.7860000  23.7950000   6.9820000   6.2100000  25.2880000   6.5900000
   7.5990000  25.7200000   7.0990000   7.6370000  27.2750000   7.1860000
   8.6290000  27.8780000   8.2250000   8.2210000  27.7010000   9.8000000
  10.0780000  27.5580000   7.7190000  10.8220000  26.7730000   8.5500000
  12.1130000  26.5290000   8.2140000  12.6190000  26.9740000   6.9770000
  14.0380000  26.7550000   6.5660000  15.0380000  27.7960000   7.1130000
  15.0050000  27.9540000   8.6590000  16.4740000  27.3560000   6.7910000
  14.7360000  29.1770000   6.5310000  11.8040000  27.6240000   6.0440000
  10.5230000  27.8720000   6.4440000   5.8710000  25.6370000   5.1110000
   5.1090000  26.8260000   4.9280000   4.7940000  27.2310000   3.5800000
   5.1810000  26.4770000   2.5180000   4.8910000  26.9570000   1.1390000
   5.9470000  27.7110000   0.3410000   5.4050000  27.9920000  -1.0250000
   6.2600000  29.0950000   1.0520000   7.2190000  26.8490000   0.2440000
   6.0190000  25.2880000   2.7270000   6.3360000  24.8900000   4.0640000
   3.5910000  25.3560000   8.6110000   2.9550000  25.7260000   7.3600000
   2.5890000  27.0940000   7.1640000   2.9590000  28.0410000   8.0930000
   2.8040000  29.5100000   7.7360000   1.5930000  30.2270000   8.2430000
   1.5870000  30.2390000   9.7890000   1.5340000  31.5910000   7.7360000
   0.2550000  29.5380000   7.7700000   3.7420000  27.6660000   9.2450000
   4.0430000  26.3210000   9.5030000   0.3540000  21.1590000   9.7460000
  -0.4500000  22.2430000   9.2170000  -1.4630000  22.7850000  10.0100000
  -1.8200000  22.1470000  11.2330000  -2.9530000  22.7040000  12.0720000
  -4.3820000  22.2800000  11.6820000  -4.4320000  20.7690000  11.7410000
  -5.3890000  22.9510000  12.6470000  -4.6900000  22.5880000  10.2150000
  -1.0370000  21.0700000  11.7300000   0.0840000  20.6150000  11.0180000
   3.9670000  18.2170000   8.0570000   3.6190000  17.5590000   9.2820000
   4.5850000  17.6280000  10.3290000   5.6860000  18.4370000  10.2800000
   6.5380000  18.4230000  11.5700000   7.3650000  19.5780000  12.0040000
   7.8130000  19.4590000  13.4970000   8.6430000  19.7460000  11.1620000
   6.6220000  20.9110000  11.9150000   5.9790000  19.0880000   9.0290000
   5.1370000  18.9510000   7.9780000   1.4170000  18.1920000   3.6700000
   2.7100000  18.6250000   3.2500000   2.8210000  19.9060000   2.7150000
   1.7830000  20.8430000   2.6880000   2.1150000  22.3410000   2.3280000
   2.6390000  23.1200000   3.5400000   2.9300000  24.6120000   3.2610000
   1.5530000  23.1770000   4.6340000   3.9290000  22.4890000   4.0340000
   0.5540000  20.4890000   3.1860000   0.3700000  19.1980000   3.6820000
  -0.5430000  13.5590000   4.4080000  -1.4310000  14.4170000   3.6650000
  -2.7210000  14.5630000   4.1370000  -3.1200000  13.9560000   5.3870000
  -4.5100000  14.0800000   6.0720000  -5.6340000  13.2040000   5.4010000
  -6.0540000  13.7890000   3.9670000  -4.9810000  11.7750000   5.2330000
  -6.8180000  13.3600000   6.2960000  -2.1540000  13.2090000   6.1460000
  -0.8960000  12.9730000   5.5740000   3.8130000  11.4950000   3.4110000
   3.3650000  10.8440000   4.5820000   4.1090000  10.7480000   5.6810000
   5.3770000  11.3340000   5.7720000   6.2640000  11.1660000   6.9730000
   7.2810000   9.9990000   6.7860000   8.0600000  10.1760000   5.4780000
   8.2660000  10.0250000   7.9620000   6.6010000   8.5770000   6.7180000
   5.8530000  12.0460000   4.6320000   5.0740000  12.0400000   3.4850000
   3.0870000   8.5430000  -0.7070000   3.6470000   7.5820000   0.0970000
   5.0240000   7.2100000  -0.0420000   5.7440000   7.7990000  -1.0870000
   7.2510000   7.5370000  -1.2130000   7.6850000   6.3760000  -2.1240000
   9.1790000   6.3630000  -2.0780000   7.1590000   5.0380000  -1.6730000
   7.3060000   6.6900000  -3.5470000   5.1280000   8.7000000  -1.8460000
   3.7750000   9.0710000  -1.7420000  -0.6480000   8.2830000  -2.9230000
   0.3490000   7.7580000  -3.7890000   0.9430000   8.5940000  -4.7020000
   0.5140000   9.8720000  -4.9270000   1.1880000  10.7730000  -5.9990000
   0.3250000  10.7900000  -7.2790000  -0.2900000   9.3720000  -7.6920000
  -0.8000000  11.7370000  -7.2210000   1.1890000  11.2310000  -8.5000000
  -0.5210000  10.4300000  -4.1160000  -1.0220000   9.6200000  -3.1050000
  -4.2740000   6.1550000  -1.8380000  -4.4520000   7.0190000  -0.7960000
  -4.9480000   8.3070000  -0.9450000  -5.5030000   8.6620000  -2.2270000
  -6.0280000  10.1090000  -2.4930000  -7.5470000  10.5510000  -2.4100000
  -8.1980000  10.1550000  -3.7340000  -8.1700000   9.8690000  -1.1880000
  -7.6420000  12.1090000  -2.2130000  -5.3290000   7.7200000  -3.3240000
  -4.6880000   6.5310000  -3.0850000  -2.2520000   1.9550000  -0.2410000
  -2.8100000   2.5890000   0.8890000  -1.9920000   2.8690000   1.9570000
  -0.6490000   2.6110000   2.0300000   0.1550000   3.0310000   3.2490000
   0.7760000   4.4740000   3.2190000   1.4380000   4.7340000   1.8800000
  -0.3960000   5.4380000   3.4670000   1.8110000   4.4760000   4.3410000
  -0.0440000   1.9720000   0.9910000  -0.8530000   1.6400000  -0.1290000
  -2.5690000   0.0330000  -1.6120000  -1.7400000  -0.2650000  -2.7060000
  -1.2990000  -1.5360000  -2.8840000  -1.5300000  -2.5510000  -1.9760000
  -1.0650000  -4.0300000  -2.2450000  -0.5480000  -4.2610000  -3.7870000
   0.9310000  -3.7930000  -4.1500000   1.1160000  -3.4580000  -5.6710000
   2.3400000  -2.5430000  -5.8930000   2.3850000  -1.9330000  -7.2980000
   3.9070000  -1.4970000  -7.6710000   4.8900000  -2.6580000  -7.8910000
   6.3760000  -2.0860000  -7.8530000   7.5480000  -3.0210000  -7.7170000
   7.4560000  -4.2450000  -8.7650000   7.5210000  -3.7810000 -10.1910000
   9.0220000  -3.8210000 -10.7840000   9.6240000  -5.2050000 -10.8420000
   8.9650000  -6.1340000 -11.8330000   9.7150000  -6.3950000 -13.1630000
  11.0760000  -7.1030000 -13.1660000  11.9170000  -7.1390000 -14.4250000
  12.4800000  -5.8040000 -14.8760000  13.3770000  -5.0640000 -13.8600000
  14.4640000  -5.7900000 -13.0330000  15.5740000  -6.4240000 -13.9390000
  16.2150000  -5.4010000 -14.9610000  17.1300000  -4.3180000 -14.4000000
  17.6890000  -3.1990000 -15.3450000  16.4980000  -2.4980000 -16.1400000
  16.8870000  -1.4580000 -17.2090000  18.0510000  -2.0080000 -18.0970000
  17.5740000  -3.0920000 -19.0060000  18.6690000  -3.7960000 -19.8670000
  20.0310000  -4.4110000 -19.2000000  19.7700000  -5.6400000 -18.3570000
  21.0020000  -6.1330000 -17.5360000  20.7610000  -7.3950000 -16.6560000
  20.7170000  -8.7710000 -17.3980000  21.9010000  -7.5370000 -15.5780000
  21.4470000  -7.4570000 -14.2590000  22.3800000  -7.6670000 -13.1790000
  23.7660000  -7.8360000 -13.5150000  24.8690000  -7.9680000 -12.4460000
  24.6970000  -9.2170000 -11.4900000  23.4890000  -9.3330000 -10.6880000
  24.7690000 -10.5350000 -12.3640000  25.9600000  -9.1850000 -10.5270000
  24.2140000  -7.6720000 -14.8360000  23.2990000  -7.4640000 -15.8390000
  21.0840000  -4.6320000 -20.2990000  21.0610000  -5.7450000 -21.1640000
  21.9050000  -5.8370000 -22.3080000  22.7070000  -4.7460000 -22.6210000
  23.6010000  -4.7420000 -23.8110000  22.9210000  -4.4050000 -25.1240000
  22.4200000  -5.6110000 -26.0020000  21.7680000  -3.5490000 -24.7470000
  23.8590000  -3.4960000 -26.0440000  22.8810000  -3.6530000 -21.7610000
  21.9680000  -3.5420000 -20.6150000  18.8100000  -0.8970000 -18.8750000
  18.1620000  -0.1880000 -19.9610000  18.9350000   0.6920000 -20.7640000
  20.3450000   0.9180000 -20.4990000  21.1630000   1.9060000 -21.3400000
  21.3990000   3.2920000 -20.8200000  22.4220000   3.9120000 -21.7670000
  20.0880000   4.1460000 -21.0680000  21.8920000   3.2510000 -19.4300000
  20.9720000   0.2650000 -19.4640000  20.2060000  -0.6960000 -18.7320000
  18.5720000  -2.2040000 -14.6110000  18.0320000  -1.2470000 -13.7010000
  18.9160000  -0.5040000 -12.9270000  20.3340000  -0.5330000 -13.1300000
  21.3740000   0.2630000 -12.2740000  21.7830000  -0.2660000 -10.9070000
  22.8180000   0.6420000 -10.3020000  20.6530000  -0.3510000  -9.9930000
  22.3940000  -1.6590000 -11.1890000  20.8150000  -1.5300000 -13.9980000
  19.9430000  -2.3110000 -14.8080000  16.6320000  -7.1650000 -13.1300000
  17.0270000  -6.9720000 -11.8280000  17.9590000  -7.8160000 -11.2530000
  18.5010000  -8.8630000 -12.0120000  19.6210000  -9.7420000 -11.4010000
  19.1430000 -10.8640000 -10.5190000  18.0730000 -10.4190000  -9.4890000
  18.6650000 -12.0020000 -11.4290000  20.2970000 -11.3990000  -9.7040000
  18.1420000  -9.0730000 -13.3200000  17.1950000  -8.2470000 -13.8610000
  13.1210000  -5.8300000 -16.2800000  13.6490000  -7.0060000 -16.7920000
  14.4280000  -7.0000000 -17.9770000  14.3300000  -5.8410000 -18.7990000
  15.0140000  -5.9810000 -20.0810000  14.2690000  -6.7220000 -21.1820000
  14.3130000  -8.2690000 -21.0300000  12.7530000  -6.2210000 -21.3340000
  14.9680000  -6.2550000 -22.4100000  13.7620000  -4.6400000 -18.3300000
  13.1270000  -4.6590000 -17.1110000   8.7690000  -7.0630000 -14.1570000
   7.9540000  -8.1720000 -13.7630000   6.9210000  -8.6130000 -14.5880000
   6.6960000  -8.0060000 -15.8420000   5.5850000  -8.4770000 -16.8160000
   5.9780000  -9.6880000 -17.7080000   4.8390000  -9.9010000 -18.7120000
   7.3000000  -9.4950000 -18.4790000   6.0330000 -10.8960000 -16.7880000
   7.5070000  -6.8780000 -16.2600000   8.5260000  -6.4300000 -15.4470000
   9.1320000  -3.2070000 -12.2200000   8.1080000  -3.2350000 -13.1820000
   8.2040000  -2.6360000 -14.5020000   9.3720000  -1.9690000 -14.8510000
   9.5820000  -1.1950000 -16.1580000   9.2310000   0.3100000 -16.2130000
   9.5400000   0.9120000 -17.6410000   7.8080000   0.5620000 -15.7620000
  10.1970000   0.9180000 -15.2290000  10.4850000  -2.0010000 -14.0200000
  10.3400000  -2.5190000 -12.6720000   8.9320000  -2.3500000  -7.7130000
   9.1100000  -1.0300000  -8.1750000  10.3810000  -0.4190000  -8.1910000
  11.5340000  -1.1610000  -7.7470000  12.9090000  -0.5520000  -7.7980000
  13.4220000   0.0560000  -6.4760000  13.6770000  -0.9900000  -5.4110000
  14.7220000   0.8120000  -6.7310000  12.3690000   1.0820000  -6.0100000
  11.3140000  -2.4300000  -7.3720000  10.1040000  -3.0090000  -7.3640000
   3.9000000  -0.5580000  -8.8610000   3.3450000  -0.9410000 -10.1020000
   3.2260000  -0.0160000 -11.1410000   3.7910000   1.2430000 -11.0390000
   4.0070000   2.1520000 -12.3240000   2.7830000   3.0890000 -12.7700000
   3.2610000   4.0750000 -13.9290000   1.6140000   2.2750000 -13.2170000
   2.2480000   3.8790000 -11.5070000   4.4140000   1.6640000  -9.8290000
   4.5100000   0.7440000  -8.7700000   1.0260000  -4.6830000  -6.5890000
   0.0360000  -4.8580000  -7.4840000   0.0120000  -5.9590000  -8.3980000
   1.0140000  -6.9880000  -8.2900000   0.9480000  -8.1230000  -9.3470000
   0.0720000  -9.2770000  -9.0550000   0.7040000  -9.9330000  -7.7840000
  -1.3180000  -8.8450000  -8.8690000   0.1440000 -10.4270000 -10.1050000
   2.0040000  -6.8140000  -7.3290000   2.0630000  -5.6460000  -6.5290000
   0.0750000  -4.6960000  -1.3450000  -0.0250000  -4.6960000   0.2200000
  -0.9180000  -5.6930000   0.9580000  -0.5710000  -7.2590000   0.9400000
   0.8670000  -7.7640000   1.1640000   1.5300000  -7.2200000   2.5530000
   0.7990000  -7.6640000   3.8430000   0.5990000  -9.1890000   4.0680000
   1.8700000 -10.0790000   4.3730000   2.3380000  -9.8700000   5.8720000
   1.2620000  -9.6360000   7.0190000   0.2260000 -10.7950000   7.2660000
   0.7860000 -12.1430000   7.7710000   1.4920000 -11.9370000   9.1430000
   1.9590000 -13.1840000   9.9270000   2.8340000 -14.1360000   9.0260000
   4.2320000 -13.5720000   8.5800000   5.3740000 -13.2610000   9.6080000
   5.7010000 -14.5410000  10.5080000   5.9710000 -15.7500000   9.6080000
   6.5680000 -16.7890000  10.5430000   5.6680000 -17.4190000  11.7040000
   4.2590000 -17.9030000  11.1620000   4.1450000 -18.9210000  10.0000000
   5.0860000 -20.2290000  10.0350000   4.6940000 -21.2770000  11.0790000
   5.7360000 -22.4500000  11.1500000   7.1960000 -22.0130000  11.5890000
   7.4480000 -21.1370000  12.8750000   6.8580000 -21.6740000  14.1630000
   7.3940000 -23.0390000  14.6560000   8.9330000 -23.1370000  15.0570000
   9.5860000 -24.5600000  15.1950000   9.7980000 -25.3650000  13.8470000
  10.4510000 -26.7630000  13.9720000  10.7970000 -27.3260000  12.5590000
  11.6820000 -28.5580000  12.6890000   9.5710000 -27.6460000  11.6820000
   9.1790000 -26.7320000  10.6650000   8.0780000 -26.9410000   9.8450000
   7.3210000 -28.1070000   9.9180000   6.2640000 -28.5320000   8.8720000
   6.6410000 -29.3860000   7.6350000   7.0500000 -30.8530000   8.0500000
   5.3760000 -29.3980000   6.7340000   7.7790000 -28.6400000   6.9190000
   7.6050000 -28.9050000  11.0660000   8.6570000 -28.7040000  11.9100000
  10.8850000 -24.5480000  16.0090000  11.9860000 -23.9200000  15.4790000
  13.1580000 -23.9400000  16.1610000  13.3680000 -24.7160000  17.3430000
  14.7370000 -24.6870000  18.0840000  14.8830000 -23.6490000  19.2000000
  13.7690000 -23.5600000  20.2750000  16.2120000 -23.9310000  20.0150000
  15.0380000 -22.3460000  18.4690000  12.1960000 -25.2930000  17.8660000
  11.0160000 -25.2000000  17.1900000   6.7320000 -20.7140000  15.3370000
   7.7380000 -19.7670000  15.5790000   7.7010000 -18.9680000  16.7300000
   6.6680000 -19.0790000  17.6560000   6.5710000 -18.3840000  18.9870000
   7.1470000 -19.3410000  20.1520000   6.9970000 -18.5260000  21.4720000
   6.3060000 -20.6020000  20.2690000   8.6320000 -19.6240000  19.8220000
   5.6970000 -20.0500000  17.4270000   5.6480000 -20.7640000  16.2500000
   5.2140000 -23.6310000  12.0020000   4.2480000 -23.5700000  12.9940000
   3.7850000 -24.7510000  13.6500000   4.4280000 -25.9360000  13.3590000
   3.9200000 -27.2490000  14.0540000   4.7440000 -27.5540000  15.3470000
   4.3470000 -28.9630000  15.8580000   6.2590000 -27.5660000  14.9440000
   4.5580000 -26.4310000  16.4530000   5.3760000 -25.9940000  12.3380000
   5.7630000 -24.8330000  11.6830000   2.6980000 -19.3350000   9.7850000
   1.7540000 -19.2650000  10.8180000   0.4530000 -19.6780000  10.5130000
   0.0410000 -20.0290000   9.2020000  -1.4240000 -20.4560000   8.9230000
  -1.6970000 -21.9240000   8.6080000  -1.4080000 -22.8280000   9.7680000
  -3.2130000 -22.1070000   8.3120000  -0.8850000 -22.3370000   7.3080000
   0.9290000 -19.9090000   8.1390000   2.2720000 -19.5430000   8.4230000
   7.4860000 -17.7680000   9.7510000   7.2120000 -18.2440000   8.4770000
   8.1780000 -19.1400000   7.8950000   9.3040000 -19.5840000   8.6370000
  10.3150000 -20.5280000   8.0170000  11.6320000 -20.0730000   7.5220000
  11.4070000 -18.7740000   6.6430000  12.4620000 -19.7040000   8.7670000
  12.2630000 -21.2410000   6.7170000   9.5390000 -19.0970000   9.9530000
   8.6410000 -18.2280000  10.5070000   6.5770000 -12.5050000   9.0590000
   7.1270000 -12.7550000   7.8030000   8.2200000 -11.9720000   7.3000000
   8.9400000 -11.1040000   8.1710000  10.2950000 -10.5740000   7.7350000
  11.5030000 -11.2970000   8.3130000  11.5600000 -12.8010000   7.9580000
  12.7640000 -10.5900000   7.6630000  11.5690000 -11.1680000   9.9100000
   8.3520000 -10.8350000   9.4140000   7.2420000 -11.5670000   9.8950000
   2.5250000 -12.9380000  11.3110000   2.9260000 -11.6530000  11.7440000
   3.2910000 -11.4030000  13.0300000   3.2580000 -12.4000000  14.0010000
   3.5940000 -12.2380000  15.4410000   2.5890000 -11.4490000  16.3040000
   2.6170000 -10.0030000  15.8090000   1.2500000 -12.0990000  15.9610000
   2.8970000 -11.5340000  17.7920000   2.9490000 -13.7950000  13.5960000
   2.5120000 -14.0100000  12.2570000  -0.9060000 -10.3190000   8.1510000
  -2.2430000 -10.8140000   7.9030000  -3.2610000 -10.3150000   8.6470000
  -3.1560000  -9.3820000   9.7680000  -4.2950000  -8.9620000  10.5960000
  -4.7280000  -9.9280000  11.6480000  -5.6200000  -9.1560000  12.6890000
  -5.5740000 -11.0400000  11.0540000  -3.5230000 -10.5000000  12.4930000
  -1.7960000  -8.9830000  10.0470000  -0.7590000  -9.3520000   9.1100000
   1.7010000 -11.5690000   3.9610000   0.4520000 -12.1900000   3.9440000
   0.3670000 -13.5530000   3.8110000   1.5180000 -14.3020000   3.6470000
   1.3590000 -15.8540000   3.3620000   1.6630000 -16.3830000   2.0440000
   3.2630000 -16.4450000   1.9580000   1.0670000 -17.7720000   1.7700000
   1.0820000 -15.5240000   0.8920000   2.8410000 -13.7480000   3.6620000
   2.9350000 -12.3580000   3.8530000   3.0470000  -7.3200000   2.6560000
   3.7950000  -6.4580000   3.5880000   5.1630000  -6.4870000   3.6700000
   5.9280000  -7.3670000   2.8840000   7.3990000  -7.4150000   3.0460000
   8.1790000  -6.4460000   2.1370000   9.6870000  -6.5440000   2.3210000
   8.0080000  -6.7800000   0.6880000   7.8300000  -4.9850000   2.3390000
   5.1840000  -8.2230000   1.9370000   3.7580000  -8.1720000   1.8600000
  -1.2370000  -5.2990000   2.4010000  -2.3320000  -5.8550000   3.0300000
  -2.6030000  -5.5550000   4.4210000  -1.7210000  -4.5920000   5.0370000
  -2.0730000  -4.2270000   6.4580000  -1.5370000  -5.1350000   7.6560000
  -2.3140000  -6.3650000   8.0210000  -0.1430000  -5.4630000   7.3120000
  -1.4850000  -4.2870000   8.9360000  -0.5770000  -4.0450000   4.4640000
  -0.3810000  -4.3560000   3.1240000  -2.3280000  -4.9170000  -2.3730000
  -3.5470000  -4.3970000  -2.8870000  -4.5850000  -5.2780000  -3.1230000
  -4.5680000  -6.6240000  -2.8250000  -5.8590000  -7.3740000  -3.1140000
  -5.8320000  -8.4550000  -4.1860000  -5.1630000  -8.0060000  -5.4780000
  -5.1330000  -9.6920000  -3.6150000  -7.1940000  -8.8070000  -4.5530000
  -3.4230000  -7.1630000  -2.2920000  -2.2780000  -6.3610000  -2.1360000
  -2.2070000  -2.2240000  -0.7950000  -2.7710000  -0.9630000  -0.6140000
  -6.5580000  -1.0010000  -0.5090000  -7.1520000  -0.9910000   0.7930000
  -7.0300000  -2.1460000   1.6770000  -6.2760000  -3.2510000   1.2590000
  -6.0270000  -4.3530000   2.2470000  -6.6550000  -5.6950000   2.1310000
  -8.0850000  -5.5180000   1.6820000  -5.9310000  -6.4480000   1.0370000
  -6.6170000  -6.5040000   3.4150000  -5.8040000  -3.2390000  -0.0430000
  -5.9320000  -2.1990000  -0.9320000  -7.3290000   2.5910000  -4.6150000
  -6.9440000   1.3280000  -5.0320000  -5.8610000   1.2550000  -5.8850000
  -5.0830000   2.4100000  -6.2770000  -3.8570000   2.2480000  -7.0840000
  -3.9330000   2.4730000  -8.6070000  -2.7580000   1.7900000  -9.1960000
  -5.2410000   1.8770000  -9.2170000  -3.8700000   3.9350000  -8.9690000
  -5.5470000   3.6950000  -5.8390000  -6.7370000   3.7820000  -5.0800000
 -12.0390000   3.0800000  -5.1690000 -11.4260000   3.8250000  -6.1690000
 -11.8000000   3.6120000  -7.4730000 -12.8850000   2.7220000  -7.7890000
 -13.3430000   2.4500000  -9.1270000 -14.3050000   3.4890000  -9.7250000
 -13.8170000   4.9170000  -9.8380000 -14.6660000   3.1980000 -11.1870000
 -15.5880000   3.5120000  -8.8170000 -13.5290000   1.9960000  -6.7320000
 -13.0730000   2.1660000  -5.4600000 -14.2950000   6.0580000  -1.1130000
 -15.1210000   6.0840000  -2.2000000 -15.7110000   7.2710000  -2.6200000
 -15.5640000   8.4490000  -1.8190000 -16.4140000   9.6870000  -2.2120000
 -15.7730000  11.0600000  -2.7580000 -16.8360000  11.8540000  -3.5480000
 -15.2550000  11.9540000  -1.5760000 -14.6570000  10.6580000  -3.6520000
 -14.7480000   8.3880000  -0.6730000 -14.1410000   7.1880000  -0.2980000
 -14.2200000   4.3650000   2.6780000 -14.4920000   5.7870000   2.8510000
 -13.4980000   6.5860000   3.3910000 -12.3130000   6.0540000   3.7700000
 -11.3280000   6.8540000   4.4550000 -11.5330000   7.3500000   5.8420000
 -10.2120000   7.8990000   6.4020000 -12.6090000   8.4730000   5.8450000
 -11.9730000   6.3120000   6.8770000 -12.0440000   4.6860000   3.6000000
 -12.9650000   3.8150000   3.0050000 -17.9920000   2.0360000   5.6520000
 -18.7050000   2.9960000   6.5030000 -18.4810000   2.9650000   7.9130000
 -17.5350000   2.0910000   8.4730000 -17.2270000   2.2700000   9.9500000
 -16.1870000   3.2590000  10.3070000 -14.8530000   2.4430000  10.6740000
 -15.8400000   4.2340000   9.1270000 -16.5840000   4.0900000  11.5420000
 -16.8000000   1.2530000   7.6130000 -17.0260000   1.1870000   6.2120000
 -20.7650000   5.0640000   2.0370000 -19.7050000   5.6600000   1.4120000
 -19.3900000   7.0030000   1.6030000 -20.1580000   7.8330000   2.5020000
 -19.8700000   9.2450000   2.6670000 -20.4820000  10.1000000   1.5770000
 -22.0220000   9.8850000   1.5720000 -20.2300000  11.5890000   1.9380000
 -19.8810000   9.8310000   0.1680000 -21.3060000   7.1740000   3.2130000
 -21.5640000   5.8440000   2.8310000 -23.0190000   0.8970000   2.3580000
 -23.2760000   1.3920000   3.6200000 -23.0030000   0.6680000   4.7860000
 -22.3200000  -0.5730000   4.6490000 -22.0480000  -1.4560000   5.7770000
 -20.6320000  -1.1380000   6.3740000 -19.5830000  -1.4590000   5.3340000
 -20.5260000   0.2800000   6.9200000 -20.3860000  -2.0260000   7.6280000
 -22.0830000  -1.0540000   3.3750000 -22.4530000  -0.3930000   2.2250000
 -27.1880000   4.2870000   1.0180000 -27.1780000   5.2040000   2.0610000
 -28.1290000   5.1540000   3.0770000 -29.1490000   4.2550000   3.0210000
 -30.1030000   4.3260000   4.2260000 -31.4850000   4.9320000   3.9140000
 -32.4360000   3.9720000   3.0770000 -32.1480000   5.1100000   5.2310000
 -31.1870000   6.4220000   3.2610000 -29.2340000   3.4080000   2.0080000
 -28.2410000   3.4410000   1.0180000 -25.2700000   4.1550000  -3.3680000
 -26.4310000   3.4110000  -3.4560000 -26.4780000   2.0180000  -3.5520000
 -25.2600000   1.3590000  -3.6020000 -25.3210000  -0.1460000  -3.8750000
 -25.5470000  -0.9350000  -2.6350000 -26.9180000  -0.5050000  -1.9470000
 -25.5900000  -2.4010000  -2.9800000 -24.3400000  -0.7020000  -1.6690000
 -24.0260000   2.0620000  -3.6090000 -24.0280000   3.4170000  -3.4820000
 -28.0520000   8.6910000  -5.3980000 -27.6070000   9.4410000  -6.5210000
 -28.2080000   9.2400000  -7.7760000 -29.3600000   8.5050000  -7.9020000
 -30.0100000   8.4450000  -9.2890000 -30.9940000   9.6920000  -9.5680000
 -30.4020000  11.0290000  -9.1300000 -31.3430000   9.7580000 -10.9980000
 -32.2720000   9.5180000  -8.7540000 -29.7870000   7.7280000  -6.8430000
 -29.1670000   7.8030000  -5.6370000 -30.7120000  10.3940000  -0.7720000
 -31.8270000  10.0790000  -1.6310000 -32.8680000  10.9270000  -1.9260000
 -32.8950000  12.1710000  -1.2960000 -34.0180000  13.1980000  -1.5570000
 -33.9290000  14.0950000  -2.7510000 -35.2610000  14.9860000  -2.5880000
 -32.6700000  14.9750000  -2.5580000 -33.9460000  13.3180000  -4.0870000
 -31.8780000  12.4920000  -0.3300000 -30.8060000  11.6260000  -0.0810000
 -30.5660000   7.7320000  -0.9980000 -30.4820000   7.8870000   0.7500000
 -28.9950000   7.3800000  -0.1430000 -29.0920000   9.8940000   0.4800000
 -27.4170000   9.2840000  -1.1060000 -28.2090000  10.7550000  -1.7150000
 -29.3860000   9.5540000  -3.3370000 -28.9040000   7.9640000  -2.6800000
 -27.0400000   9.9770000  -3.9900000 -25.7230000   8.6400000  -2.8380000
 -25.4820000   8.1930000  -4.4530000 -26.9550000   6.1240000  -4.3650000
 -27.2050000   6.5400000  -2.7330000 -24.4900000   6.1080000  -3.8150000
 -24.2970000   7.0160000  -1.4580000 -23.6290000   5.4620000  -1.5390000
 -26.2760000   6.5030000  -0.3490000 -24.8510000   5.8670000   0.4210000
 -26.7630000   4.1650000  -1.1440000 -24.4100000   3.3530000  -0.8160000
 -25.7130000   2.1870000  -0.3090000 -25.3260000   2.6760000   1.9370000
 -23.8760000   3.7210000   1.5620000 -24.0740000   0.8530000   0.5150000
 -22.7530000   1.9890000  -0.9580000 -21.5720000   1.2360000   0.1700000
 -22.1760000   4.1860000  -0.0360000 -20.6330000   3.2080000  -0.2180000
 -22.0020000   3.2800000   2.3960000 -19.2930000   2.6220000   1.3940000
 -20.5350000   1.6120000   2.1840000 -20.2940000   2.9630000   4.2720000
 -19.1770000   3.9980000   3.6900000 -18.7690000   0.9740000   3.9780000
 -17.4990000   1.6540000   2.2690000 -16.3160000   1.0840000   3.5080000
 -16.1410000   3.4650000   4.1410000 -17.2230000   3.9660000   2.8560000
 -14.8790000   2.4360000   1.9180000 -16.1540000   4.8100000   0.7860000
 -16.6470000   3.1720000   0.5360000 -15.3330000   3.5620000  -1.4420000
 -14.2840000   2.7080000  -0.3040000 -13.2590000   4.9490000   0.4010000
 -12.0720000   3.3950000  -0.9280000 -11.7470000   5.0480000  -1.4080000
 -13.1750000   4.6460000  -3.4400000 -13.6670000   3.0510000  -2.8140000
 -10.8330000   3.9800000  -3.5040000 -11.8310000   1.1520000  -3.5450000
 -10.9230000   1.9170000  -2.1810000  -9.8550000   1.6470000  -5.0330000
  -9.4640000   0.6050000  -3.6890000  -8.8800000   3.5840000  -3.9220000
  -8.5090000   3.3940000  -1.5580000  -7.0370000   3.1830000  -2.1700000
  -8.6960000   0.7370000  -0.8970000  -7.4090000   1.6090000  -0.2350000
  -7.3060000  -0.4540000  -2.3990000  -5.5340000   1.3880000  -2.9090000
  -4.8740000  -0.1960000  -2.4760000  -4.7170000   0.8660000  -0.1100000
  -5.0540000   2.3980000  -0.9270000  -3.0820000   1.9110000  -3.6160000
  -1.7270000   2.5670000  -2.7280000  -4.6110000   3.4880000  -2.8490000
  -3.2920000   4.1910000  -3.7180000  -4.1110000   4.2020000  -0.8310000
  -1.3650000   4.2600000  -0.8800000  -2.2940000   5.5740000  -0.0660000
  -1.6060000   5.8880000  -2.9610000  -0.2100000   5.5860000  -1.9030000
  -2.2780000   7.9100000  -1.6580000  -1.4860000   7.6020000   0.4410000
  -1.0610000   9.1360000  -0.2000000   0.9300000   6.8690000  -0.0220000
   0.7020000   8.0770000   1.2600000   1.1980000   9.1410000  -1.5510000
   0.6320000  10.8260000  -0.0430000   2.2720000  11.0570000  -0.3610000
   2.5540000   9.5120000   2.0550000   1.2060000  10.3910000   2.4010000
   3.7820000  11.4570000   1.4090000   2.5040000  13.1440000   0.7880000
   3.3850000  13.6600000   2.1390000   0.3710000  12.7360000   1.8730000
   0.9030000  14.4260000   2.0220000   1.3100000  12.3370000   4.1050000
   2.8100000  13.6010000   4.7770000   1.5380000  14.2480000   5.8010000
   2.7140000  15.6410000   3.2370000   3.1140000  15.9500000   4.9110000
   0.2750000  16.5110000   3.7590000   0.1700000  16.0730000   6.1090000
  -0.1000000  17.7270000   5.9900000   2.3320000  16.2390000   7.1540000
   1.1860000  17.4400000   7.8310000   3.5940000  18.0150000   6.0440000
   1.8580000  19.6910000   5.5560000   3.1770000  20.5150000   6.3780000
   0.4860000  19.4980000   7.5680000   0.8050000  21.0960000   6.9910000
   1.6440000  19.5740000   9.4100000   3.7240000  20.9250000   8.7410000
   3.0810000  21.6400000  10.2020000   1.7480000  23.2060000   8.8920000
   2.5520000  22.8290000   7.4900000   3.9830000  23.9330000  10.0530000
   5.7770000  22.5380000   8.7480000   6.1200000  24.0860000   9.1610000
   4.9220000  23.6100000   6.3330000   6.5510000  23.0610000   6.7060000
   5.5580000  25.7890000   7.3160000   8.3520000  25.2730000   6.4390000
   7.7480000  25.2360000   8.0710000   6.6100000  27.6270000   7.3360000
   7.7400000  27.8010000   6.2300000   8.5660000  28.9690000   8.1370000
   8.2000000  26.6250000  10.0040000   7.2610000  28.1650000  10.0560000
   9.0860000  28.1110000  10.3340000  10.3940000  26.3040000   9.4310000
  12.6970000  25.9540000   8.9260000  14.1030000  26.8140000   5.4780000
  14.5100000  25.8390000   6.9260000  15.5560000  27.1610000   9.1670000
  14.0470000  28.1480000   9.1440000  15.5380000  28.8770000   8.8910000
  17.0930000  28.0430000   7.3690000  16.5050000  27.3280000   5.7000000
  16.5990000  26.3460000   7.1850000  13.7700000  29.5490000   6.8740000
  14.8330000  29.0890000   5.4470000  15.5450000  29.8620000   6.7910000
  12.2460000  28.0880000   5.1660000   9.8540000  28.4570000   5.8200000
   4.8910000  27.5280000   5.7270000   4.3610000  28.2170000   3.4350000
   3.9380000  27.4850000   1.2020000   4.6580000  26.0680000   0.5520000
   5.1340000  27.0600000  -1.5230000   6.1040000  28.5180000  -1.6760000
   4.4960000  28.5650000  -0.8330000   5.3650000  29.7120000   0.9560000
   7.0450000  29.6280000   0.5140000   6.5370000  29.0370000   2.1060000
   7.9590000  27.2730000  -0.4370000   6.8490000  25.9530000  -0.2580000
   7.6010000  26.5720000   1.2280000   6.2740000  24.6460000   1.8890000
   6.9970000  24.0360000   4.1760000   2.7130000  25.0060000   6.5830000
   2.0630000  27.4520000   6.2840000   2.8280000  29.7250000   6.6670000
   3.6900000  29.9360000   8.2090000   1.7750000  29.2870000  10.2890000
   0.6360000  30.5950000  10.1880000   2.3830000  30.9690000   9.9420000
   2.5240000  32.0460000   7.7890000   0.9520000  32.3100000   8.3130000
   1.0980000  31.6880000   6.7400000   0.0700000  28.5120000   8.0920000
   0.2400000  29.6830000   6.6890000  -0.6110000  30.0840000   8.1480000
   4.0500000  28.5100000   9.8550000   4.7710000  26.0740000  10.2700000
  -0.3060000  22.6820000   8.2350000  -1.9350000  23.7080000   9.6890000
  -2.8880000  23.7890000  11.9790000  -2.8630000  22.4550000  13.1310000
  -5.3900000  20.5350000  11.2740000  -4.4070000  20.3470000  12.7470000
  -3.6010000  20.4240000  11.1230000  -5.5980000  23.9920000  12.3970000
  -5.0560000  22.8270000  13.6790000  -6.3630000  22.4660000  12.5560000
  -5.7380000  22.2970000  10.1310000  -4.0630000  21.9880000   9.5540000
  -4.5610000  23.6710000  10.1880000  -1.3180000  20.5720000  12.6530000
   0.7520000  19.9320000  11.5350000   2.7360000  16.9430000   9.4280000
   4.4860000  16.9910000  11.2020000   7.1900000  17.5510000  11.5070000
   5.7900000  18.3650000  12.3630000   8.7730000  18.9420000  13.5190000
   7.0250000  19.1130000  14.1670000   8.0450000  20.4590000  13.8670000
   9.3190000  20.5160000  11.5360000   8.3760000  20.1790000  10.1970000
   9.2130000  18.8320000  10.9840000   6.9850000  21.6430000  12.6380000
   5.6150000  20.6590000  12.2530000   6.5960000  21.3070000  10.8980000
   6.8540000  19.7310000   9.0000000   5.4330000  19.4320000   7.0500000
   3.5520000  17.9600000   3.4190000   3.8480000  20.1000000   2.4190000
   1.1920000  22.8160000   1.9900000   2.8670000  22.4630000   1.5470000
   3.3860000  25.0710000   4.1400000   1.9690000  25.0780000   3.0370000
   3.5880000  24.6490000   2.3910000   1.7540000  22.4680000   5.4390000
   0.5140000  23.1560000   4.3010000   1.6830000  24.1210000   5.1650000
   4.6180000  22.3350000   3.2030000   3.7540000  21.4940000   4.4450000
   4.4450000  23.1540000   4.7290000  -0.3080000  21.1420000   3.2890000
  -0.6050000  18.9540000   4.0950000  -1.1480000  14.7980000   2.6880000
  -3.3990000  15.2280000   3.6130000  -4.8060000  15.1200000   6.2230000
  -4.4860000  13.7670000   7.1170000  -5.2000000  13.9220000   3.3010000
  -6.5870000  14.7260000   4.1370000  -6.7240000  13.0620000   3.5060000
  -5.0170000  11.2950000   6.2120000  -3.9490000  11.8170000   4.8810000
  -5.5560000  11.2270000   4.4860000  -7.3750000  14.2670000   6.0570000
  -6.5560000  13.2510000   7.3490000  -7.4960000  12.5310000   6.0850000
  -2.3400000  12.8570000   7.1570000  -0.1470000  12.5260000   6.2210000
   2.3810000  10.3880000   4.5360000   3.7770000  10.1390000   6.5170000
   5.7240000  10.9100000   7.8860000   6.8320000  12.0960000   7.0210000
   8.9330000   9.5250000   5.4220000   8.5190000  11.1660000   5.5120000
   7.4940000  10.0700000   4.5510000   8.8340000   9.0980000   7.8700000
   7.7730000  10.1440000   8.9290000   8.9810000  10.8380000   7.8220000
   7.3120000   7.7920000   6.4540000   5.8270000   8.5830000   5.9490000
   6.2030000   8.3070000   7.6980000   6.8520000  12.4700000   4.6600000
   5.4490000  12.5710000   2.6150000   3.0540000   7.1180000   0.8800000
   5.5160000   6.6450000   0.7430000   7.6960000   7.3670000  -0.2320000
   7.6320000   8.5270000  -1.4650000   9.5110000   6.1400000  -1.0620000
   9.4620000   7.3850000  -2.3380000   9.6620000   5.7170000  -2.8120000
   7.4940000   4.2480000  -2.3460000   6.0910000   5.1140000  -1.4600000
   7.6220000   4.9160000  -0.6930000   7.6390000   5.9010000  -4.2230000
   7.7770000   7.6540000  -3.7430000   6.2230000   6.8250000  -3.5540000
   5.6680000   9.2490000  -2.6120000   3.3490000   9.9210000  -2.2660000
   0.7610000   6.7850000  -3.5390000   1.6810000   8.1930000  -5.3910000
   2.2200000  10.4410000  -6.1300000   1.0750000  11.7580000  -5.5440000
   0.4980000   8.7010000  -8.0380000  -0.8760000   9.6450000  -8.5710000
  -0.8570000   9.0120000  -6.8320000  -0.5010000  12.6980000  -6.7990000
  -1.6040000  11.3550000  -6.5890000  -1.2950000  11.8540000  -8.1860000
   2.0400000  10.5480000  -8.5020000   1.5120000  12.2540000  -8.3000000
   0.6390000  11.2510000  -9.4420000  -0.8810000  11.4320000  -4.3290000
  -1.8390000  10.0580000  -2.5380000  -4.1390000   6.8350000   0.2280000
  -4.9520000   8.9740000  -0.0880000  -5.7050000  10.4820000  -3.4660000
  -5.4540000  10.7520000  -1.8240000  -7.6440000  10.7180000  -4.4870000
  -9.2270000  10.5090000  -3.8110000  -8.1000000   9.0800000  -3.8900000
  -7.5530000  10.1020000  -0.3190000  -8.2070000   8.7910000  -1.3520000
  -9.1640000  10.2750000  -0.9940000  -8.6550000  12.4670000  -2.0230000
  -7.1700000  12.6460000  -3.0370000  -7.1270000  12.2020000  -1.2550000
  -5.6880000   7.9710000  -4.3180000  -4.6640000   5.7540000  -3.8440000
  -3.8850000   2.7170000   0.9730000  -2.3860000   3.2510000   2.8940000
   1.0610000   2.4270000   3.3200000  -0.4770000   2.9710000   4.1370000
   0.7840000   4.4880000   1.0430000   2.2080000   3.9670000   1.7840000
   1.8560000   5.7400000   1.9490000  -1.3290000   5.0370000   3.0670000
  -0.1900000   6.4650000   3.1620000  -0.4980000   5.5530000   4.5470000
   2.4460000   3.5980000   4.2110000   1.3070000   4.1560000   5.2550000
   2.4260000   5.3690000   4.4660000   1.0120000   1.7250000   0.9430000
  -0.3810000   1.2590000  -1.0300000  -1.4370000   0.3300000  -3.5620000
  -0.7660000  -1.7140000  -3.8140000  -1.2720000  -3.7520000  -4.4340000
  -0.6110000  -5.3250000  -4.0440000   1.6810000  -4.5620000  -3.9310000
   1.2740000  -2.9500000  -3.5370000   0.2800000  -2.8060000  -5.9530000
   3.2700000  -3.0540000  -5.6180000   2.2470000  -1.6720000  -5.2330000
   1.7270000  -1.0560000  -7.3030000   2.0100000  -2.5580000  -8.1160000
   4.1440000  -0.9460000  -6.7530000   4.6770000  -3.0990000  -8.8720000
   4.7570000  -3.4630000  -7.1600000   6.4220000  -1.3770000  -7.0190000
   6.5150000  -1.5180000  -8.7800000   7.3430000  -3.4240000  -6.7180000
   6.5370000  -4.8310000  -8.6490000   8.2980000  -4.8690000  -8.4450000
   7.1490000  -2.7670000 -10.3760000   6.9010000  -4.3730000 -10.8740000
   9.5750000  -3.2070000 -10.0640000   9.7060000  -5.7770000  -9.9100000
  10.7000000  -5.1040000 -11.0260000   7.9950000  -5.6950000 -12.0930000
   8.8960000  -7.1140000 -11.3470000   9.9900000  -5.4200000 -13.5830000
  10.9540000  -8.1630000 -12.9140000  11.6690000  -6.6400000 -12.3690000
  11.4630000  -7.6580000 -15.2770000  12.8010000  -7.7090000 -14.1160000
  11.5910000  -5.1850000 -15.0450000  12.6600000  -4.6670000 -13.1330000
  13.8200000  -4.2380000 -14.4290000  13.9760000  -6.6360000 -12.5360000
  14.9300000  -5.1830000 -12.2480000  15.1830000  -7.2880000 -14.4880000
  15.4060000  -5.0150000 -15.5920000  16.8250000  -6.0410000 -15.6100000
  18.0270000  -4.7670000 -13.9580000  16.6480000  -3.7520000 -13.5950000
  18.3290000  -3.7710000 -16.0260000  15.7570000  -2.0880000 -15.4440000
  15.8380000  -3.2020000 -16.6580000  17.2110000  -0.5730000 -16.6480000
  16.0290000  -1.1420000 -17.8140000  18.7990000  -2.4820000 -17.4510000
  16.9630000  -2.6020000 -19.7730000  17.0000000  -3.8020000 -18.3990000
  18.9680000  -3.0850000 -20.6460000  18.2540000  -4.6740000 -20.3730000
  20.3670000  -3.6210000 -18.5180000  19.3790000  -6.4580000 -18.9740000
  18.9760000  -5.5190000 -17.6110000  21.3320000  -5.2650000 -16.9510000
  21.8600000  -6.3410000 -18.1850000  19.8410000  -7.2250000 -16.0850000
  19.8790000  -8.8670000 -18.0980000  20.7220000  -9.5600000 -16.6370000
  21.6700000  -8.9030000 -17.9220000  20.4300000  -7.5690000 -13.8950000
  22.0490000  -7.7900000 -12.1520000  24.9460000  -7.0580000 -11.8480000
  25.8160000  -8.0570000 -12.9800000  23.6800000 -10.1810000 -10.0300000
  22.6920000  -9.4600000 -11.4230000  23.4260000  -8.4070000 -10.1140000
  24.9280000 -11.4140000 -11.7370000  25.6220000 -10.4480000 -13.0380000
  23.8090000 -10.6010000 -12.8780000  26.8760000  -9.2410000 -11.1180000
  25.9680000 -10.1360000  -9.9930000  25.8600000  -8.3320000  -9.8540000
  25.2760000  -7.5110000 -14.9980000  23.5080000  -7.2010000 -16.8720000
  20.3740000  -6.5670000 -20.9870000  21.8680000  -6.8060000 -22.7990000
  24.0830000  -5.6970000 -24.0290000  24.2950000  -3.9290000 -23.5960000
  23.1850000  -6.3870000 -26.0410000  22.1390000  -5.1950000 -26.9710000
  21.6100000  -6.0940000 -25.4530000  21.0480000  -4.0760000 -24.1190000
  21.2170000  -3.3230000 -25.6620000  22.1130000  -2.6230000 -24.2840000
  24.1920000  -2.7330000 -25.3390000  23.3360000  -2.9300000 -26.8170000
  24.6760000  -4.1250000 -26.3990000  23.5580000  -2.8120000 -21.8740000
  22.0100000  -2.6520000 -19.9940000  17.1400000  -0.4330000 -20.2360000
  18.3720000   1.1450000 -21.5740000  20.6010000   2.0870000 -22.2580000
  22.1070000   1.5270000 -21.7350000  23.3840000   3.4000000 -21.8290000
  22.6290000   4.9280000 -21.4270000  22.0020000   3.8720000 -22.7730000
  19.8650000   4.2080000 -22.1340000  20.3480000   5.1550000 -20.7440000
  19.3120000   3.7540000 -20.4080000  21.0750000   2.7830000 -18.8780000
  22.0070000   4.2340000 -18.9710000  22.7940000   2.6380000 -19.3920000
  22.0340000   0.3110000 -19.2420000  20.6870000  -1.2480000 -17.9300000
  16.9630000  -1.0780000 -13.6140000  18.5630000   0.1680000 -12.1500000
  20.8420000   1.1910000 -12.0610000  22.2290000   0.6580000 -12.8240000
  23.3720000   0.1620000  -9.4930000  22.3480000   1.4640000  -9.7600000
  23.4850000   1.0640000 -11.0540000  20.9310000  -0.6650000  -8.9860000
  19.9040000  -1.0060000 -10.4390000  20.2380000   0.6580000  -9.9810000
  23.1380000  -1.4430000 -11.9570000  21.6140000  -2.3580000 -11.4950000
  22.9810000  -2.1240000 -10.3960000  21.8990000  -1.5810000 -14.0230000
  20.3530000  -3.1750000 -15.3230000  16.6050000  -6.1640000 -11.2380000
  18.1990000  -7.6650000 -10.2050000  19.9600000  -9.0000000 -10.6770000
  20.3560000 -10.1310000 -12.1080000  18.4780000  -9.5140000  -9.0350000
  17.8310000 -11.1840000  -8.7490000  17.1270000 -10.1610000  -9.9660000
  19.3720000 -12.3080000 -12.2020000  17.7260000 -11.7070000 -11.8990000
  18.4740000 -12.8820000 -10.8130000  19.8920000 -12.3150000  -9.2710000
  20.5760000 -10.6790000  -8.9340000  21.1500000 -11.4630000 -10.3820000
  18.5360000  -9.8780000 -13.9330000  16.8800000  -8.4190000 -14.8860000
  13.6400000  -7.9940000 -16.3400000  14.9280000  -7.9190000 -18.2650000
  15.9850000  -6.4780000 -20.1020000  15.1650000  -4.9490000 -20.4000000
  13.4910000  -8.5770000 -20.3820000  15.3570000  -8.4550000 -20.7710000
  14.1570000  -8.6730000 -22.0310000  12.8470000  -5.1350000 -21.2780000
  12.0690000  -6.5530000 -20.5510000  12.3950000  -6.4430000 -22.3400000
  14.3050000  -6.3920000 -23.2660000  15.8430000  -6.8830000 -22.5840000
  15.2210000  -5.2000000 -22.2940000  13.6770000  -3.7880000 -18.9980000
  12.5210000  -3.8240000 -16.7720000   8.1520000  -8.7950000 -12.8950000
   6.3480000  -9.4510000 -14.2030000   5.3180000  -7.7780000 -17.6100000
   4.6570000  -8.6210000 -16.2610000   3.8850000  -9.8350000 -18.1870000
   4.9330000 -10.9310000 -19.0590000   4.9170000  -9.1280000 -19.4790000
   7.2760000  -8.5480000 -19.0210000   7.4190000 -10.2160000 -19.2900000
   8.2070000  -9.5930000 -17.8790000   5.1100000 -11.0730000 -16.2340000
   6.8100000 -10.6200000 -16.0740000   6.4120000 -11.7420000 -17.3630000
   7.3080000  -6.4580000 -17.2420000   9.1090000  -5.5540000 -15.7160000
   7.1610000  -3.7550000 -13.0720000   7.3180000  -2.6710000 -15.1290000
   8.9510000  -1.6130000 -16.9450000  10.6390000  -1.2430000 -16.4260000
  10.6020000   0.9680000 -17.8840000   9.1660000   1.9300000 -17.7590000
   9.0520000   0.4150000 -18.4820000   7.4990000   1.5460000 -16.1190000
   7.8780000   0.4890000 -14.6760000   7.1690000  -0.2260000 -16.1640000
   9.9550000   1.9690000 -15.0650000  11.1790000   0.7250000 -15.6640000
  10.2250000   0.3570000 -14.2930000  11.4570000  -1.5690000 -14.2400000
  11.1900000  -2.5030000 -11.9970000   8.2740000  -0.4300000  -8.5210000
  10.5300000   0.5770000  -8.5980000  12.8690000   0.2710000  -8.5140000
  13.5880000  -1.3270000  -8.1570000  14.1500000  -1.8930000  -5.8010000
  12.7590000  -1.2880000  -4.9020000  14.3630000  -0.6500000  -4.6340000
  15.5160000   0.0640000  -6.7300000  14.9550000   1.5610000  -5.9710000
  14.6530000   1.2670000  -7.7200000  12.8280000   1.5160000  -5.1210000
  11.4160000   0.6340000  -5.7230000  12.1890000   1.7840000  -6.8260000
  12.1810000  -3.0110000  -7.0740000  10.0740000  -4.0530000  -7.0660000
   3.1270000  -1.9810000 -10.3270000   2.8820000  -0.2180000 -12.1510000
   4.2620000   1.6090000 -13.2360000   4.9000000   2.7640000 -12.1900000
   2.4610000   4.7800000 -14.1590000   3.6560000   3.5160000 -14.7790000
   4.1120000   4.6450000 -13.5540000   2.0490000   1.5600000 -13.9180000
   0.7300000   2.7100000 -13.6880000   1.3020000   1.5540000 -12.4590000
   3.0600000   4.4910000 -11.1100000   1.8640000   3.2200000 -10.7270000
   1.4750000   4.5390000 -11.9040000   4.9280000   2.6200000  -9.8210000
   5.0100000   1.0530000  -7.8570000  -0.7260000  -4.0890000  -7.5760000
  -0.7000000  -5.9880000  -9.2170000   1.9130000  -8.5840000  -9.5600000
   0.6180000  -7.6230000 -10.2590000   1.6180000 -10.3990000  -8.1540000
   0.1200000 -10.7720000  -7.4020000   0.9370000  -9.1950000  -7.0140000
  -1.5520000  -8.2280000  -9.7370000  -1.4000000  -8.3480000  -7.9010000
  -2.0170000  -9.6800000  -8.8000000   1.1770000 -10.7790000 -10.0880000
  -0.1200000 -10.0430000 -11.0920000  -0.3740000 -11.3520000  -9.8460000
   2.8150000  -7.5110000  -7.1420000   2.9010000  -5.5090000  -5.8530000
   0.9150000  -4.0230000  -1.5540000   0.3640000  -5.7070000  -1.6530000
  -0.3400000  -3.7130000   0.5890000   0.9980000  -4.7490000   0.6120000
  -1.9210000  -5.6420000   0.5180000  -0.9240000  -7.7090000   0.0050000
  -1.1550000  -7.8560000   1.6490000   1.3720000  -7.5050000   0.2260000
   0.8850000  -8.8520000   1.0320000   1.3500000  -6.1420000   2.4600000
  -0.1910000  -7.1970000   3.8850000   1.3950000  -7.2810000   4.6800000
   0.0170000  -9.5500000   3.2120000  -0.1340000  -9.2430000   4.8820000
   2.7250000  -9.7130000   3.7930000   2.9560000  -8.9640000   5.8930000
   2.9990000 -10.7080000   6.1220000   0.7090000  -8.6910000   6.9770000
   1.8270000  -9.4900000   7.9480000  -0.2960000 -10.9610000   6.3160000
   1.4530000 -12.5890000   7.0230000  -0.0460000 -12.8310000   7.9600000
   0.7390000 -11.4840000   9.7980000   2.3850000 -11.3210000   8.9810000
   1.0050000 -13.7120000  10.0340000   2.2170000 -14.3750000   8.1520000
   3.0130000 -15.1310000   9.4490000   4.0810000 -12.7430000   7.8780000
   4.6060000 -14.3180000   7.8690000   5.0370000 -12.5250000  10.3460000
   4.8890000 -14.7390000  11.2180000   6.6220000 -14.2750000  11.0380000
   6.6290000 -15.4960000   8.7700000   5.0350000 -16.1220000   9.1730000
   7.3520000 -16.2610000  11.0980000   5.5880000 -16.5630000  12.3840000
   6.1790000 -18.2340000  12.2300000   3.5650000 -17.0690000  11.0090000
   3.7720000 -18.3000000  12.0600000   4.3690000 -18.2880000   9.1330000
   6.1320000 -19.9320000  10.1760000   4.9850000 -20.6050000   9.0100000
   3.7050000 -21.6690000  10.8120000   4.5940000 -20.7690000  12.0460000
   5.9240000 -22.8620000  10.1510000   7.6790000 -21.6700000  10.6660000
   7.7990000 -22.9190000  11.7230000   7.0800000 -20.1210000  12.6900000
   8.5280000 -20.9700000  12.9540000   5.8030000 -21.8260000  13.9060000
   7.3270000 -23.7160000  13.7970000   6.6990000 -23.3300000  15.4520000
   9.1320000 -22.6940000  16.0400000   9.5750000 -22.5850000  14.3610000
   8.8020000 -25.1120000  15.7270000  10.3210000 -24.6590000  13.1910000
   8.7890000 -25.4450000  13.4250000   9.8390000 -27.4150000  14.6070000
  11.4180000 -26.7020000  14.4850000  11.4410000 -26.6580000  11.9750000
  11.2050000 -29.2460000  13.3970000  12.6780000 -28.3960000  13.1170000
  11.7500000 -29.0340000  11.7040000   9.8070000 -25.8820000  10.4130000
   7.8680000 -26.3210000   8.9790000   5.7050000 -27.6590000   8.5340000
   5.5460000 -29.1860000   9.3690000   7.5010000 -31.4910000   7.2880000
   6.1530000 -31.3250000   8.4540000   7.7760000 -30.6850000   8.8460000
   4.6060000 -29.9060000   7.3170000   5.4950000 -30.0010000   5.8320000
   5.0170000 -28.3940000   6.5020000   7.5180000 -27.6550000   6.5280000
   8.0780000 -29.2910000   6.0960000   8.5430000 -28.5440000   7.6930000
   7.0750000 -29.8350000  11.2480000   8.9510000 -29.4210000  12.6710000
  12.0020000 -23.4070000  14.5220000  14.0410000 -23.5110000  15.6980000
  15.4330000 -24.5080000  17.2630000  14.9980000 -25.6440000  18.5380000
  13.9530000 -22.7770000  21.0120000  13.7500000 -24.4660000  20.8830000
  12.8160000 -23.3320000  19.7950000  16.0170000 -24.7490000  20.7110000
  16.4390000 -23.0070000  20.5490000  17.0500000 -24.1810000  19.3630000
  15.7220000 -22.3440000  17.6180000  15.2090000 -21.5410000  19.1850000
  14.0480000 -22.0770000  18.0970000  12.2230000 -25.9490000  18.7310000
  10.1510000 -25.6610000  17.6600000   8.6810000 -19.8660000  15.0500000
   8.5510000 -18.3500000  17.0020000   5.5080000 -18.1760000  19.1190000
   7.0730000 -17.4150000  18.9660000   7.5630000 -17.5930000  21.4510000
   7.2480000 -19.1670000  22.3170000   5.9160000 -18.3820000  21.4850000
   6.3250000 -21.1200000  19.3080000   5.2760000 -20.3030000  20.4700000
   6.6990000 -21.2680000  21.0390000   8.7310000 -20.2090000  18.9060000
   9.1070000 -20.0150000  20.7240000   9.0720000 -18.6480000  19.6140000
   4.9150000 -20.1190000  18.1780000   4.8140000 -21.4330000  16.0600000
   3.7230000 -22.6450000  13.2150000   3.0200000 -24.5740000  14.4010000
   4.0900000 -28.0870000  13.3760000   2.9200000 -27.0220000  14.4260000
   3.2650000 -29.0140000  15.9940000   5.0040000 -29.2320000  16.6860000
   4.5570000 -29.6380000  15.0270000   6.5640000 -26.5850000  14.5770000
   6.4610000 -28.2700000  14.1350000   6.7840000 -27.8230000  15.8660000
   5.0560000 -26.7890000  17.3550000   3.5230000 -26.2690000  16.7590000
   5.0460000 -25.4750000  16.2570000   5.8640000 -26.9340000  12.0990000
   6.4270000 -24.8780000  10.8250000   2.0060000 -19.2620000  11.8750000
  -0.2420000 -19.7120000  11.3460000  -1.7120000 -20.0420000   7.9560000
  -2.1260000 -20.0710000   9.6640000  -0.3740000 -22.7230000  10.1010000
  -1.4860000 -23.8670000   9.4430000  -2.1490000 -22.5690000  10.5260000
  -3.4480000 -23.0900000   7.9010000  -3.4980000 -21.4680000   7.4750000
  -3.8130000 -21.9620000   9.2120000  -1.1130000 -21.5120000   6.6300000
  -1.3180000 -23.1780000   6.7650000   0.1740000 -22.4440000   7.5440000
   0.6110000 -20.1810000   7.1370000   3.0290000 -19.4890000   7.6460000
   6.2370000 -18.1960000   8.0000000   8.0090000 -19.5940000   6.9230000
   9.9050000 -20.9440000   7.0960000  10.5430000 -21.3280000   8.7240000
  11.2830000 -17.9710000   7.3710000  10.5380000 -18.8340000   5.9860000
  12.3460000 -18.6860000   6.0940000  13.5010000 -19.6760000   8.4370000
  12.4150000 -20.3590000   9.6390000  12.1230000 -18.7030000   9.0400000
  11.6270000 -21.5750000   5.8950000  12.5070000 -21.9700000   7.4910000
  13.2830000 -21.0590000   6.3750000  10.3470000 -19.5360000  10.5310000
   8.9830000 -17.8590000  11.4690000   6.6110000 -13.4800000   7.1800000
   8.7080000 -12.3530000   6.4080000  10.2850000  -9.5130000   7.9910000
  10.3190000 -10.4410000   6.6520000  12.3990000 -13.3000000   8.4440000
  11.6280000 -12.9390000   6.8780000  10.6150000 -13.2710000   8.2360000
  13.5830000 -10.6380000   8.3830000  12.6290000  -9.5290000   7.4480000
  12.9700000 -11.0740000   6.7070000  11.6790000 -10.1270000  10.2190000
  12.3280000 -11.8600000  10.2780000  10.6120000 -11.5680000  10.2460000
   8.7650000 -10.1950000  10.1880000   6.8900000 -11.3770000  10.9050000
   2.8730000 -10.8620000  11.0020000   3.5090000 -10.4000000  13.3840000
   4.5600000 -11.7310000  15.4790000   3.6840000 -13.1690000  16.0010000
   2.0180000  -9.9710000  14.8980000   3.6670000  -9.7380000  15.6800000
   2.2050000  -9.3580000  16.5870000   0.5260000 -11.6590000  16.6490000
   1.2690000 -13.1690000  16.1740000   0.9100000 -11.9230000  14.9400000
   3.9600000 -11.3620000  17.9730000   2.5410000 -12.4790000  18.2040000
   2.2500000 -10.8170000  18.3000000   2.8360000 -14.6280000  14.2840000
   2.2020000 -14.9910000  11.9100000  -2.3690000 -11.5840000   7.1470000
  -4.1710000 -10.7880000   8.2890000  -5.1610000  -8.7280000   9.9760000
  -3.9010000  -8.1060000  11.1480000  -4.8790000  -8.6070000  13.2730000
  -6.2420000  -9.8270000  13.2830000  -6.2170000  -8.4560000  12.1030000
  -6.2800000 -10.7400000  10.2780000  -6.0800000 -11.5120000  11.8980000
  -4.9320000 -11.7880000  10.5870000  -3.0340000  -9.7150000  13.0720000
  -2.8550000 -11.0670000  11.8430000  -3.9460000 -11.2200000  13.1960000
  -1.5600000  -8.3350000  10.8860000   0.2000000  -8.8680000   9.2720000
  -0.4580000 -11.6250000   4.1260000  -0.5970000 -14.0530000   3.8090000
   0.3270000 -16.1090000   3.6090000   1.9520000 -16.3440000   4.1360000
   3.6410000 -16.7400000   0.9780000   3.5610000 -17.1820000   2.7060000
   3.7860000 -15.4960000   2.0880000   1.3790000 -17.9890000   0.7470000
  -0.0130000 -17.6180000   1.7790000   1.4760000 -18.4810000   2.4920000
   0.0110000 -15.3270000   0.9670000   1.2640000 -16.0420000  -0.0510000
   1.6280000 -14.5910000   0.7470000   3.7150000 -14.3930000   3.6940000
   3.8480000 -11.8120000   4.0710000   3.2260000  -5.7690000   4.2070000
   5.6860000  -5.8900000   4.4110000   7.7310000  -8.4250000   2.8020000
   7.6950000  -7.2500000   4.0830000  10.0570000  -7.5450000   2.0950000
   9.9820000  -6.3250000   3.3480000  10.1720000  -5.8130000   1.6710000
   6.9510000  -6.9220000   0.4600000   8.5740000  -7.6780000   0.4350000
   8.3680000  -6.0030000   0.0120000   6.8200000  -4.7920000   1.9750000
   8.5450000  -4.3540000   1.8090000   7.7810000  -4.7210000   3.3970000
   5.6190000  -8.9110000   1.2180000   3.2390000  -8.8730000   1.2130000
  -2.9150000  -6.6250000   2.5320000  -3.4410000  -5.8970000   5.0220000
  -3.1430000  -4.2030000   6.6700000  -1.7340000  -3.2020000   6.6190000
  -3.3490000  -6.2020000   8.3260000  -1.7430000  -6.8340000   8.8240000
  -2.1130000  -7.0270000   7.1770000   0.4810000  -4.5760000   7.1910000
  -0.0300000  -6.0610000   6.4060000   0.2610000  -5.9910000   8.1770000
  -2.4200000  -3.7590000   9.1270000  -0.6400000  -3.6030000   8.8410000
  -1.3540000  -5.0410000   9.7140000   0.1420000  -3.4340000   5.0020000
   0.4820000  -3.8760000   2.6730000  -3.6970000  -3.3570000  -3.1620000
  -5.4830000  -4.8080000  -3.5130000  -6.6190000  -6.7240000  -3.5490000
  -6.1890000  -7.7370000  -2.1400000  -4.0840000  -8.0530000  -5.3250000
  -5.4150000  -6.9690000  -5.7030000  -5.4350000  -8.7080000  -6.2680000
  -5.3250000 -10.5890000  -4.2060000  -5.5800000  -9.8530000  -2.6320000
  -4.0790000  -9.5810000  -3.3530000  -7.7150000  -7.8900000  -4.8320000
  -7.7430000  -9.4180000  -3.8340000  -7.0860000  -9.4370000  -5.4380000
  -3.2490000  -8.2170000  -2.0950000  -1.3490000  -6.9000000  -1.9750000
  -2.4230000  -2.9730000  -0.0390000  -3.3040000  -0.7670000   0.3120000
  -7.6550000  -0.0890000   1.1290000  -7.3530000  -2.1440000   2.7140000
  -6.5010000  -3.9810000   3.1570000  -4.9430000  -4.4520000   2.3200000
  -7.8830000  -4.9570000   0.7670000  -8.5860000  -4.7900000   2.3210000
  -8.5620000  -6.4850000   1.5170000  -4.8800000  -6.5150000   1.3220000
  -6.0080000  -5.9040000   0.0940000  -6.4170000  -7.4060000   0.8440000
  -5.5440000  -6.5890000   3.5970000  -7.0400000  -7.5090000   3.3900000
  -7.1020000  -5.9530000   4.2220000  -5.2950000  -4.1510000  -0.3420000
  -5.4370000  -2.2860000  -1.8950000  -7.4520000   0.4000000  -4.7890000
  -5.4600000   0.2880000  -6.1760000  -3.3440000   1.3190000  -6.8290000
  -3.1030000   2.9370000  -6.7000000  -2.7610000   2.0600000 -10.2530000
  -2.8780000   0.7060000  -9.1750000  -1.8930000   2.1260000  -8.6220000
  -5.2750000   2.3090000 -10.2180000  -6.0640000   2.2690000  -8.6180000
  -5.3450000   0.7920000  -9.2800000  -3.0100000   4.5010000  -8.6080000
  -4.7430000   4.5000000  -8.6390000  -3.8510000   3.9810000 -10.0590000
  -5.0600000   4.5880000  -6.2190000  -7.0780000   4.7550000  -4.7400000
 -10.7080000   4.6050000  -5.9350000 -11.3510000   4.1980000  -8.2690000
 -13.8510000   1.4850000  -9.1510000 -12.5180000   2.4360000  -9.8410000
 -13.3220000   5.3250000  -8.9550000 -14.6470000   5.5410000 -10.1710000
 -13.0430000   4.9660000 -10.6060000 -14.7850000   2.1140000 -11.1550000
 -13.7920000   3.4290000 -11.7990000 -15.5480000   3.7440000 -11.5250000
 -15.9190000   2.5110000  -8.5340000 -16.4260000   3.9610000  -9.3510000
 -15.3490000   4.1450000  -7.9610000 -14.3510000   1.3210000  -6.9510000
 -13.4670000   1.5840000  -4.6320000 -15.4140000   5.1740000  -2.7160000
 -16.4490000   7.2810000  -3.4160000 -16.9680000   9.9780000  -1.3190000
 -17.1320000   9.3240000  -2.9490000 -17.6660000  11.9540000  -2.8480000
 -17.0580000  11.2260000  -4.4130000 -16.4850000  12.8170000  -3.9230000
 -14.7650000  11.2520000  -0.8990000 -16.0950000  12.4180000  -1.0570000
 -14.5130000  12.6810000  -1.9090000 -14.1930000  11.5270000  -4.1200000
 -14.7860000   9.9220000  -4.4470000 -13.9030000  10.3080000  -2.9460000
 -14.6500000   9.3050000  -0.1000000 -13.4650000   7.2660000   0.5490000
 -15.5200000   6.1140000   2.7250000 -13.7070000   7.6430000   3.5280000
 -11.0420000   7.7320000   3.8740000 -10.4230000   6.2580000   4.5870000
 -10.4700000   8.2720000   7.3950000  -9.7090000   8.5460000   5.6820000
  -9.6270000   6.9880000   6.5390000 -13.5950000   8.0330000   5.6900000
 -12.4630000   9.2390000   5.0820000 -12.5160000   8.9640000   6.8150000
 -12.9430000   5.9510000   6.5320000 -12.1700000   6.8760000   7.7910000
 -11.1880000   5.5670000   7.0140000 -11.0230000   4.3710000   3.7970000
 -12.7960000   2.7590000   2.8150000 -19.4920000   3.6410000   6.1220000
 -19.1100000   3.6530000   8.4710000 -16.8380000   1.3570000  10.4030000
 -18.0740000   2.6360000  10.5320000 -15.0040000   1.9580000  11.6390000
 -14.0350000   3.1620000  10.7450000 -14.5480000   1.6990000   9.9370000
 -16.7390000   4.7700000   8.8200000 -15.4540000   3.6020000   8.3260000
 -15.1910000   5.0870000   9.3350000 -15.7180000   4.2910000  12.1750000
 -17.2820000   3.5400000  12.1750000 -16.9190000   5.0490000  11.1450000
 -15.9310000   0.7070000   7.9690000 -16.3950000   0.4990000   5.6580000
 -19.1660000   5.1930000   0.5930000 -18.5410000   7.4490000   1.0930000
 -18.7980000   9.4430000   2.7180000 -20.2690000   9.5310000   3.6420000
 -22.5210000  10.3030000   2.4470000 -22.3170000   8.8700000   1.3000000
 -22.4110000  10.4230000   0.7060000 -19.1780000  11.7670000   2.1640000
 -20.8560000  11.7070000   2.8240000 -20.5240000  12.1760000   1.0660000
 -18.8090000  10.0230000   0.2360000 -20.4580000  10.4950000  -0.4770000
 -20.0620000   8.7950000  -0.1230000 -22.1050000   7.7240000   3.7020000
 -22.3990000   5.3670000   3.3360000 -23.9070000   2.2700000   3.7230000
 -23.2830000   1.1380000   5.7240000 -22.0350000  -2.4950000   5.4440000
 -22.7650000  -1.3120000   6.5860000 -19.7270000  -2.5300000   5.1830000
 -18.6090000  -1.2370000   5.7710000 -19.8890000  -0.8450000   4.4850000
 -19.5810000   0.4580000   7.4370000 -21.2630000   0.3630000   7.7190000
 -20.7380000   1.0180000   6.1450000 -20.2270000  -3.0610000   7.3230000
 -21.2110000  -1.9330000   8.3360000 -19.4710000  -1.7270000   8.1410000
 -21.7000000  -2.0620000   3.2490000 -22.1830000  -0.7380000   1.2310000
 -26.4250000   5.9580000   2.2720000 -28.0330000   5.9690000   3.7880000
 -29.6670000   4.9000000   5.0450000 -30.1220000   3.3120000   4.6290000
 -33.4530000   4.3480000   2.9550000 -32.5610000   3.0030000   3.5630000
 -31.9450000   3.8500000   2.1100000 -32.0370000   4.2200000   5.8520000
 -33.2100000   5.2350000   5.0150000 -31.8360000   6.0320000   5.7260000
 -32.0870000   7.0270000   3.1400000 -30.7280000   6.2690000   2.2830000
 -30.5070000   6.9310000   3.9460000 -30.0070000   2.6460000   1.9830000
 -28.4670000   2.7460000   0.2150000 -27.4130000   3.8720000  -3.4940000
 -27.4150000   1.4690000  -3.5680000 -24.3480000  -0.3920000  -4.3020000
 -25.9750000  -0.4070000  -4.7090000 -27.7560000  -0.7020000  -2.6180000
 -26.9650000   0.5050000  -1.5370000 -27.1510000  -1.1340000  -1.0870000
 -26.4040000  -2.5780000  -3.6840000 -25.8380000  -3.0240000  -2.1200000
 -24.6190000  -2.6970000  -3.3810000 -24.7070000  -1.2860000  -0.8240000
 -24.1970000   0.3600000  -1.4630000 -23.4760000  -1.2110000  -2.0980000
 -23.0410000   1.6270000  -3.7550000 -23.1170000   4.0010000  -3.5740000
 -26.8550000  10.1940000  -6.3040000 -27.8290000   9.7900000  -8.6320000
 -30.4920000   7.4670000  -9.3260000 -29.2490000   8.3960000 -10.0690000
 -30.9710000  11.8450000  -9.5770000 -29.3730000  11.0950000  -9.4870000
 -30.4890000  11.1170000  -8.0460000 -32.2330000  10.3800000 -11.1060000
 -31.5260000   8.7210000 -11.2840000 -30.5000000  10.1290000 -11.5830000
 -32.6560000   8.5220000  -8.9770000 -32.9040000  10.3450000  -9.0800000
 -31.9790000   9.3910000  -7.7100000 -30.6400000   7.0710000  -6.9880000
 -29.4620000   7.1520000  -4.8190000 -31.8530000   9.1090000  -2.1200000
 -33.6560000  10.5650000  -2.5800000 -34.0460000  13.7880000  -0.6390000
 -34.9350000  12.6390000  -1.7490000 -35.4490000  15.4710000  -1.6290000
 -36.1210000  14.3450000  -2.7870000 -35.1670000  15.8180000  -3.2880000
 -31.8090000  14.3820000  -2.2470000 -32.8540000  15.6940000  -1.7580000
 -32.5070000  15.4000000  -3.5500000 -34.9260000  12.8530000  -4.1990000
 -33.1840000  12.5370000  -4.0750000 -33.8760000  14.0770000  -4.8670000
 -31.8950000  13.4120000   0.2470000 -30.0530000  11.8980000   0.6520000
   3.8040000  14.6010000  -7.4940000   7.0150000  17.9730000  -9.1780000
   5.0510000  17.7760000  -8.2750000   8.0740000  16.1960000  -7.3860000
   6.4100000  15.4300000  -8.5500000   5.8920000  18.6300000  -5.9110000
   6.2170000  19.9970000  -7.5640000   6.5110000  14.5510000  -6.0180000
   6.4110000  16.5860000  -5.2600000   8.0530000  20.0790000  -5.6120000
   8.4980000  17.9690000  -5.8240000   4.0160000  16.9580000  -6.4820000
   4.0820000  15.3480000  -5.0320000   9.3580000  18.3470000  -8.3830000
  10.3490000  19.5370000  -6.8600000   8.8890000  21.7490000  -7.5880000
   7.8160000  20.5620000  -9.0610000   9.9730000  20.8280000  -9.2420000
   2.2690000  14.6550000  -6.9480000   4.3160000  13.2640000  -7.2790000
   3.8520000  15.2420000  -8.7920000   6.3860000  17.7140000  -8.0060000
   6.7310000  16.3010000  -7.5510000   6.6720000  18.8350000  -7.0130000
   6.0210000  15.7940000  -6.3020000   8.0950000  19.0640000  -6.5250000
   4.5040000  15.7000000  -6.2740000   9.1760000  19.3950000  -7.5420000
   8.9680000  20.6470000  -8.3590000  22.8080000  26.0610000  -3.0230000
  12.7700000 -38.2310000  23.5320000   4.3540000 -12.8710000  -1.1560000
   6.9090000  40.4200000 -24.8030000 -25.0890000  39.4140000 -34.1980000
  45.3160000 -22.8390000  28.1060000  16.5950000 -13.6520000 -20.4950000
   5.8750000  -5.7740000   8.3670000  10.3850000 -10.1610000  19.6210000
 -17.4810000   0.7300000  -6.7280000  -8.4150000  10.6720000  -9.5990000
 -12.5080000  11.1840000  11.8620000  -9.8060000  24.2550000  28.5280000
 -32.0460000 -33.7030000 -22.6810000  33.7270000  19.1370000  15.9510000
   7.2980000 -33.9440000  16.9890000 -23.5880000 -35.3780000   3.8240000
   3.0130000 -12.3150000 -30.2670000   9.2980000  14.9950000 -25.9840000
  22.9840000  28.7910000 -15.2310000 -23.4940000  -3.6240000 -14.9030000
  -6.2390000  10.5610000  10.5100000  -6.1510000  16.3460000 -26.6320000
  24.5790000 -12.7460000 -15.0400000  -5.4230000 -23.2790000  -2.1410000
  17.6400000  -3.0740000   0.5350000  24.3170000 -37.2870000 -24.0310000
 -16.1380000 -26.2570000  20.4810000 -12.6090000  -6.3560000 -21.5920000
  -8.7780000   3.1780000   5.9570000  -7.1770000 -11.2590000  15.4270000
  48.5200000  36.9730000  -7.1700000  14.5400000 -10.5820000 -35.2190000
   9.5360000   5.2730000 -10.2270000 -20.1520000  17.1200000   3.1320000
  -3.1640000  10.7490000  27.5860000 -33.1650000  30.6680000  30.7740000
  -8.4140000 -14.6340000  -3.6440000  30.7440000 -29.3170000  30.9380000
  12.5620000 -28.2350000  -0.4820000   4.0010000  14.6910000  15.8100000
   1.3220000   4.1790000   8.4830000 -36.5390000  -1.3420000 -21.1540000
 -40.6070000  29.5770000  -5.7220000  20.6880000 -10.6050000  -6.3090000
  -8.9150000  -6.1150000   6.3170000  26.0660000   4.6910000  10.5030000
