%VERSION  VERSION_STAMP = V0001.000  DATE = 04/29/26  03:47:01                  
%FLAG TITLE                                                                     
%FORMAT(20a4)                                                                   
default_name                                                                    
%FLAG POINTERS                                                                  
%FORMAT(10I8)                                                                   
    1720      10     966     754    2118    1122    3885    1486       0       0
    9998      49     754    1122    1486      10      20      14      10       0
       0       0       0       0       0       0       0       0    1644       0
       0
%FLAG ATOM_NAME                                                                 
%FORMAT(20a4)                                                                   
C   C1  C2  C3  C4  C5  C6  C7  C8  C9  C10 C11 C12 C13 C14 C15 C16 C17 C18 C19 
C20 C21 C22 C23 C24 C25 C26 C27 C28 C29 C30 C31 C32 C33 C34 C35 C36 C37 C38 C39 
C40 C41 C42 C43 C44 C45 C46 C47 C48 C49 C50 C51 C52 C53 C54 C55 C56 C57 C58 C59 
C60 C61 C62 C63 C64 C65 C66 C67 C68 C69 C70 C71 C72 C73 C74 C75 C76 N   C77 C78 
C79 C80 C81 C82 C83 C84 C85 C86 N1  C87 C88 C89 C90 C91 C92 C93 C94 C95 C96 N2  
C97 C98 C99 C100C101C102C103C104C105C106N3  C107C108C109C110C111C112C113C114C115
C116N4  C117C118C119C120C121C122C123C124C125C126N5  C127C128C129C130C131C132C133
C134C135C136N6  C137C138C139C140C141C142C143C144C145C146N7  C147C148C149C150C151
C152C153C154C155C156N8  C157C158C159C160C161C162C163C164C165C166N9  C167C168C169
C170C171C172C173C174C175C176N10 C177C178C179C180C181C182C183C184C185C186N11 C187
C188C189C190C191C192C193C194C195C196C197C198C199C200C201C202C203C204C205C206C207
C208C209C210C211C212C213C214C215C216C217C218C219C220C221C222C223C224C225C226C227
C228C229C230C231C232C233C234C235N12 C236C237C238C239C240C241C242C243C244C245N13 
C246C247C248C249C250C251C252C253C254C255N14 C256C257C258C259C260C261C262C263C264
C265N15 C266C267C268C269C270C271C272C273C274C275N16 C276C277C278C279C280C281C282
C283C284C285N17 C286C287C288C289C290C291C292C293C294C295N18 C296C297C298C299C300
C301C302C303C304C305N19 C306C307C308C309C310C311C312C313C314C315N20 C316C317C318
C319C320C321C322C323C324C325N21 C326C327C328C329C330C331C332C333C334C335N22 C336
C337C338C339C340C341C342C343C344C345C346C347C348C349C350C351C352C353C354C355C356
C357C358C359C360C361C362C363C364C365C366C367C368C369C370C371C372C373C374C375C376
C377C378C379C380C381C382N23 C383C384C385C386C387C388C389C390C391C392N24 C393C394
C395C396C397C398C399C400C401C402N25 C403C404C405C406C407C408C409C410C411C412N26 
C413C414C415C416C417C418C419C420C421C422N27 C423C424C425C426C427C428C429C430C431
C432N28 C433C434C435C436C437C438C439C440C441C442N29 C443C444C445C446C447C448C449
C450C451C452N30 C453C454C455C456C457C458C459C460C461C462N31 C463C464C465C466C467
C468C469C470C471C472N32 C473C474C475C476C477C478C479C480C481C482N33 C483C484C485
C486C487C488C489C490C491C492N34 C493C494C495C496C497C498C499C500C501C502N35 C503
C504C505C506C507C508C509C510C511C512C513C514N36 C515C516C517C518C519C520C521C522
C523C524N37 C525C526C527C528C529C530C531C532C533C534N38 C535C536C537C538C539C540
C541C542C543C544N39 C545C546C547C548C549C550C551C552C553C554N40 C555C556C557C558
C559C560C561C562C563C564N41 C565C566C567C568C569C570C571C572C573C574N42 C575C576
C577C578C579C580C581C582C583C584N43 C585C586C587C588C589C590C591C592C593C594N44 
C595C596C597C598C599C600C601C602C603C604N45 C605C606C607C608C609C610C611C612C613
C614N46 C615C616C617C618C619C620C621C622C623C624N47 C625C626C627C628C629H   H1  
H2  H3  H4  H5  H6  H7  H8  H9  H10 H11 H12 H13 H14 H15 H16 H17 H18 H19 H20 H21 
H22 H23 H24 H25 H26 H27 H28 H29 H30 H31 H32 H33 H34 H35 H36 H37 H38 H39 H40 H41 
H42 H43 H44 H45 H46 H47 H48 H49 H50 H51 H52 H53 H54 H55 H56 H57 H58 H59 H60 H61 
H62 H63 H64 H65 H66 H67 H68 H69 H70 H71 H72 H73 H74 H75 H76 H77 H78 H79 H80 H81 
H82 H83 H84 H85 H86 H87 H88 H89 H90 H91 H92 H93 H94 H95 H96 H97 H98 H99 H100H101
H102H103H104H105H106H107H108H109H110H111H112H113H114H115H116H117H118H119H120H121
H122H123H124H125H126H127H128H129H130H131H132H133H134H135H136H137H138H139H140H141
H142H143H144H145H146H147H148H149H150H151H152H153H154H155H156H157H158H159H160H161
H162H163H164H165H166H167H168H169H170H171H172H173H174H175H176H177H178H179H180H181
H182H183H184H185H186H187H188H189H190H191H192H193H194H195H196H197H198H199H200H201
H202H203H204H205H206H207H208H209H210H211H212H213H214H215H216H217H218H219H220H221
H222H223H224H225H226H227H228H229H230H231H232H233H234H235H236H237H238H239H240H241
H242H243H244H245H246H247H248H249H250H251H252H253H254H255H256H257H258H259H260H261
H262H263H264H265H266H267H268H269H270H271H272H273H274H275H276H277H278H279H280H281
H282H283H284H285H286H287H288H289H290H291H292H293H294H295H296H297H298H299H300H301
H302H303H304H305H306H307H308H309H310H311H312H313H314H315H316H317H318H319H320H321
H322H323H324H325H326H327H328H329H330H331H332H333H334H335H336H337H338H339H340H341
H342H343H344H345H346H347H348H349H350H351H352H353H354H355H356H357H358H359H360H361
H362H363H364H365H366H367H368H369H370H371H372H373H374H375H376H377H378H379H380H381
H382H383H384H385H386H387H388H389H390H391H392H393H394H395H396H397H398H399H400H401
H402H403H404H405H406H407H408H409H410H411H412H413H414H415H416H417H418H419H420H421
H422H423H424H425H426H427H428H429H430H431H432H433H434H435H436H437H438H439H440H441
H442H443H444H445H446H447H448H449H450H451H452H453H454H455H456H457H458H459H460H461
H462H463H464H465H466H467H468H469H470H471H472H473H474H475H476H477H478H479H480H481
H482H483H484H485H486H487H488H489H490H491H492H493H494H495H496H497H498H499H500H501
H502H503H504H505H506H507H508H509H510H511H512H513H514H515H516H517H518H519H520H521
H522H523H524H525H526H527H528H529H530H531H532H533H534H535H536H537H538H539H540H541
H542H543H544H545H546H547H548H549H550H551H552H553H554H555H556H557H558H559H560H561
H562H563H564H565H566H567H568H569H570H571H572H573H574H575H576H577H578H579H580H581
H582H583H584H585H586H587H588H589H590H591H592H593H594H595H596H597H598H599H600H601
H602H603H604H605H606H607H608H609H610H611H612H613H614H615H616H617H618H619H620H621
H622H623H624H625H626H627H628H629H630H631H632H633H634H635H636H637H638H639H640H641
H642H643H644H645H646H647H648H649H650H651H652H653H654H655H656H657H658H659H660H661
H662H663H664H665H666H667H668H669H670H671H672H673H674H675H676H677H678H679H680H681
H682H683H684H685H686H687H688H689H690H691H692H693H694H695H696H697H698H699H700H701
H702H703H704H705H706H707H708H709H710H711H712H713H714H715H716H717H718H719H720H721
H722H723H724H725H726H727H728H729H730H731H732H733H734H735H736H737H738H739H740H741
H742H743H744H745H746H747H748H749H750H751H752H753H754H755H756H757H758H759H760H761
H762H763H764H765H766H767H768H769H770H771H772H773H774H775H776H777H778H779H780H781
H782H783H784H785H786H787H788H789H790H791H792H793H794H795H796H797H798H799H800H801
H802H803H804H805H806H807H808H809H810H811H812H813H814H815H816H817H818H819H820H821
H822H823H824H825H826H827H828H829H830H831H832H833H834H835H836H837H838H839H840H841
H842H843H844H845H846H847H848H849H850H851H852H853H854H855H856H857H858H859H860H861
H862H863H864H865H866H867H868H869H870H871H872H873H874H875H876H877H878H879H880H881
H882H883H884H885H886H887H888H889H890H891H892H893H894H895H896H897H898H899H900H901
H902H903H904H905H906H907H908H909H910H911H912H913H914H915H916H917H918H919H920H921
H922H923H924H925H926H927H928H929H930H931H932H933H934H935H936H937H938H939H940H941
H942H943H944H945H946H947H948H949H950H951H952H953H954H955H956H957H958H959H960H961
H962H963H964H965S   F   F1  F2  F3  F4  F5  F6  F7  F8  F9  F10 F11 F12 F13 F14 
F15 F16 O   O1  O2  C   C1  C2  C3  C4  C5  C6  C7  Cl- Cl- Cl- Cl- Cl- Cl- Cl- 
Cl- Cl- Cl- Cl- Cl- Cl- Cl- Cl- Cl- Cl- Cl- Cl- Cl- Cl- Cl- Cl- Cl- Cl- Cl- Cl- 
Cl- Cl- Cl- Cl- Cl- Cl- Cl- Cl- Cl- Cl- Cl- Cl- Cl- Cl- Cl- Cl- Cl- Cl- Cl- Cl- 
%FLAG CHARGE                                                                    
%FORMAT(5E16.8)                                                                 
 -1.73294073E+00 -6.81514020E-01 -1.40129487E+00 -1.43773947E+00 -7.90847820E-01
 -1.43773947E+00 -1.43773947E+00 -7.90847820E-01 -1.43773947E+00 -1.43773947E+00
 -7.90847820E-01 -1.43773947E+00 -1.43773947E+00 -7.90847820E-01 -1.43773947E+00
 -1.43773947E+00 -7.90847820E-01 -1.43773947E+00 -1.43773947E+00 -7.90847820E-01
 -1.43773947E+00 -1.43773947E+00 -7.90847820E-01 -1.43773947E+00 -1.43773947E+00
 -7.90847820E-01 -1.43773947E+00 -1.43773947E+00 -7.90847820E-01 -1.43773947E+00
 -1.43773947E+00 -7.90847820E-01 -1.43773947E+00 -1.44685062E+00 -6.26847120E-01
 -1.46507292E+00 -1.42862832E+00  6.94269630E-01 -1.42862832E+00 -1.46507292E+00
 -6.26847120E-01 -1.44685062E+00 -1.43773947E+00 -7.90847820E-01 -1.43773947E+00
 -1.43773947E+00 -7.90847820E-01 -1.43773947E+00 -1.43773947E+00 -7.90847820E-01
 -1.43773947E+00 -1.43773947E+00 -7.90847820E-01 -1.43773947E+00 -1.43773947E+00
 -7.90847820E-01 -1.43773947E+00 -1.43773947E+00 -7.90847820E-01 -1.43773947E+00
 -1.43773947E+00 -7.90847820E-01 -1.43773947E+00 -1.43773947E+00 -7.90847820E-01
 -1.43773947E+00 -1.43773947E+00 -7.90847820E-01 -1.43773947E+00 -1.40129487E+00
 -6.81514020E-01 -1.73294073E+00 -3.69912690E-01 -2.26412077E+00 -1.85411902E+00
 -3.41303679E+00  3.57339303E+00 -1.16039606E+01  2.01234326E+00  2.01234326E+00
  2.01234326E+00 -1.85411902E+00 -2.26412077E+00 -4.06357290E-01 -2.38712130E+00
 -1.79489655E+00 -3.24903609E+00  3.53694843E+00 -1.16221829E+01  2.03665180E+00
  2.03665180E+00  2.03665180E+00 -1.79489655E+00 -2.38712130E+00 -4.06357290E-01
 -2.38712130E+00 -1.79489655E+00 -3.24903609E+00  3.53694843E+00 -1.16221829E+01
  2.03665180E+00  2.03665180E+00  2.03665180E+00 -1.79489655E+00 -2.38712130E+00
 -4.06357290E-01 -2.38712130E+00 -1.79489655E+00 -3.24903609E+00  3.53694843E+00
 -1.16221829E+01  2.03665180E+00  2.03665180E+00  2.03665180E+00 -1.79489655E+00
 -2.38712130E+00 -4.06357290E-01 -2.38712130E+00 -1.79489655E+00 -3.24903609E+00
  3.53694843E+00 -1.16221829E+01  2.03665180E+00  2.03665180E+00  2.03665180E+00
 -1.79489655E+00 -2.38712130E+00 -4.06357290E-01 -2.38712130E+00 -1.79489655E+00
 -3.24903609E+00  3.53694843E+00 -1.16221829E+01  2.03665180E+00  2.03665180E+00
  2.03665180E+00 -1.79489655E+00 -2.38712130E+00 -4.06357290E-01 -2.38712130E+00
 -1.79489655E+00 -3.24903609E+00  3.53694843E+00 -1.16221829E+01  2.03665180E+00
  2.03665180E+00  2.03665180E+00 -1.79489655E+00 -2.38712130E+00 -4.06357290E-01
 -2.38712130E+00 -1.79489655E+00 -3.24903609E+00  3.53694843E+00 -1.16221829E+01
  2.03665180E+00  2.03665180E+00  2.03665180E+00 -1.79489655E+00 -2.38712130E+00
 -4.06357290E-01 -2.38712130E+00 -1.79489655E+00 -3.24903609E+00  3.53694843E+00
 -1.16221829E+01  2.03665180E+00  2.03665180E+00  2.03665180E+00 -1.79489655E+00
 -2.38712130E+00 -4.06357290E-01 -2.38712130E+00 -1.79489655E+00 -3.24903609E+00
  3.53694843E+00 -1.16221829E+01  2.03665180E+00  2.03665180E+00  2.03665180E+00
 -1.79489655E+00 -2.38712130E+00 -8.61914790E-01 -2.34156555E+00 -1.79489655E+00
 -2.82992319E+00  3.57339303E+00 -1.16039606E+01  1.87871913E+00  1.87871913E+00
  1.87871913E+00 -1.79489655E+00 -2.34156555E+00 -2.69690040E-01 -2.26867635E+00
 -1.99989743E+00 -3.20348034E+00  3.60072648E+00 -1.16312941E+01  1.92731800E+00
  1.92731800E+00  1.92731800E+00 -1.99989743E+00 -2.26867635E+00 -1.48147299E+00
 -2.33245440E+00 -2.33245440E+00 -1.48147299E+00  6.94269630E-01 -1.42862832E+00
 -1.46507292E+00 -6.26847120E-01 -1.44685062E+00 -1.43773947E+00 -7.90847820E-01
 -1.43773947E+00 -1.43773947E+00 -7.90847820E-01 -1.43773947E+00 -1.43773947E+00
 -7.90847820E-01 -1.43773947E+00 -1.43773947E+00 -7.90847820E-01 -1.43773947E+00
 -1.43773947E+00 -7.90847820E-01 -1.43773947E+00 -1.43773947E+00 -7.90847820E-01
 -1.43773947E+00 -1.43773947E+00 -7.90847820E-01 -1.43773947E+00 -1.43773947E+00
 -7.90847820E-01 -1.43773947E+00 -1.43773947E+00 -7.90847820E-01 -1.43773947E+00
 -1.40129487E+00 -6.81514020E-01 -1.73294073E+00 -3.69912690E-01 -2.26412077E+00
 -1.85411902E+00 -3.41303679E+00  3.57339303E+00 -1.16039606E+01  2.01234326E+00
  2.01234326E+00  2.01234326E+00 -1.85411902E+00 -2.26412077E+00 -4.06357290E-01
 -2.38712130E+00 -1.79489655E+00 -3.24903609E+00  3.53694843E+00 -1.16221829E+01
  2.03665180E+00  2.03665180E+00  2.03665180E+00 -1.79489655E+00 -2.38712130E+00
 -4.06357290E-01 -2.38712130E+00 -1.79489655E+00 -3.24903609E+00  3.53694843E+00
 -1.16221829E+01  2.03665180E+00  2.03665180E+00  2.03665180E+00 -1.79489655E+00
 -2.38712130E+00 -4.06357290E-01 -2.38712130E+00 -1.79489655E+00 -3.24903609E+00
  3.53694843E+00 -1.16221829E+01  2.03665180E+00  2.03665180E+00  2.03665180E+00
 -1.79489655E+00 -2.38712130E+00 -4.06357290E-01 -2.38712130E+00 -1.79489655E+00
 -3.24903609E+00  3.53694843E+00 -1.16221829E+01  2.03665180E+00  2.03665180E+00
  2.03665180E+00 -1.79489655E+00 -2.38712130E+00 -4.06357290E-01 -2.38712130E+00
 -1.79489655E+00 -3.24903609E+00  3.53694843E+00 -1.16221829E+01  2.03665180E+00
  2.03665180E+00  2.03665180E+00 -1.79489655E+00 -2.38712130E+00 -4.06357290E-01
 -2.38712130E+00 -1.79489655E+00 -3.24903609E+00  3.53694843E+00 -1.16221829E+01
  2.03665180E+00  2.03665180E+00  2.03665180E+00 -1.79489655E+00 -2.38712130E+00
 -4.06357290E-01 -2.38712130E+00 -1.79489655E+00 -3.24903609E+00  3.53694843E+00
 -1.16221829E+01  2.03665180E+00  2.03665180E+00  2.03665180E+00 -1.79489655E+00
 -2.38712130E+00 -4.06357290E-01 -2.38712130E+00 -1.79489655E+00 -3.24903609E+00
  3.53694843E+00 -1.16221829E+01  2.03665180E+00  2.03665180E+00  2.03665180E+00
 -1.79489655E+00 -2.38712130E+00 -4.06357290E-01 -2.38712130E+00 -1.79489655E+00
 -3.24903609E+00  3.53694843E+00 -1.16221829E+01  2.03665180E+00  2.03665180E+00
  2.03665180E+00 -1.79489655E+00 -2.38712130E+00 -8.61914790E-01 -2.34156555E+00
 -1.79489655E+00 -2.82992319E+00  3.57339303E+00 -1.16039606E+01  1.87871913E+00
  1.87871913E+00  1.87871913E+00 -1.79489655E+00 -2.34156555E+00 -1.42862832E+00
 -1.46507292E+00 -6.26847120E-01 -1.44685062E+00 -1.43773947E+00 -7.90847820E-01
 -1.43773947E+00 -1.43773947E+00 -7.90847820E-01 -1.43773947E+00 -1.43773947E+00
 -7.90847820E-01 -1.43773947E+00 -1.43773947E+00 -7.90847820E-01 -1.43773947E+00
 -1.43773947E+00 -7.90847820E-01 -1.43773947E+00 -1.43773947E+00 -7.90847820E-01
 -1.43773947E+00 -1.43773947E+00 -7.90847820E-01 -1.43773947E+00 -1.43773947E+00
 -7.90847820E-01 -1.43773947E+00 -1.43773947E+00 -7.90847820E-01 -1.43773947E+00
 -1.43773947E+00 -7.90847820E-01 -1.43773947E+00 -1.40129487E+00 -6.81514020E-01
 -1.73294073E+00 -3.69912690E-01 -2.26412077E+00 -1.85411902E+00 -3.41303679E+00
  3.57339303E+00 -1.16039606E+01  2.01234326E+00  2.01234326E+00  2.01234326E+00
 -1.85411902E+00 -2.26412077E+00 -4.06357290E-01 -2.38712130E+00 -1.79489655E+00
 -3.24903609E+00  3.53694843E+00 -1.16221829E+01  2.03665180E+00  2.03665180E+00
  2.03665180E+00 -1.79489655E+00 -2.38712130E+00 -4.06357290E-01 -2.38712130E+00
 -1.79489655E+00 -3.24903609E+00  3.53694843E+00 -1.16221829E+01  2.03665180E+00
  2.03665180E+00  2.03665180E+00 -1.79489655E+00 -2.38712130E+00 -4.06357290E-01
 -2.38712130E+00 -1.79489655E+00 -3.24903609E+00  3.53694843E+00 -1.16221829E+01
  2.03665180E+00  2.03665180E+00  2.03665180E+00 -1.79489655E+00 -2.38712130E+00
 -4.06357290E-01 -2.38712130E+00 -1.79489655E+00 -3.24903609E+00  3.53694843E+00
 -1.16221829E+01  2.03665180E+00  2.03665180E+00  2.03665180E+00 -1.79489655E+00
 -2.38712130E+00 -4.06357290E-01 -2.38712130E+00 -1.79489655E+00 -3.24903609E+00
  3.53694843E+00 -1.16221829E+01  2.03665180E+00  2.03665180E+00  2.03665180E+00
 -1.79489655E+00 -2.38712130E+00 -4.06357290E-01 -2.38712130E+00 -1.79489655E+00
 -3.24903609E+00  3.53694843E+00 -1.16221829E+01  2.03665180E+00  2.03665180E+00
  2.03665180E+00 -1.79489655E+00 -2.38712130E+00 -4.06357290E-01 -2.38712130E+00
 -1.79489655E+00 -3.24903609E+00  3.53694843E+00 -1.16221829E+01  2.03665180E+00
  2.03665180E+00  2.03665180E+00 -1.79489655E+00 -2.38712130E+00 -4.06357290E-01
 -2.38712130E+00 -1.79489655E+00 -3.24903609E+00  3.53694843E+00 -1.16221829E+01
  2.03665180E+00  2.03665180E+00  2.03665180E+00 -1.79489655E+00 -2.38712130E+00
 -4.06357290E-01 -2.38712130E+00 -1.79489655E+00 -3.24903609E+00  3.53694843E+00
 -1.16221829E+01  2.03665180E+00  2.03665180E+00  2.03665180E+00 -1.79489655E+00
 -2.38712130E+00 -4.06357290E-01 -2.38712130E+00 -1.79489655E+00 -3.24903609E+00
  3.53694843E+00 -1.16221829E+01  2.03665180E+00  2.03665180E+00  2.03665180E+00
 -1.79489655E+00 -2.38712130E+00 -8.61914790E-01 -2.34156555E+00 -1.79489655E+00
 -2.82992319E+00  3.57339303E+00 -1.16039606E+01  1.87871913E+00  1.87871913E+00
  1.87871913E+00 -1.79489655E+00 -2.34156555E+00 -2.69690040E-01 -2.26867635E+00
 -1.99989743E+00 -3.20348034E+00  3.60072648E+00 -1.16312941E+01  1.92731800E+00
  1.92731800E+00  1.92731800E+00 -1.99989743E+00 -2.26867635E+00 -2.33245440E+00
 -2.33245440E+00 -8.61914790E-01 -2.34156555E+00 -1.79489655E+00 -2.82992319E+00
  3.57339303E+00 -1.16039606E+01  1.87871913E+00  1.87871913E+00  1.87871913E+00
 -1.79489655E+00 -2.34156555E+00 -4.06357290E-01 -2.38712130E+00 -1.79489655E+00
 -3.24903609E+00  3.53694843E+00 -1.16221829E+01  2.03665180E+00  2.03665180E+00
  2.03665180E+00 -1.79489655E+00 -2.38712130E+00 -4.06357290E-01 -2.38712130E+00
 -1.79489655E+00 -3.24903609E+00  3.53694843E+00 -1.16221829E+01  2.03665180E+00
  2.03665180E+00  2.03665180E+00 -1.79489655E+00 -2.38712130E+00 -4.06357290E-01
 -2.38712130E+00 -1.79489655E+00 -3.24903609E+00  3.53694843E+00 -1.16221829E+01
  2.03665180E+00  2.03665180E+00  2.03665180E+00 -1.79489655E+00 -2.38712130E+00
 -4.06357290E-01 -2.38712130E+00 -1.79489655E+00 -3.24903609E+00  3.53694843E+00
 -1.16221829E+01  2.03665180E+00  2.03665180E+00  2.03665180E+00 -1.79489655E+00
 -2.38712130E+00 -4.06357290E-01 -2.38712130E+00 -1.79489655E+00 -3.24903609E+00
  3.53694843E+00 -1.16221829E+01  2.03665180E+00  2.03665180E+00  2.03665180E+00
 -1.79489655E+00 -2.38712130E+00 -4.06357290E-01 -2.38712130E+00 -1.79489655E+00
 -3.24903609E+00  3.53694843E+00 -1.16221829E+01  2.03665180E+00  2.03665180E+00
  2.03665180E+00 -1.79489655E+00 -2.38712130E+00 -4.06357290E-01 -2.38712130E+00
 -1.79489655E+00 -3.24903609E+00  3.53694843E+00 -1.16221829E+01  2.03665180E+00
  2.03665180E+00  2.03665180E+00 -1.79489655E+00 -2.38712130E+00 -4.06357290E-01
 -2.38712130E+00 -1.79489655E+00 -3.24903609E+00  3.53694843E+00 -1.16221829E+01
  2.03665180E+00  2.03665180E+00  2.03665180E+00 -1.79489655E+00 -2.38712130E+00
 -4.06357290E-01 -2.38712130E+00 -1.79489655E+00 -3.24903609E+00  3.53694843E+00
 -1.16221829E+01  2.03665180E+00  2.03665180E+00  2.03665180E+00 -1.79489655E+00
 -2.38712130E+00 -4.06357290E-01 -2.38712130E+00 -1.79489655E+00 -3.24903609E+00
  3.53694843E+00 -1.16221829E+01  2.03665180E+00  2.03665180E+00  2.03665180E+00
 -1.79489655E+00 -2.38712130E+00 -3.69912690E-01 -2.26412077E+00 -1.85411902E+00
 -3.41303679E+00  3.57339303E+00 -1.16039606E+01  2.01234326E+00  2.01234326E+00
  2.01234326E+00 -1.85411902E+00 -2.26412077E+00  8.78752195E-01  8.78752195E-01
  8.78752195E-01  1.31608740E+00  9.69863695E-01  9.69863695E-01  1.01589323E+00
  1.01589323E+00  1.19811623E+00  1.01589323E+00  1.01589323E+00  1.01589323E+00
  1.01589323E+00  1.19811623E+00  1.01589323E+00  1.01589323E+00  1.01589323E+00
  1.01589323E+00  1.19811623E+00  1.01589323E+00  1.01589323E+00  1.01589323E+00
  1.01589323E+00  1.19811623E+00  1.01589323E+00  1.01589323E+00  1.01589323E+00
  1.01589323E+00  1.19811623E+00  1.01589323E+00  1.01589323E+00  1.01589323E+00
  1.01589323E+00  1.19811623E+00  1.01589323E+00  1.01589323E+00  1.01589323E+00
  1.01589323E+00  1.19811623E+00  1.01589323E+00  1.01589323E+00  1.01589323E+00
  1.01589323E+00  1.19811623E+00  1.01589323E+00  1.01589323E+00  1.01589323E+00
  1.01589323E+00  1.19811623E+00  1.01589323E+00  1.01589323E+00  1.01589323E+00
  1.01589323E+00  1.19811623E+00  1.01589323E+00  1.01589323E+00  9.63048555E-01
  9.63048555E-01  9.44826255E-01  1.07238236E+00  1.07238236E+00  1.13419240E+00
  1.13419240E+00  1.13419240E+00  1.13419240E+00  1.07238236E+00  1.07238236E+00
  9.44826255E-01  9.63048555E-01  9.63048555E-01  1.01589323E+00  1.01589323E+00
  1.19811623E+00  1.01589323E+00  1.01589323E+00  1.01589323E+00  1.01589323E+00
  1.19811623E+00  1.01589323E+00  1.01589323E+00  1.01589323E+00  1.01589323E+00
  1.19811623E+00  1.01589323E+00  1.01589323E+00  1.01589323E+00  1.01589323E+00
  1.19811623E+00  1.01589323E+00  1.01589323E+00  1.01589323E+00  1.01589323E+00
  1.19811623E+00  1.01589323E+00  1.01589323E+00  1.01589323E+00  1.01589323E+00
  1.19811623E+00  1.01589323E+00  1.01589323E+00  1.01589323E+00  1.01589323E+00
  1.19811623E+00  1.01589323E+00  1.01589323E+00  1.01589323E+00  1.01589323E+00
  1.19811623E+00  1.01589323E+00  1.01589323E+00  1.01589323E+00  1.01589323E+00
  1.19811623E+00  1.01589323E+00  1.01589323E+00  9.69863695E-01  9.69863695E-01
  1.31608740E+00  8.78752195E-01  8.78752195E-01  8.78752195E-01  2.88867189E+00
  2.45133669E+00  1.75342260E+00  1.75342260E+00  1.77468802E+00  1.77468802E+00
  1.77468802E+00  1.77468802E+00  1.77468802E+00  1.77468802E+00  1.77468802E+00
  1.77468802E+00  1.77468802E+00  2.45133669E+00  2.88867189E+00  2.79803416E+00
  2.54292197E+00  1.85411902E+00  1.85411902E+00  1.80349748E+00  1.80349748E+00
  1.80349748E+00  1.80349748E+00  1.80349748E+00  1.80349748E+00  1.80349748E+00
  1.80349748E+00  1.80349748E+00  2.54292197E+00  2.79803416E+00  2.79803416E+00
  2.54292197E+00  1.85411902E+00  1.85411902E+00  1.80349748E+00  1.80349748E+00
  1.80349748E+00  1.80349748E+00  1.80349748E+00  1.80349748E+00  1.80349748E+00
  1.80349748E+00  1.80349748E+00  2.54292197E+00  2.79803416E+00  2.79803416E+00
  2.54292197E+00  1.85411902E+00  1.85411902E+00  1.80349748E+00  1.80349748E+00
  1.80349748E+00  1.80349748E+00  1.80349748E+00  1.80349748E+00  1.80349748E+00
  1.80349748E+00  1.80349748E+00  2.54292197E+00  2.79803416E+00  2.79803416E+00
  2.54292197E+00  1.85411902E+00  1.85411902E+00  1.80349748E+00  1.80349748E+00
  1.80349748E+00  1.80349748E+00  1.80349748E+00  1.80349748E+00  1.80349748E+00
  1.80349748E+00  1.80349748E+00  2.54292197E+00  2.79803416E+00  2.79803416E+00
  2.54292197E+00  1.85411902E+00  1.85411902E+00  1.80349748E+00  1.80349748E+00
  1.80349748E+00  1.80349748E+00  1.80349748E+00  1.80349748E+00  1.80349748E+00
  1.80349748E+00  1.80349748E+00  2.54292197E+00  2.79803416E+00  2.79803416E+00
  2.54292197E+00  1.85411902E+00  1.85411902E+00  1.80349748E+00  1.80349748E+00
  1.80349748E+00  1.80349748E+00  1.80349748E+00  1.80349748E+00  1.80349748E+00
  1.80349748E+00  1.80349748E+00  2.54292197E+00  2.79803416E+00  2.79803416E+00
  2.54292197E+00  1.85411902E+00  1.85411902E+00  1.80349748E+00  1.80349748E+00
  1.80349748E+00  1.80349748E+00  1.80349748E+00  1.80349748E+00  1.80349748E+00
  1.80349748E+00  1.80349748E+00  2.54292197E+00  2.79803416E+00  2.79803416E+00
  2.54292197E+00  1.85411902E+00  1.85411902E+00  1.80349748E+00  1.80349748E+00
  1.80349748E+00  1.80349748E+00  1.80349748E+00  1.80349748E+00  1.80349748E+00
  1.80349748E+00  1.80349748E+00  2.54292197E+00  2.79803416E+00  2.79803416E+00
  2.54292197E+00  1.85411902E+00  1.85411902E+00  1.80349748E+00  1.80349748E+00
  1.80349748E+00  1.80349748E+00  1.80349748E+00  1.80349748E+00  1.80349748E+00
  1.80349748E+00  1.80349748E+00  2.54292197E+00  2.79803416E+00  2.68141145E+00
  2.72696720E+00  2.03816426E+00  2.03816426E+00  1.80127435E+00  1.80127435E+00
  1.80127435E+00  1.80127435E+00  1.80127435E+00  1.80127435E+00  1.80127435E+00
  1.80127435E+00  1.80127435E+00  2.72696720E+00  2.68141145E+00  2.95050015E+00
  2.53138725E+00  1.90636236E+00  1.90636236E+00  1.81271796E+00  1.81271796E+00
  1.81271796E+00  1.81271796E+00  1.81271796E+00  1.81271796E+00  1.81271796E+00
  1.81271796E+00  1.81271796E+00  2.53138725E+00  2.95050015E+00  2.58149857E+00
  2.58149857E+00  1.13419240E+00  1.13419240E+00  1.07238236E+00  1.07238236E+00
  9.44826255E-01  9.63048555E-01  9.63048555E-01  1.01589323E+00  1.01589323E+00
  1.19811623E+00  1.01589323E+00  1.01589323E+00  1.01589323E+00  1.01589323E+00
  1.19811623E+00  1.01589323E+00  1.01589323E+00  1.01589323E+00  1.01589323E+00
  1.19811623E+00  1.01589323E+00  1.01589323E+00  1.01589323E+00  1.01589323E+00
  1.19811623E+00  1.01589323E+00  1.01589323E+00  1.01589323E+00  1.01589323E+00
  1.19811623E+00  1.01589323E+00  1.01589323E+00  1.01589323E+00  1.01589323E+00
  1.19811623E+00  1.01589323E+00  1.01589323E+00  1.01589323E+00  1.01589323E+00
  1.19811623E+00  1.01589323E+00  1.01589323E+00  1.01589323E+00  1.01589323E+00
  1.19811623E+00  1.01589323E+00  1.01589323E+00  1.01589323E+00  1.01589323E+00
  1.19811623E+00  1.01589323E+00  1.01589323E+00  9.69863695E-01  9.69863695E-01
  1.31608740E+00  8.78752195E-01  8.78752195E-01  8.78752195E-01  2.88867189E+00
  2.45133669E+00  1.75342260E+00  1.75342260E+00  1.77468802E+00  1.77468802E+00
  1.77468802E+00  1.77468802E+00  1.77468802E+00  1.77468802E+00  1.77468802E+00
  1.77468802E+00  1.77468802E+00  2.45133669E+00  2.88867189E+00  2.79803416E+00
  2.54292197E+00  1.85411902E+00  1.85411902E+00  1.80349748E+00  1.80349748E+00
  1.80349748E+00  1.80349748E+00  1.80349748E+00  1.80349748E+00  1.80349748E+00
  1.80349748E+00  1.80349748E+00  2.54292197E+00  2.79803416E+00  2.79803416E+00
  2.54292197E+00  1.85411902E+00  1.85411902E+00  1.80349748E+00  1.80349748E+00
  1.80349748E+00  1.80349748E+00  1.80349748E+00  1.80349748E+00  1.80349748E+00
  1.80349748E+00  1.80349748E+00  2.54292197E+00  2.79803416E+00  2.79803416E+00
  2.54292197E+00  1.85411902E+00  1.85411902E+00  1.80349748E+00  1.80349748E+00
  1.80349748E+00  1.80349748E+00  1.80349748E+00  1.80349748E+00  1.80349748E+00
  1.80349748E+00  1.80349748E+00  2.54292197E+00  2.79803416E+00  2.79803416E+00
  2.54292197E+00  1.85411902E+00  1.85411902E+00  1.80349748E+00  1.80349748E+00
  1.80349748E+00  1.80349748E+00  1.80349748E+00  1.80349748E+00  1.80349748E+00
  1.80349748E+00  1.80349748E+00  2.54292197E+00  2.79803416E+00  2.79803416E+00
  2.54292197E+00  1.85411902E+00  1.85411902E+00  1.80349748E+00  1.80349748E+00
  1.80349748E+00  1.80349748E+00  1.80349748E+00  1.80349748E+00  1.80349748E+00
  1.80349748E+00  1.80349748E+00  2.54292197E+00  2.79803416E+00  2.79803416E+00
  2.54292197E+00  1.85411902E+00  1.85411902E+00  1.80349748E+00  1.80349748E+00
  1.80349748E+00  1.80349748E+00  1.80349748E+00  1.80349748E+00  1.80349748E+00
  1.80349748E+00  1.80349748E+00  2.54292197E+00  2.79803416E+00  2.79803416E+00
  2.54292197E+00  1.85411902E+00  1.85411902E+00  1.80349748E+00  1.80349748E+00
  1.80349748E+00  1.80349748E+00  1.80349748E+00  1.80349748E+00  1.80349748E+00
  1.80349748E+00  1.80349748E+00  2.54292197E+00  2.79803416E+00  2.79803416E+00
  2.54292197E+00  1.85411902E+00  1.85411902E+00  1.80349748E+00  1.80349748E+00
  1.80349748E+00  1.80349748E+00  1.80349748E+00  1.80349748E+00  1.80349748E+00
  1.80349748E+00  1.80349748E+00  2.54292197E+00  2.79803416E+00  2.79803416E+00
  2.54292197E+00  1.85411902E+00  1.85411902E+00  1.80349748E+00  1.80349748E+00
  1.80349748E+00  1.80349748E+00  1.80349748E+00  1.80349748E+00  1.80349748E+00
  1.80349748E+00  1.80349748E+00  2.54292197E+00  2.79803416E+00  2.68141145E+00
  2.72696720E+00  2.03816426E+00  2.03816426E+00  1.80127435E+00  1.80127435E+00
  1.80127435E+00  1.80127435E+00  1.80127435E+00  1.80127435E+00  1.80127435E+00
  1.80127435E+00  1.80127435E+00  2.72696720E+00  2.68141145E+00  1.13419240E+00
  1.13419240E+00  1.07238236E+00  1.07238236E+00  9.44826255E-01  9.63048555E-01
  9.63048555E-01  1.01589323E+00  1.01589323E+00  1.19811623E+00  1.01589323E+00
  1.01589323E+00  1.01589323E+00  1.01589323E+00  1.19811623E+00  1.01589323E+00
  1.01589323E+00  1.01589323E+00  1.01589323E+00  1.19811623E+00  1.01589323E+00
  1.01589323E+00  1.01589323E+00  1.01589323E+00  1.19811623E+00  1.01589323E+00
  1.01589323E+00  1.01589323E+00  1.01589323E+00  1.19811623E+00  1.01589323E+00
  1.01589323E+00  1.01589323E+00  1.01589323E+00  1.19811623E+00  1.01589323E+00
  1.01589323E+00  1.01589323E+00  1.01589323E+00  1.19811623E+00  1.01589323E+00
  1.01589323E+00  1.01589323E+00  1.01589323E+00  1.19811623E+00  1.01589323E+00
  1.01589323E+00  1.01589323E+00  1.01589323E+00  1.19811623E+00  1.01589323E+00
  1.01589323E+00  1.01589323E+00  1.01589323E+00  1.19811623E+00  1.01589323E+00
  1.01589323E+00  9.69863695E-01  9.69863695E-01  1.31608740E+00  8.78752195E-01
  8.78752195E-01  8.78752195E-01  2.88867189E+00  2.45133669E+00  1.75342260E+00
  1.75342260E+00  1.77468802E+00  1.77468802E+00  1.77468802E+00  1.77468802E+00
  1.77468802E+00  1.77468802E+00  1.77468802E+00  1.77468802E+00  1.77468802E+00
  2.45133669E+00  2.88867189E+00  2.79803416E+00  2.54292197E+00  1.85411902E+00
  1.85411902E+00  1.80349748E+00  1.80349748E+00  1.80349748E+00  1.80349748E+00
  1.80349748E+00  1.80349748E+00  1.80349748E+00  1.80349748E+00  1.80349748E+00
  2.54292197E+00  2.79803416E+00  2.79803416E+00  2.54292197E+00  1.85411902E+00
  1.85411902E+00  1.80349748E+00  1.80349748E+00  1.80349748E+00  1.80349748E+00
  1.80349748E+00  1.80349748E+00  1.80349748E+00  1.80349748E+00  1.80349748E+00
  2.54292197E+00  2.79803416E+00  2.79803416E+00  2.54292197E+00  1.85411902E+00
  1.85411902E+00  1.80349748E+00  1.80349748E+00  1.80349748E+00  1.80349748E+00
  1.80349748E+00  1.80349748E+00  1.80349748E+00  1.80349748E+00  1.80349748E+00
  2.54292197E+00  2.79803416E+00  2.79803416E+00  2.54292197E+00  1.85411902E+00
  1.85411902E+00  1.80349748E+00  1.80349748E+00  1.80349748E+00  1.80349748E+00
  1.80349748E+00  1.80349748E+00  1.80349748E+00  1.80349748E+00  1.80349748E+00
  2.54292197E+00  2.79803416E+00  2.79803416E+00  2.54292197E+00  1.85411902E+00
  1.85411902E+00  1.80349748E+00  1.80349748E+00  1.80349748E+00  1.80349748E+00
  1.80349748E+00  1.80349748E+00  1.80349748E+00  1.80349748E+00  1.80349748E+00
  2.54292197E+00  2.79803416E+00  2.79803416E+00  2.54292197E+00  1.85411902E+00
  1.85411902E+00  1.80349748E+00  1.80349748E+00  1.80349748E+00  1.80349748E+00
  1.80349748E+00  1.80349748E+00  1.80349748E+00  1.80349748E+00  1.80349748E+00
  2.54292197E+00  2.79803416E+00  2.79803416E+00  2.54292197E+00  1.85411902E+00
  1.85411902E+00  1.80349748E+00  1.80349748E+00  1.80349748E+00  1.80349748E+00
  1.80349748E+00  1.80349748E+00  1.80349748E+00  1.80349748E+00  1.80349748E+00
  2.54292197E+00  2.79803416E+00  2.79803416E+00  2.54292197E+00  1.85411902E+00
  1.85411902E+00  1.80349748E+00  1.80349748E+00  1.80349748E+00  1.80349748E+00
  1.80349748E+00  1.80349748E+00  1.80349748E+00  1.80349748E+00  1.80349748E+00
  2.54292197E+00  2.79803416E+00  2.79803416E+00  2.54292197E+00  1.85411902E+00
  1.85411902E+00  1.80349748E+00  1.80349748E+00  1.80349748E+00  1.80349748E+00
  1.80349748E+00  1.80349748E+00  1.80349748E+00  1.80349748E+00  1.80349748E+00
  2.54292197E+00  2.79803416E+00  2.79803416E+00  2.54292197E+00  1.85411902E+00
  1.85411902E+00  1.80349748E+00  1.80349748E+00  1.80349748E+00  1.80349748E+00
  1.80349748E+00  1.80349748E+00  1.80349748E+00  1.80349748E+00  1.80349748E+00
  2.54292197E+00  2.79803416E+00  2.68141145E+00  2.72696720E+00  2.03816426E+00
  2.03816426E+00  1.80127435E+00  1.80127435E+00  1.80127435E+00  1.80127435E+00
  1.80127435E+00  1.80127435E+00  1.80127435E+00  1.80127435E+00  1.80127435E+00
  2.72696720E+00  2.68141145E+00  2.95050015E+00  2.53138725E+00  1.90636236E+00
  1.90636236E+00  1.81271796E+00  1.81271796E+00  1.81271796E+00  1.81271796E+00
  1.81271796E+00  1.81271796E+00  1.81271796E+00  1.81271796E+00  1.81271796E+00
  2.53138725E+00  2.95050015E+00  2.58149857E+00  2.58149857E+00  2.68141145E+00
  2.72696720E+00  2.03816426E+00  2.03816426E+00  1.80127435E+00  1.80127435E+00
  1.80127435E+00  1.80127435E+00  1.80127435E+00  1.80127435E+00  1.80127435E+00
  1.80127435E+00  1.80127435E+00  2.72696720E+00  2.68141145E+00  2.79803416E+00
  2.54292197E+00  1.85411902E+00  1.85411902E+00  1.80349748E+00  1.80349748E+00
  1.80349748E+00  1.80349748E+00  1.80349748E+00  1.80349748E+00  1.80349748E+00
  1.80349748E+00  1.80349748E+00  2.54292197E+00  2.79803416E+00  2.79803416E+00
  2.54292197E+00  1.85411902E+00  1.85411902E+00  1.80349748E+00  1.80349748E+00
  1.80349748E+00  1.80349748E+00  1.80349748E+00  1.80349748E+00  1.80349748E+00
  1.80349748E+00  1.80349748E+00  2.54292197E+00  2.79803416E+00  2.79803416E+00
  2.54292197E+00  1.85411902E+00  1.85411902E+00  1.80349748E+00  1.80349748E+00
  1.80349748E+00  1.80349748E+00  1.80349748E+00  1.80349748E+00  1.80349748E+00
  1.80349748E+00  1.80349748E+00  2.54292197E+00  2.79803416E+00  2.79803416E+00
  2.54292197E+00  1.85411902E+00  1.85411902E+00  1.80349748E+00  1.80349748E+00
  1.80349748E+00  1.80349748E+00  1.80349748E+00  1.80349748E+00  1.80349748E+00
  1.80349748E+00  1.80349748E+00  2.54292197E+00  2.79803416E+00  2.79803416E+00
  2.54292197E+00  1.85411902E+00  1.85411902E+00  1.80349748E+00  1.80349748E+00
  1.80349748E+00  1.80349748E+00  1.80349748E+00  1.80349748E+00  1.80349748E+00
  1.80349748E+00  1.80349748E+00  2.54292197E+00  2.79803416E+00  2.79803416E+00
  2.54292197E+00  1.85411902E+00  1.85411902E+00  1.80349748E+00  1.80349748E+00
  1.80349748E+00  1.80349748E+00  1.80349748E+00  1.80349748E+00  1.80349748E+00
  1.80349748E+00  1.80349748E+00  2.54292197E+00  2.79803416E+00  2.79803416E+00
  2.54292197E+00  1.85411902E+00  1.85411902E+00  1.80349748E+00  1.80349748E+00
  1.80349748E+00  1.80349748E+00  1.80349748E+00  1.80349748E+00  1.80349748E+00
  1.80349748E+00  1.80349748E+00  2.54292197E+00  2.79803416E+00  2.79803416E+00
  2.54292197E+00  1.85411902E+00  1.85411902E+00  1.80349748E+00  1.80349748E+00
  1.80349748E+00  1.80349748E+00  1.80349748E+00  1.80349748E+00  1.80349748E+00
  1.80349748E+00  1.80349748E+00  2.54292197E+00  2.79803416E+00  2.79803416E+00
  2.54292197E+00  1.85411902E+00  1.85411902E+00  1.80349748E+00  1.80349748E+00
  1.80349748E+00  1.80349748E+00  1.80349748E+00  1.80349748E+00  1.80349748E+00
  1.80349748E+00  1.80349748E+00  2.54292197E+00  2.79803416E+00  2.79803416E+00
  2.54292197E+00  1.85411902E+00  1.85411902E+00  1.80349748E+00  1.80349748E+00
  1.80349748E+00  1.80349748E+00  1.80349748E+00  1.80349748E+00  1.80349748E+00
  1.80349748E+00  1.80349748E+00  2.54292197E+00  2.79803416E+00  2.88867189E+00
  2.45133669E+00  1.75342260E+00  1.75342260E+00  1.77468802E+00  1.77468802E+00
  1.77468802E+00  1.77468802E+00  1.77468802E+00  1.77468802E+00  1.77468802E+00
  1.77468802E+00  1.77468802E+00  2.45133669E+00  2.88867189E+00  2.62364675E+01
 -3.07694469E+00 -3.07699936E+00 -3.70566871E+00 -3.70566871E+00 -3.47788996E+00
 -3.47788996E+00 -4.12478161E+00 -4.12478161E+00 -3.41411191E+00 -3.41411191E+00
 -4.49833876E+00 -4.49833876E+00 -3.28655581E+00 -3.28655581E+00 -3.85144711E+00
 -3.85144711E+00 -3.85144711E+00 -1.26681430E+01 -1.26681430E+01 -1.26681430E+01
  7.31807568E+00  6.55273908E+00  6.07895928E+00  6.37051608E+00  6.37051608E+00
  6.23931552E+00  6.42518298E+00  1.09133355E+01 -1.82223000E+01 -1.82223000E+01
 -1.82223000E+01 -1.82223000E+01 -1.82223000E+01 -1.82223000E+01 -1.82223000E+01
 -1.82223000E+01 -1.82223000E+01 -1.82223000E+01 -1.82223000E+01 -1.82223000E+01
 -1.82223000E+01 -1.82223000E+01 -1.82223000E+01 -1.82223000E+01 -1.82223000E+01
 -1.82223000E+01 -1.82223000E+01 -1.82223000E+01 -1.82223000E+01 -1.82223000E+01
 -1.82223000E+01 -1.82223000E+01 -1.82223000E+01 -1.82223000E+01 -1.82223000E+01
 -1.82223000E+01 -1.82223000E+01 -1.82223000E+01 -1.82223000E+01 -1.82223000E+01
 -1.82223000E+01 -1.82223000E+01 -1.82223000E+01 -1.82223000E+01 -1.82223000E+01
 -1.82223000E+01 -1.82223000E+01 -1.82223000E+01 -1.82223000E+01 -1.82223000E+01
 -1.82223000E+01 -1.82223000E+01 -1.82223000E+01 -1.82223000E+01 -1.82223000E+01
%FLAG ATOMIC_NUMBER                                                             
%FORMAT(10I8)                                                                   
       6       6       6       6       6       6       6       6       6       6
       6       6       6       6       6       6       6       6       6       6
       6       6       6       6       6       6       6       6       6       6
       6       6       6       6       6       6       6       6       6       6
       6       6       6       6       6       6       6       6       6       6
       6       6       6       6       6       6       6       6       6       6
       6       6       6       6       6       6       6       6       6       6
       6       6       6       6       6       6       6       7       6       6
       6       6       6       6       6       6       6       6       7       6
       6       6       6       6       6       6       6       6       6       7
       6       6       6       6       6       6       6       6       6       6
       7       6       6       6       6       6       6       6       6       6
       6       7       6       6       6       6       6       6       6       6
       6       6       7       6       6       6       6       6       6       6
       6       6       6       7       6       6       6       6       6       6
       6       6       6       6       7       6       6       6       6       6
       6       6       6       6       6       7       6       6       6       6
       6       6       6       6       6       6       7       6       6       6
       6       6       6       6       6       6       6       7       6       6
       6       6       6       6       6       6       6       6       7       6
       6       6       6       6       6       6       6       6       6       6
       6       6       6       6       6       6       6       6       6       6
       6       6       6       6       6       6       6       6       6       6
       6       6       6       6       6       6       6       6       6       6
       6       6       6       6       6       6       6       6       7       6
       6       6       6       6       6       6       6       6       6       7
       6       6       6       6       6       6       6       6       6       6
       7       6       6       6       6       6       6       6       6       6
       6       7       6       6       6       6       6       6       6       6
       6       6       7       6       6       6       6       6       6       6
       6       6       6       7       6       6       6       6       6       6
       6       6       6       6       7       6       6       6       6       6
       6       6       6       6       6       7       6       6       6       6
       6       6       6       6       6       6       7       6       6       6
       6       6       6       6       6       6       6       7       6       6
       6       6       6       6       6       6       6       6       7       6
       6       6       6       6       6       6       6       6       6       6
       6       6       6       6       6       6       6       6       6       6
       6       6       6       6       6       6       6       6       6       6
       6       6       6       6       6       6       6       6       6       6
       6       6       6       6       6       6       7       6       6       6
       6       6       6       6       6       6       6       7       6       6
       6       6       6       6       6       6       6       6       7       6
       6       6       6       6       6       6       6       6       6       7
       6       6       6       6       6       6       6       6       6       6
       7       6       6       6       6       6       6       6       6       6
       6       7       6       6       6       6       6       6       6       6
       6       6       7       6       6       6       6       6       6       6
       6       6       6       7       6       6       6       6       6       6
       6       6       6       6       7       6       6       6       6       6
       6       6       6       6       6       7       6       6       6       6
       6       6       6       6       6       6       7       6       6       6
       6       6       6       6       6       6       6       7       6       6
       6       6       6       6       6       6       6       6       7       6
       6       6       6       6       6       6       6       6       6       6
       6       7       6       6       6       6       6       6       6       6
       6       6       7       6       6       6       6       6       6       6
       6       6       6       7       6       6       6       6       6       6
       6       6       6       6       7       6       6       6       6       6
       6       6       6       6       6       7       6       6       6       6
       6       6       6       6       6       6       7       6       6       6
       6       6       6       6       6       6       6       7       6       6
       6       6       6       6       6       6       6       6       7       6
       6       6       6       6       6       6       6       6       6       7
       6       6       6       6       6       6       6       6       6       6
       7       6       6       6       6       6       6       6       6       6
       6       7       6       6       6       6       6       6       6       6
       6       6       7       6       6       6       6       6       1       1
       1       1       1       1       1       1       1       1       1       1
       1       1       1       1       1       1       1       1       1       1
       1       1       1       1       1       1       1       1       1       1
       1       1       1       1       1       1       1       1       1       1
       1       1       1       1       1       1       1       1       1       1
       1       1       1       1       1       1       1       1       1       1
       1       1       1       1       1       1       1       1       1       1
       1       1       1       1       1       1       1       1       1       1
       1       1       1       1       1       1       1       1       1       1
       1       1       1       1       1       1       1       1       1       1
       1       1       1       1       1       1       1       1       1       1
       1       1       1       1       1       1       1       1       1       1
       1       1       1       1       1       1       1       1       1       1
       1       1       1       1       1       1       1       1       1       1
       1       1       1       1       1       1       1       1       1       1
       1       1       1       1       1       1       1       1       1       1
       1       1       1       1       1       1       1       1       1       1
       1       1       1       1       1       1       1       1       1       1
       1       1       1       1       1       1       1       1       1       1
       1       1       1       1       1       1       1       1       1       1
       1       1       1       1       1       1       1       1       1       1
       1       1       1       1       1       1       1       1       1       1
       1       1       1       1       1       1       1       1       1       1
       1       1       1       1       1       1       1       1       1       1
       1       1       1       1       1       1       1       1       1       1
       1       1       1       1       1       1       1       1       1       1
       1       1       1       1       1       1       1       1       1       1
       1       1       1       1       1       1       1       1       1       1
       1       1       1       1       1       1       1       1       1       1
       1       1       1       1       1       1       1       1       1       1
       1       1       1       1       1       1       1       1       1       1
       1       1       1       1       1       1       1       1       1       1
       1       1       1       1       1       1       1       1       1       1
       1       1       1       1       1       1       1       1       1       1
       1       1       1       1       1       1       1       1       1       1
       1       1       1       1       1       1       1       1       1       1
       1       1       1       1       1       1       1       1       1       1
       1       1       1       1       1       1       1       1       1       1
       1       1       1       1       1       1       1       1       1       1
       1       1       1       1       1       1       1       1       1       1
       1       1       1       1       1       1       1       1       1       1
       1       1       1       1       1       1       1       1       1       1
       1       1       1       1       1       1       1       1       1       1
       1       1       1       1       1       1       1       1       1       1
       1       1       1       1       1       1       1       1       1       1
       1       1       1       1       1       1       1       1       1       1
       1       1       1       1       1       1       1       1       1       1
       1       1       1       1       1       1       1       1       1       1
       1       1       1       1       1       1       1       1       1       1
       1       1       1       1       1       1       1       1       1       1
       1       1       1       1       1       1       1       1       1       1
       1       1       1       1       1       1       1       1       1       1
       1       1       1       1       1       1       1       1       1       1
       1       1       1       1       1       1       1       1       1       1
       1       1       1       1       1       1       1       1       1       1
       1       1       1       1       1       1       1       1       1       1
       1       1       1       1       1       1       1       1       1       1
       1       1       1       1       1       1       1       1       1       1
       1       1       1       1       1       1       1       1       1       1
       1       1       1       1       1       1       1       1       1       1
       1       1       1       1       1       1       1       1       1       1
       1       1       1       1       1       1       1       1       1       1
       1       1       1       1       1       1       1       1       1       1
       1       1       1       1       1       1       1       1       1       1
       1       1       1       1       1       1       1       1       1       1
       1       1       1       1       1       1       1       1       1       1
       1       1       1       1       1       1       1       1       1       1
       1       1       1       1       1       1       1       1       1       1
       1       1       1       1       1       1       1       1       1       1
       1       1       1       1       1       1       1       1       1       1
       1       1       1       1       1       1       1       1       1       1
       1       1       1       1       1       1       1       1       1       1
       1       1       1       1       1       1       1       1       1       1
       1       1       1       1       1       1       1       1       1       1
       1       1       1       1       1       1       1       1       1       1
       1       1       1       1       1       1       1       1       1       1
       1       1       1       1       1       1       1       1       1       1
       1       1       1       1       1       1       1       1       1       1
       1       1       1       1       1       1       1       1       1       1
       1       1       1       1       1       1       1       1       1       1
       1       1       1       1       1       1       1       1       1       1
       1       1       1       1       1       1       1       1       1       1
       1       1       1       1       1       1       1       1       1       1
       1       1       1       1       1       1       1       1       1       1
       1       1       1       1       1       1       1       1       1       1
       1       1       1       1       1       1       1       1       1       1
       1       1       1       1       1       1       1       1       1       1
       1       1       1       1       1       1       1       1       1       1
       1       1       1       1       1       1       1       1       1       1
       1       1       1       1       1       1       1       1       1       1
       1       1       1       1       1       1       1       1       1       1
       1       1       1       1       1       1       1       1       1       1
       1       1       1       1       1       1       1       1       1       1
       1       1       1       1       1       1       1       1       1       1
       1       1       1       1       1       1       1       1       1       1
       1       1       1       1       1       1       1       1       1       1
       1       1       1       1      16       9       9       9       9       9
       9       9       9       9       9       9       9       9       9       9
       9       9       8       8       8       6       6       6       6       6
       6       6       6      17      17      17      17      17      17      17
      17      17      17      17      17      17      17      17      17      17
      17      17      17      17      17      17      17      17      17      17
      17      17      17      17      17      17      17      17      17      17
      17      17      17      17      17      17      17      17      17      17
%FLAG MASS                                                                      
%FORMAT(5E16.8)                                                                 
  1.20100000E+01  1.20100000E+01  1.20100000E+01  1.20100000E+01  1.20100000E+01
  1.20100000E+01  1.20100000E+01  1.20100000E+01  1.20100000E+01  1.20100000E+01
  1.20100000E+01  1.20100000E+01  1.20100000E+01  1.20100000E+01  1.20100000E+01
  1.20100000E+01  1.20100000E+01  1.20100000E+01  1.20100000E+01  1.20100000E+01
  1.20100000E+01  1.20100000E+01  1.20100000E+01  1.20100000E+01  1.20100000E+01
  1.20100000E+01  1.20100000E+01  1.20100000E+01  1.20100000E+01  1.20100000E+01
  1.20100000E+01  1.20100000E+01  1.20100000E+01  1.20100000E+01  1.20100000E+01
  1.20100000E+01  1.20100000E+01  1.20100000E+01  1.20100000E+01  1.20100000E+01
  1.20100000E+01  1.20100000E+01  1.20100000E+01  1.20100000E+01  1.20100000E+01
  1.20100000E+01  1.20100000E+01  1.20100000E+01  1.20100000E+01  1.20100000E+01
  1.20100000E+01  1.20100000E+01  1.20100000E+01  1.20100000E+01  1.20100000E+01
  1.20100000E+01  1.20100000E+01  1.20100000E+01  1.20100000E+01  1.20100000E+01
  1.20100000E+01  1.20100000E+01  1.20100000E+01  1.20100000E+01  1.20100000E+01
  1.20100000E+01  1.20100000E+01  1.20100000E+01  1.20100000E+01  1.20100000E+01
  1.20100000E+01  1.20100000E+01  1.20100000E+01  1.20100000E+01  1.20100000E+01
  1.20100000E+01  1.20100000E+01  1.40100000E+01  1.20100000E+01  1.20100000E+01
  1.20100000E+01  1.20100000E+01  1.20100000E+01  1.20100000E+01  1.20100000E+01
  1.20100000E+01  1.20100000E+01  1.20100000E+01  1.40100000E+01  1.20100000E+01
  1.20100000E+01  1.20100000E+01  1.20100000E+01  1.20100000E+01  1.20100000E+01
  1.20100000E+01  1.20100000E+01  1.20100000E+01  1.20100000E+01  1.40100000E+01
  1.20100000E+01  1.20100000E+01  1.20100000E+01  1.20100000E+01  1.20100000E+01
  1.20100000E+01  1.20100000E+01  1.20100000E+01  1.20100000E+01  1.20100000E+01
  1.40100000E+01  1.20100000E+01  1.20100000E+01  1.20100000E+01  1.20100000E+01
  1.20100000E+01  1.20100000E+01  1.20100000E+01  1.20100000E+01  1.20100000E+01
  1.20100000E+01  1.40100000E+01  1.20100000E+01  1.20100000E+01  1.20100000E+01
  1.20100000E+01  1.20100000E+01  1.20100000E+01  1.20100000E+01  1.20100000E+01
  1.20100000E+01  1.20100000E+01  1.40100000E+01  1.20100000E+01  1.20100000E+01
  1.20100000E+01  1.20100000E+01  1.20100000E+01  1.20100000E+01  1.20100000E+01
  1.20100000E+01  1.20100000E+01  1.20100000E+01  1.40100000E+01  1.20100000E+01
  1.20100000E+01  1.20100000E+01  1.20100000E+01  1.20100000E+01  1.20100000E+01
  1.20100000E+01  1.20100000E+01  1.20100000E+01  1.20100000E+01  1.40100000E+01
  1.20100000E+01  1.20100000E+01  1.20100000E+01  1.20100000E+01  1.20100000E+01
  1.20100000E+01  1.20100000E+01  1.20100000E+01  1.20100000E+01  1.20100000E+01
  1.40100000E+01  1.20100000E+01  1.20100000E+01  1.20100000E+01  1.20100000E+01
  1.20100000E+01  1.20100000E+01  1.20100000E+01  1.20100000E+01  1.20100000E+01
  1.20100000E+01  1.40100000E+01  1.20100000E+01  1.20100000E+01  1.20100000E+01
  1.20100000E+01  1.20100000E+01  1.20100000E+01  1.20100000E+01  1.20100000E+01
  1.20100000E+01  1.20100000E+01  1.40100000E+01  1.20100000E+01  1.20100000E+01
  1.20100000E+01  1.20100000E+01  1.20100000E+01  1.20100000E+01  1.20100000E+01
  1.20100000E+01  1.20100000E+01  1.20100000E+01  1.40100000E+01  1.20100000E+01
  1.20100000E+01  1.20100000E+01  1.20100000E+01  1.20100000E+01  1.20100000E+01
  1.20100000E+01  1.20100000E+01  1.20100000E+01  1.20100000E+01  1.20100000E+01
  1.20100000E+01  1.20100000E+01  1.20100000E+01  1.20100000E+01  1.20100000E+01
  1.20100000E+01  1.20100000E+01  1.20100000E+01  1.20100000E+01  1.20100000E+01
  1.20100000E+01  1.20100000E+01  1.20100000E+01  1.20100000E+01  1.20100000E+01
  1.20100000E+01  1.20100000E+01  1.20100000E+01  1.20100000E+01  1.20100000E+01
  1.20100000E+01  1.20100000E+01  1.20100000E+01  1.20100000E+01  1.20100000E+01
  1.20100000E+01  1.20100000E+01  1.20100000E+01  1.20100000E+01  1.20100000E+01
  1.20100000E+01  1.20100000E+01  1.20100000E+01  1.20100000E+01  1.20100000E+01
  1.20100000E+01  1.20100000E+01  1.20100000E+01  1.40100000E+01  1.20100000E+01
  1.20100000E+01  1.20100000E+01  1.20100000E+01  1.20100000E+01  1.20100000E+01
  1.20100000E+01  1.20100000E+01  1.20100000E+01  1.20100000E+01  1.40100000E+01
  1.20100000E+01  1.20100000E+01  1.20100000E+01  1.20100000E+01  1.20100000E+01
  1.20100000E+01  1.20100000E+01  1.20100000E+01  1.20100000E+01  1.20100000E+01
  1.40100000E+01  1.20100000E+01  1.20100000E+01  1.20100000E+01  1.20100000E+01
  1.20100000E+01  1.20100000E+01  1.20100000E+01  1.20100000E+01  1.20100000E+01
  1.20100000E+01  1.40100000E+01  1.20100000E+01  1.20100000E+01  1.20100000E+01
  1.20100000E+01  1.20100000E+01  1.20100000E+01  1.20100000E+01  1.20100000E+01
  1.20100000E+01  1.20100000E+01  1.40100000E+01  1.20100000E+01  1.20100000E+01
  1.20100000E+01  1.20100000E+01  1.20100000E+01  1.20100000E+01  1.20100000E+01
  1.20100000E+01  1.20100000E+01  1.20100000E+01  1.40100000E+01  1.20100000E+01
  1.20100000E+01  1.20100000E+01  1.20100000E+01  1.20100000E+01  1.20100000E+01
  1.20100000E+01  1.20100000E+01  1.20100000E+01  1.20100000E+01  1.40100000E+01
  1.20100000E+01  1.20100000E+01  1.20100000E+01  1.20100000E+01  1.20100000E+01
  1.20100000E+01  1.20100000E+01  1.20100000E+01  1.20100000E+01  1.20100000E+01
  1.40100000E+01  1.20100000E+01  1.20100000E+01  1.20100000E+01  1.20100000E+01
  1.20100000E+01  1.20100000E+01  1.20100000E+01  1.20100000E+01  1.20100000E+01
  1.20100000E+01  1.40100000E+01  1.20100000E+01  1.20100000E+01  1.20100000E+01
  1.20100000E+01  1.20100000E+01  1.20100000E+01  1.20100000E+01  1.20100000E+01
  1.20100000E+01  1.20100000E+01  1.40100000E+01  1.20100000E+01  1.20100000E+01
  1.20100000E+01  1.20100000E+01  1.20100000E+01  1.20100000E+01  1.20100000E+01
  1.20100000E+01  1.20100000E+01  1.20100000E+01  1.40100000E+01  1.20100000E+01
  1.20100000E+01  1.20100000E+01  1.20100000E+01  1.20100000E+01  1.20100000E+01
  1.20100000E+01  1.20100000E+01  1.20100000E+01  1.20100000E+01  1.20100000E+01
  1.20100000E+01  1.20100000E+01  1.20100000E+01  1.20100000E+01  1.20100000E+01
  1.20100000E+01  1.20100000E+01  1.20100000E+01  1.20100000E+01  1.20100000E+01
  1.20100000E+01  1.20100000E+01  1.20100000E+01  1.20100000E+01  1.20100000E+01
  1.20100000E+01  1.20100000E+01  1.20100000E+01  1.20100000E+01  1.20100000E+01
  1.20100000E+01  1.20100000E+01  1.20100000E+01  1.20100000E+01  1.20100000E+01
  1.20100000E+01  1.20100000E+01  1.20100000E+01  1.20100000E+01  1.20100000E+01
  1.20100000E+01  1.20100000E+01  1.20100000E+01  1.20100000E+01  1.20100000E+01
  1.20100000E+01  1.40100000E+01  1.20100000E+01  1.20100000E+01  1.20100000E+01
  1.20100000E+01  1.20100000E+01  1.20100000E+01  1.20100000E+01  1.20100000E+01
  1.20100000E+01  1.20100000E+01  1.40100000E+01  1.20100000E+01  1.20100000E+01
  1.20100000E+01  1.20100000E+01  1.20100000E+01  1.20100000E+01  1.20100000E+01
  1.20100000E+01  1.20100000E+01  1.20100000E+01  1.40100000E+01  1.20100000E+01
  1.20100000E+01  1.20100000E+01  1.20100000E+01  1.20100000E+01  1.20100000E+01
  1.20100000E+01  1.20100000E+01  1.20100000E+01  1.20100000E+01  1.40100000E+01
  1.20100000E+01  1.20100000E+01  1.20100000E+01  1.20100000E+01  1.20100000E+01
  1.20100000E+01  1.20100000E+01  1.20100000E+01  1.20100000E+01  1.20100000E+01
  1.40100000E+01  1.20100000E+01  1.20100000E+01  1.20100000E+01  1.20100000E+01
  1.20100000E+01  1.20100000E+01  1.20100000E+01  1.20100000E+01  1.20100000E+01
  1.20100000E+01  1.40100000E+01  1.20100000E+01  1.20100000E+01  1.20100000E+01
  1.20100000E+01  1.20100000E+01  1.20100000E+01  1.20100000E+01  1.20100000E+01
  1.20100000E+01  1.20100000E+01  1.40100000E+01  1.20100000E+01  1.20100000E+01
  1.20100000E+01  1.20100000E+01  1.20100000E+01  1.20100000E+01  1.20100000E+01
  1.20100000E+01  1.20100000E+01  1.20100000E+01  1.40100000E+01  1.20100000E+01
  1.20100000E+01  1.20100000E+01  1.20100000E+01  1.20100000E+01  1.20100000E+01
  1.20100000E+01  1.20100000E+01  1.20100000E+01  1.20100000E+01  1.40100000E+01
  1.20100000E+01  1.20100000E+01  1.20100000E+01  1.20100000E+01  1.20100000E+01
  1.20100000E+01  1.20100000E+01  1.20100000E+01  1.20100000E+01  1.20100000E+01
  1.40100000E+01  1.20100000E+01  1.20100000E+01  1.20100000E+01  1.20100000E+01
  1.20100000E+01  1.20100000E+01  1.20100000E+01  1.20100000E+01  1.20100000E+01
  1.20100000E+01  1.40100000E+01  1.20100000E+01  1.20100000E+01  1.20100000E+01
  1.20100000E+01  1.20100000E+01  1.20100000E+01  1.20100000E+01  1.20100000E+01
  1.20100000E+01  1.20100000E+01  1.40100000E+01  1.20100000E+01  1.20100000E+01
  1.20100000E+01  1.20100000E+01  1.20100000E+01  1.20100000E+01  1.20100000E+01
  1.20100000E+01  1.20100000E+01  1.20100000E+01  1.40100000E+01  1.20100000E+01
  1.20100000E+01  1.20100000E+01  1.20100000E+01  1.20100000E+01  1.20100000E+01
  1.20100000E+01  1.20100000E+01  1.20100000E+01  1.20100000E+01  1.20100000E+01
  1.20100000E+01  1.40100000E+01  1.20100000E+01  1.20100000E+01  1.20100000E+01
  1.20100000E+01  1.20100000E+01  1.20100000E+01  1.20100000E+01  1.20100000E+01
  1.20100000E+01  1.20100000E+01  1.40100000E+01  1.20100000E+01  1.20100000E+01
  1.20100000E+01  1.20100000E+01  1.20100000E+01  1.20100000E+01  1.20100000E+01
  1.20100000E+01  1.20100000E+01  1.20100000E+01  1.40100000E+01  1.20100000E+01
  1.20100000E+01  1.20100000E+01  1.20100000E+01  1.20100000E+01  1.20100000E+01
  1.20100000E+01  1.20100000E+01  1.20100000E+01  1.20100000E+01  1.40100000E+01
  1.20100000E+01  1.20100000E+01  1.20100000E+01  1.20100000E+01  1.20100000E+01
  1.20100000E+01  1.20100000E+01  1.20100000E+01  1.20100000E+01  1.20100000E+01
  1.40100000E+01  1.20100000E+01  1.20100000E+01  1.20100000E+01  1.20100000E+01
  1.20100000E+01  1.20100000E+01  1.20100000E+01  1.20100000E+01  1.20100000E+01
  1.20100000E+01  1.40100000E+01  1.20100000E+01  1.20100000E+01  1.20100000E+01
  1.20100000E+01  1.20100000E+01  1.20100000E+01  1.20100000E+01  1.20100000E+01
  1.20100000E+01  1.20100000E+01  1.40100000E+01  1.20100000E+01  1.20100000E+01
  1.20100000E+01  1.20100000E+01  1.20100000E+01  1.20100000E+01  1.20100000E+01
  1.20100000E+01  1.20100000E+01  1.20100000E+01  1.40100000E+01  1.20100000E+01
  1.20100000E+01  1.20100000E+01  1.20100000E+01  1.20100000E+01  1.20100000E+01
  1.20100000E+01  1.20100000E+01  1.20100000E+01  1.20100000E+01  1.40100000E+01
  1.20100000E+01  1.20100000E+01  1.20100000E+01  1.20100000E+01  1.20100000E+01
  1.20100000E+01  1.20100000E+01  1.20100000E+01  1.20100000E+01  1.20100000E+01
  1.40100000E+01  1.20100000E+01  1.20100000E+01  1.20100000E+01  1.20100000E+01
  1.20100000E+01  1.20100000E+01  1.20100000E+01  1.20100000E+01  1.20100000E+01
  1.20100000E+01  1.40100000E+01  1.20100000E+01  1.20100000E+01  1.20100000E+01
  1.20100000E+01  1.20100000E+01  1.20100000E+01  1.20100000E+01  1.20100000E+01
  1.20100000E+01  1.20100000E+01  1.40100000E+01  1.20100000E+01  1.20100000E+01
  1.20100000E+01  1.20100000E+01  1.20100000E+01  1.00800000E+00  1.00800000E+00
  1.00800000E+00  1.00800000E+00  1.00800000E+00  1.00800000E+00  1.00800000E+00
  1.00800000E+00  1.00800000E+00  1.00800000E+00  1.00800000E+00  1.00800000E+00
  1.00800000E+00  1.00800000E+00  1.00800000E+00  1.00800000E+00  1.00800000E+00
  1.00800000E+00  1.00800000E+00  1.00800000E+00  1.00800000E+00  1.00800000E+00
  1.00800000E+00  1.00800000E+00  1.00800000E+00  1.00800000E+00  1.00800000E+00
  1.00800000E+00  1.00800000E+00  1.00800000E+00  1.00800000E+00  1.00800000E+00
  1.00800000E+00  1.00800000E+00  1.00800000E+00  1.00800000E+00  1.00800000E+00
  1.00800000E+00  1.00800000E+00  1.00800000E+00  1.00800000E+00  1.00800000E+00
  1.00800000E+00  1.00800000E+00  1.00800000E+00  1.00800000E+00  1.00800000E+00
  1.00800000E+00  1.00800000E+00  1.00800000E+00  1.00800000E+00  1.00800000E+00
  1.00800000E+00  1.00800000E+00  1.00800000E+00  1.00800000E+00  1.00800000E+00
  1.00800000E+00  1.00800000E+00  1.00800000E+00  1.00800000E+00  1.00800000E+00
  1.00800000E+00  1.00800000E+00  1.00800000E+00  1.00800000E+00  1.00800000E+00
  1.00800000E+00  1.00800000E+00  1.00800000E+00  1.00800000E+00  1.00800000E+00
  1.00800000E+00  1.00800000E+00  1.00800000E+00  1.00800000E+00  1.00800000E+00
  1.00800000E+00  1.00800000E+00  1.00800000E+00  1.00800000E+00  1.00800000E+00
  1.00800000E+00  1.00800000E+00  1.00800000E+00  1.00800000E+00  1.00800000E+00
  1.00800000E+00  1.00800000E+00  1.00800000E+00  1.00800000E+00  1.00800000E+00
  1.00800000E+00  1.00800000E+00  1.00800000E+00  1.00800000E+00  1.00800000E+00
  1.00800000E+00  1.00800000E+00  1.00800000E+00  1.00800000E+00  1.00800000E+00
  1.00800000E+00  1.00800000E+00  1.00800000E+00  1.00800000E+00  1.00800000E+00
  1.00800000E+00  1.00800000E+00  1.00800000E+00  1.00800000E+00  1.00800000E+00
  1.00800000E+00  1.00800000E+00  1.00800000E+00  1.00800000E+00  1.00800000E+00
  1.00800000E+00  1.00800000E+00  1.00800000E+00  1.00800000E+00  1.00800000E+00
  1.00800000E+00  1.00800000E+00  1.00800000E+00  1.00800000E+00  1.00800000E+00
  1.00800000E+00  1.00800000E+00  1.00800000E+00  1.00800000E+00  1.00800000E+00
  1.00800000E+00  1.00800000E+00  1.00800000E+00  1.00800000E+00  1.00800000E+00
  1.00800000E+00  1.00800000E+00  1.00800000E+00  1.00800000E+00  1.00800000E+00
  1.00800000E+00  1.00800000E+00  1.00800000E+00  1.00800000E+00  1.00800000E+00
  1.00800000E+00  1.00800000E+00  1.00800000E+00  1.00800000E+00  1.00800000E+00
  1.00800000E+00  1.00800000E+00  1.00800000E+00  1.00800000E+00  1.00800000E+00
  1.00800000E+00  1.00800000E+00  1.00800000E+00  1.00800000E+00  1.00800000E+00
  1.00800000E+00  1.00800000E+00  1.00800000E+00  1.00800000E+00  1.00800000E+00
  1.00800000E+00  1.00800000E+00  1.00800000E+00  1.00800000E+00  1.00800000E+00
  1.00800000E+00  1.00800000E+00  1.00800000E+00  1.00800000E+00  1.00800000E+00
  1.00800000E+00  1.00800000E+00  1.00800000E+00  1.00800000E+00  1.00800000E+00
  1.00800000E+00  1.00800000E+00  1.00800000E+00  1.00800000E+00  1.00800000E+00
  1.00800000E+00  1.00800000E+00  1.00800000E+00  1.00800000E+00  1.00800000E+00
  1.00800000E+00  1.00800000E+00  1.00800000E+00  1.00800000E+00  1.00800000E+00
  1.00800000E+00  1.00800000E+00  1.00800000E+00  1.00800000E+00  1.00800000E+00
  1.00800000E+00  1.00800000E+00  1.00800000E+00  1.00800000E+00  1.00800000E+00
  1.00800000E+00  1.00800000E+00  1.00800000E+00  1.00800000E+00  1.00800000E+00
  1.00800000E+00  1.00800000E+00  1.00800000E+00  1.00800000E+00  1.00800000E+00
  1.00800000E+00  1.00800000E+00  1.00800000E+00  1.00800000E+00  1.00800000E+00
  1.00800000E+00  1.00800000E+00  1.00800000E+00  1.00800000E+00  1.00800000E+00
  1.00800000E+00  1.00800000E+00  1.00800000E+00  1.00800000E+00  1.00800000E+00
  1.00800000E+00  1.00800000E+00  1.00800000E+00  1.00800000E+00  1.00800000E+00
  1.00800000E+00  1.00800000E+00  1.00800000E+00  1.00800000E+00  1.00800000E+00
  1.00800000E+00  1.00800000E+00  1.00800000E+00  1.00800000E+00  1.00800000E+00
  1.00800000E+00  1.00800000E+00  1.00800000E+00  1.00800000E+00  1.00800000E+00
  1.00800000E+00  1.00800000E+00  1.00800000E+00  1.00800000E+00  1.00800000E+00
  1.00800000E+00  1.00800000E+00  1.00800000E+00  1.00800000E+00  1.00800000E+00
  1.00800000E+00  1.00800000E+00  1.00800000E+00  1.00800000E+00  1.00800000E+00
  1.00800000E+00  1.00800000E+00  1.00800000E+00  1.00800000E+00  1.00800000E+00
  1.00800000E+00  1.00800000E+00  1.00800000E+00  1.00800000E+00  1.00800000E+00
  1.00800000E+00  1.00800000E+00  1.00800000E+00  1.00800000E+00  1.00800000E+00
  1.00800000E+00  1.00800000E+00  1.00800000E+00  1.00800000E+00  1.00800000E+00
  1.00800000E+00  1.00800000E+00  1.00800000E+00  1.00800000E+00  1.00800000E+00
  1.00800000E+00  1.00800000E+00  1.00800000E+00  1.00800000E+00  1.00800000E+00
  1.00800000E+00  1.00800000E+00  1.00800000E+00  1.00800000E+00  1.00800000E+00
  1.00800000E+00  1.00800000E+00  1.00800000E+00  1.00800000E+00  1.00800000E+00
  1.00800000E+00  1.00800000E+00  1.00800000E+00  1.00800000E+00  1.00800000E+00
  1.00800000E+00  1.00800000E+00  1.00800000E+00  1.00800000E+00  1.00800000E+00
  1.00800000E+00  1.00800000E+00  1.00800000E+00  1.00800000E+00  1.00800000E+00
  1.00800000E+00  1.00800000E+00  1.00800000E+00  1.00800000E+00  1.00800000E+00
  1.00800000E+00  1.00800000E+00  1.00800000E+00  1.00800000E+00  1.00800000E+00
  1.00800000E+00  1.00800000E+00  1.00800000E+00  1.00800000E+00  1.00800000E+00
  1.00800000E+00  1.00800000E+00  1.00800000E+00  1.00800000E+00  1.00800000E+00
  1.00800000E+00  1.00800000E+00  1.00800000E+00  1.00800000E+00  1.00800000E+00
  1.00800000E+00  1.00800000E+00  1.00800000E+00  1.00800000E+00  1.00800000E+00
  1.00800000E+00  1.00800000E+00  1.00800000E+00  1.00800000E+00  1.00800000E+00
  1.00800000E+00  1.00800000E+00  1.00800000E+00  1.00800000E+00  1.00800000E+00
  1.00800000E+00  1.00800000E+00  1.00800000E+00  1.00800000E+00  1.00800000E+00
  1.00800000E+00  1.00800000E+00  1.00800000E+00  1.00800000E+00  1.00800000E+00
  1.00800000E+00  1.00800000E+00  1.00800000E+00  1.00800000E+00  1.00800000E+00
  1.00800000E+00  1.00800000E+00  1.00800000E+00  1.00800000E+00  1.00800000E+00
  1.00800000E+00  1.00800000E+00  1.00800000E+00  1.00800000E+00  1.00800000E+00
  1.00800000E+00  1.00800000E+00  1.00800000E+00  1.00800000E+00  1.00800000E+00
  1.00800000E+00  1.00800000E+00  1.00800000E+00  1.00800000E+00  1.00800000E+00
  1.00800000E+00  1.00800000E+00  1.00800000E+00  1.00800000E+00  1.00800000E+00
  1.00800000E+00  1.00800000E+00  1.00800000E+00  1.00800000E+00  1.00800000E+00
  1.00800000E+00  1.00800000E+00  1.00800000E+00  1.00800000E+00  1.00800000E+00
  1.00800000E+00  1.00800000E+00  1.00800000E+00  1.00800000E+00  1.00800000E+00
  1.00800000E+00  1.00800000E+00  1.00800000E+00  1.00800000E+00  1.00800000E+00
  1.00800000E+00  1.00800000E+00  1.00800000E+00  1.00800000E+00  1.00800000E+00
  1.00800000E+00  1.00800000E+00  1.00800000E+00  1.00800000E+00  1.00800000E+00
  1.00800000E+00  1.00800000E+00  1.00800000E+00  1.00800000E+00  1.00800000E+00
  1.00800000E+00  1.00800000E+00  1.00800000E+00  1.00800000E+00  1.00800000E+00
  1.00800000E+00  1.00800000E+00  1.00800000E+00  1.00800000E+00  1.00800000E+00
  1.00800000E+00  1.00800000E+00  1.00800000E+00  1.00800000E+00  1.00800000E+00
  1.00800000E+00  1.00800000E+00  1.00800000E+00  1.00800000E+00  1.00800000E+00
  1.00800000E+00  1.00800000E+00  1.00800000E+00  1.00800000E+00  1.00800000E+00
  1.00800000E+00  1.00800000E+00  1.00800000E+00  1.00800000E+00  1.00800000E+00
  1.00800000E+00  1.00800000E+00  1.00800000E+00  1.00800000E+00  1.00800000E+00
  1.00800000E+00  1.00800000E+00  1.00800000E+00  1.00800000E+00  1.00800000E+00
  1.00800000E+00  1.00800000E+00  1.00800000E+00  1.00800000E+00  1.00800000E+00
  1.00800000E+00  1.00800000E+00  1.00800000E+00  1.00800000E+00  1.00800000E+00
  1.00800000E+00  1.00800000E+00  1.00800000E+00  1.00800000E+00  1.00800000E+00
  1.00800000E+00  1.00800000E+00  1.00800000E+00  1.00800000E+00  1.00800000E+00
  1.00800000E+00  1.00800000E+00  1.00800000E+00  1.00800000E+00  1.00800000E+00
  1.00800000E+00  1.00800000E+00  1.00800000E+00  1.00800000E+00  1.00800000E+00
  1.00800000E+00  1.00800000E+00  1.00800000E+00  1.00800000E+00  1.00800000E+00
  1.00800000E+00  1.00800000E+00  1.00800000E+00  1.00800000E+00  1.00800000E+00
  1.00800000E+00  1.00800000E+00  1.00800000E+00  1.00800000E+00  1.00800000E+00
  1.00800000E+00  1.00800000E+00  1.00800000E+00  1.00800000E+00  1.00800000E+00
  1.00800000E+00  1.00800000E+00  1.00800000E+00  1.00800000E+00  1.00800000E+00
  1.00800000E+00  1.00800000E+00  1.00800000E+00  1.00800000E+00  1.00800000E+00
  1.00800000E+00  1.00800000E+00  1.00800000E+00  1.00800000E+00  1.00800000E+00
  1.00800000E+00  1.00800000E+00  1.00800000E+00  1.00800000E+00  1.00800000E+00
  1.00800000E+00  1.00800000E+00  1.00800000E+00  1.00800000E+00  1.00800000E+00
  1.00800000E+00  1.00800000E+00  1.00800000E+00  1.00800000E+00  1.00800000E+00
  1.00800000E+00  1.00800000E+00  1.00800000E+00  1.00800000E+00  1.00800000E+00
  1.00800000E+00  1.00800000E+00  1.00800000E+00  1.00800000E+00  1.00800000E+00
  1.00800000E+00  1.00800000E+00  1.00800000E+00  1.00800000E+00  1.00800000E+00
  1.00800000E+00  1.00800000E+00  1.00800000E+00  1.00800000E+00  1.00800000E+00
  1.00800000E+00  1.00800000E+00  1.00800000E+00  1.00800000E+00  1.00800000E+00
  1.00800000E+00  1.00800000E+00  1.00800000E+00  1.00800000E+00  1.00800000E+00
  1.00800000E+00  1.00800000E+00  1.00800000E+00  1.00800000E+00  1.00800000E+00
  1.00800000E+00  1.00800000E+00  1.00800000E+00  1.00800000E+00  1.00800000E+00
  1.00800000E+00  1.00800000E+00  1.00800000E+00  1.00800000E+00  1.00800000E+00
  1.00800000E+00  1.00800000E+00  1.00800000E+00  1.00800000E+00  1.00800000E+00
  1.00800000E+00  1.00800000E+00  1.00800000E+00  1.00800000E+00  1.00800000E+00
  1.00800000E+00  1.00800000E+00  1.00800000E+00  1.00800000E+00  1.00800000E+00
  1.00800000E+00  1.00800000E+00  1.00800000E+00  1.00800000E+00  1.00800000E+00
  1.00800000E+00  1.00800000E+00  1.00800000E+00  1.00800000E+00  1.00800000E+00
  1.00800000E+00  1.00800000E+00  1.00800000E+00  1.00800000E+00  1.00800000E+00
  1.00800000E+00  1.00800000E+00  1.00800000E+00  1.00800000E+00  1.00800000E+00
  1.00800000E+00  1.00800000E+00  1.00800000E+00  1.00800000E+00  1.00800000E+00
  1.00800000E+00  1.00800000E+00  1.00800000E+00  1.00800000E+00  1.00800000E+00
  1.00800000E+00  1.00800000E+00  1.00800000E+00  1.00800000E+00  1.00800000E+00
  1.00800000E+00  1.00800000E+00  1.00800000E+00  1.00800000E+00  1.00800000E+00
  1.00800000E+00  1.00800000E+00  1.00800000E+00  1.00800000E+00  1.00800000E+00
  1.00800000E+00  1.00800000E+00  1.00800000E+00  1.00800000E+00  1.00800000E+00
  1.00800000E+00  1.00800000E+00  1.00800000E+00  1.00800000E+00  1.00800000E+00
  1.00800000E+00  1.00800000E+00  1.00800000E+00  1.00800000E+00  1.00800000E+00
  1.00800000E+00  1.00800000E+00  1.00800000E+00  1.00800000E+00  1.00800000E+00
  1.00800000E+00  1.00800000E+00  1.00800000E+00  1.00800000E+00  1.00800000E+00
  1.00800000E+00  1.00800000E+00  1.00800000E+00  1.00800000E+00  1.00800000E+00
  1.00800000E+00  1.00800000E+00  1.00800000E+00  1.00800000E+00  1.00800000E+00
  1.00800000E+00  1.00800000E+00  1.00800000E+00  1.00800000E+00  1.00800000E+00
  1.00800000E+00  1.00800000E+00  1.00800000E+00  1.00800000E+00  1.00800000E+00
  1.00800000E+00  1.00800000E+00  1.00800000E+00  1.00800000E+00  1.00800000E+00
  1.00800000E+00  1.00800000E+00  1.00800000E+00  1.00800000E+00  1.00800000E+00
  1.00800000E+00  1.00800000E+00  1.00800000E+00  1.00800000E+00  1.00800000E+00
  1.00800000E+00  1.00800000E+00  1.00800000E+00  1.00800000E+00  1.00800000E+00
  1.00800000E+00  1.00800000E+00  1.00800000E+00  1.00800000E+00  1.00800000E+00
  1.00800000E+00  1.00800000E+00  1.00800000E+00  1.00800000E+00  1.00800000E+00
  1.00800000E+00  1.00800000E+00  1.00800000E+00  1.00800000E+00  1.00800000E+00
  1.00800000E+00  1.00800000E+00  1.00800000E+00  1.00800000E+00  1.00800000E+00
  1.00800000E+00  1.00800000E+00  1.00800000E+00  1.00800000E+00  1.00800000E+00
  1.00800000E+00  1.00800000E+00  1.00800000E+00  1.00800000E+00  1.00800000E+00
  1.00800000E+00  1.00800000E+00  1.00800000E+00  1.00800000E+00  1.00800000E+00
  1.00800000E+00  1.00800000E+00  1.00800000E+00  1.00800000E+00  1.00800000E+00
  1.00800000E+00  1.00800000E+00  1.00800000E+00  1.00800000E+00  1.00800000E+00
  1.00800000E+00  1.00800000E+00  1.00800000E+00  1.00800000E+00  1.00800000E+00
  1.00800000E+00  1.00800000E+00  1.00800000E+00  1.00800000E+00  1.00800000E+00
  1.00800000E+00  1.00800000E+00  1.00800000E+00  1.00800000E+00  1.00800000E+00
  1.00800000E+00  1.00800000E+00  1.00800000E+00  1.00800000E+00  1.00800000E+00
  1.00800000E+00  1.00800000E+00  1.00800000E+00  1.00800000E+00  1.00800000E+00
  1.00800000E+00  1.00800000E+00  1.00800000E+00  1.00800000E+00  1.00800000E+00
  1.00800000E+00  1.00800000E+00  1.00800000E+00  1.00800000E+00  1.00800000E+00
  1.00800000E+00  1.00800000E+00  1.00800000E+00  1.00800000E+00  1.00800000E+00
  1.00800000E+00  1.00800000E+00  1.00800000E+00  1.00800000E+00  1.00800000E+00
  1.00800000E+00  1.00800000E+00  1.00800000E+00  1.00800000E+00  1.00800000E+00
  1.00800000E+00  1.00800000E+00  1.00800000E+00  1.00800000E+00  1.00800000E+00
  1.00800000E+00  1.00800000E+00  1.00800000E+00  1.00800000E+00  1.00800000E+00
  1.00800000E+00  1.00800000E+00  1.00800000E+00  1.00800000E+00  1.00800000E+00
  1.00800000E+00  1.00800000E+00  1.00800000E+00  1.00800000E+00  1.00800000E+00
  1.00800000E+00  1.00800000E+00  1.00800000E+00  1.00800000E+00  1.00800000E+00
  1.00800000E+00  1.00800000E+00  1.00800000E+00  1.00800000E+00  1.00800000E+00
  1.00800000E+00  1.00800000E+00  1.00800000E+00  1.00800000E+00  1.00800000E+00
  1.00800000E+00  1.00800000E+00  1.00800000E+00  1.00800000E+00  1.00800000E+00
  1.00800000E+00  1.00800000E+00  1.00800000E+00  1.00800000E+00  1.00800000E+00
  1.00800000E+00  1.00800000E+00  1.00800000E+00  1.00800000E+00  1.00800000E+00
  1.00800000E+00  1.00800000E+00  1.00800000E+00  1.00800000E+00  1.00800000E+00
  1.00800000E+00  1.00800000E+00  1.00800000E+00  1.00800000E+00  1.00800000E+00
  1.00800000E+00  1.00800000E+00  1.00800000E+00  1.00800000E+00  1.00800000E+00
  1.00800000E+00  1.00800000E+00  1.00800000E+00  1.00800000E+00  1.00800000E+00
  1.00800000E+00  1.00800000E+00  1.00800000E+00  1.00800000E+00  1.00800000E+00
  1.00800000E+00  1.00800000E+00  1.00800000E+00  1.00800000E+00  1.00800000E+00
  1.00800000E+00  1.00800000E+00  1.00800000E+00  1.00800000E+00  1.00800000E+00
  1.00800000E+00  1.00800000E+00  1.00800000E+00  1.00800000E+00  1.00800000E+00
  1.00800000E+00  1.00800000E+00  1.00800000E+00  1.00800000E+00  1.00800000E+00
  1.00800000E+00  1.00800000E+00  1.00800000E+00  1.00800000E+00  1.00800000E+00
  1.00800000E+00  1.00800000E+00  1.00800000E+00  1.00800000E+00  1.00800000E+00
  1.00800000E+00  1.00800000E+00  1.00800000E+00  1.00800000E+00  1.00800000E+00
  1.00800000E+00  1.00800000E+00  1.00800000E+00  1.00800000E+00  1.00800000E+00
  1.00800000E+00  1.00800000E+00  1.00800000E+00  1.00800000E+00  1.00800000E+00
  1.00800000E+00  1.00800000E+00  1.00800000E+00  1.00800000E+00  1.00800000E+00
  1.00800000E+00  1.00800000E+00  1.00800000E+00  1.00800000E+00  1.00800000E+00
  1.00800000E+00  1.00800000E+00  1.00800000E+00  1.00800000E+00  1.00800000E+00
  1.00800000E+00  1.00800000E+00  1.00800000E+00  1.00800000E+00  1.00800000E+00
  1.00800000E+00  1.00800000E+00  1.00800000E+00  1.00800000E+00  3.20600000E+01
  1.90000000E+01  1.90000000E+01  1.90000000E+01  1.90000000E+01  1.90000000E+01
  1.90000000E+01  1.90000000E+01  1.90000000E+01  1.90000000E+01  1.90000000E+01
  1.90000000E+01  1.90000000E+01  1.90000000E+01  1.90000000E+01  1.90000000E+01
  1.90000000E+01  1.90000000E+01  1.60000000E+01  1.60000000E+01  1.60000000E+01
  1.20100000E+01  1.20100000E+01  1.20100000E+01  1.20100000E+01  1.20100000E+01
  1.20100000E+01  1.20100000E+01  1.20100000E+01  3.54500000E+01  3.54500000E+01
  3.54500000E+01  3.54500000E+01  3.54500000E+01  3.54500000E+01  3.54500000E+01
  3.54500000E+01  3.54500000E+01  3.54500000E+01  3.54500000E+01  3.54500000E+01
  3.54500000E+01  3.54500000E+01  3.54500000E+01  3.54500000E+01  3.54500000E+01
  3.54500000E+01  3.54500000E+01  3.54500000E+01  3.54500000E+01  3.54500000E+01
  3.54500000E+01  3.54500000E+01  3.54500000E+01  3.54500000E+01  3.54500000E+01
  3.54500000E+01  3.54500000E+01  3.54500000E+01  3.54500000E+01  3.54500000E+01
  3.54500000E+01  3.54500000E+01  3.54500000E+01  3.54500000E+01  3.54500000E+01
  3.54500000E+01  3.54500000E+01  3.54500000E+01  3.54500000E+01  3.54500000E+01
  3.54500000E+01  3.54500000E+01  3.54500000E+01  3.54500000E+01  3.54500000E+01
%FLAG ATOM_TYPE_INDEX                                                           
%FORMAT(10I8)                                                                   
       1       1       1       1       1       1       1       1       1       1
       1       1       1       1       1       1       1       1       1       1
       1       1       1       1       1       1       1       1       1       1
       1       1       1       1       1       1       1       1       1       1
       1       1       1       1       1       1       1       1       1       1
       1       1       1       1       1       1       1       1       1       1
       1       1       1       1       1       1       1       1       1       1
       1       1       2       2       2       2       1       3       1       1
       1       2       2       2       2       2       2       1       3       1
       1       1       2       2       2       2       2       2       1       3
       1       1       1       2       2       2       2       2       2       1
       3       1       1       1       2       2       2       2       2       2
       1       3       1       1       1       2       2       2       2       2
       2       1       3       1       1       1       2       2       2       2
       2       2       1       3       1       1       1       2       2       2
       2       2       2       1       3       1       1       1       2       2
       2       2       2       2       1       3       1       1       1       2
       2       2       2       2       2       1       3       1       1       1
       2       2       2       2       2       2       1       3       1       1
       1       2       2       2       2       2       2       1       3       1
       1       1       2       2       2       2       2       2       1       1
       1       1       1       1       1       1       1       1       1       1
       1       1       1       1       1       1       1       1       1       1
       1       1       1       1       1       1       1       1       1       1
       1       1       1       2       2       2       2       1       3       1
       1       1       2       2       2       2       2       2       1       3
       1       1       1       2       2       2       2       2       2       1
       3       1       1       1       2       2       2       2       2       2
       1       3       1       1       1       2       2       2       2       2
       2       1       3       1       1       1       2       2       2       2
       2       2       1       3       1       1       1       2       2       2
       2       2       2       1       3       1       1       1       2       2
       2       2       2       2       1       3       1       1       1       2
       2       2       2       2       2       1       3       1       1       1
       2       2       2       2       2       2       1       3       1       1
       1       2       2       2       2       2       2       1       3       1
       1       1       2       2       1       1       1       1       1       1
       1       1       1       1       1       1       1       1       1       1
       1       1       1       1       1       1       1       1       1       1
       1       1       1       1       1       1       1       1       1       1
       1       2       2       2       2       1       3       1       1       1
       2       2       2       2       2       2       1       3       1       1
       1       2       2       2       2       2       2       1       3       1
       1       1       2       2       2       2       2       2       1       3
       1       1       1       2       2       2       2       2       2       1
       3       1       1       1       2       2       2       2       2       2
       1       3       1       1       1       2       2       2       2       2
       2       1       3       1       1       1       2       2       2       2
       2       2       1       3       1       1       1       2       2       2
       2       2       2       1       3       1       1       1       2       2
       2       2       2       2       1       3       1       1       1       2
       2       2       2       2       2       1       3       1       1       1
       2       2       2       2       2       2       1       3       1       1
       1       2       2       2       2       2       2       1       3       1
       1       1       2       2       2       2       2       2       2       2
       1       3       1       1       1       2       2       2       2       2
       2       1       3       1       1       1       2       2       2       2
       2       2       1       3       1       1       1       2       2       2
       2       2       2       1       3       1       1       1       2       2
       2       2       2       2       1       3       1       1       1       2
       2       2       2       2       2       1       3       1       1       1
       2       2       2       2       2       2       1       3       1       1
       1       2       2       2       2       2       2       1       3       1
       1       1       2       2       2       2       2       2       1       3
       1       1       1       2       2       2       2       2       2       1
       3       1       1       1       2       2       2       2       2       2
       1       3       1       1       1       2       2       2       2       2
       2       1       3       1       1       1       2       2       4       4
       4       4       4       4       4       4       4       4       4       4
       4       4       4       4       4       4       4       4       4       4
       4       4       4       4       4       4       4       4       4       4
       4       4       4       4       4       4       4       4       4       4
       4       4       4       4       4       4       4       4       4       4
       4       4       4       4       4       4       4       4       4       4
       4       4       4       4       4       4       4       4       4       4
       4       4       4       4       4       4       4       4       4       4
       4       4       4       4       4       4       4       4       4       4
       4       4       4       4       4       4       4       4       4       4
       4       4       4       4       4       4       4       4       4       4
       4       4       4       4       4       4       4       4       4       5
       5       6       6       6       6       6       6       6       6       6
       6       6       5       5       5       5       6       6       6       6
       6       6       6       6       6       6       6       5       5       5
       5       6       6       6       6       6       6       6       6       6
       6       6       5       5       5       5       6       6       6       6
       6       6       6       6       6       6       6       5       5       5
       5       6       6       6       6       6       6       6       6       6
       6       6       5       5       5       5       6       6       6       6
       6       6       6       6       6       6       6       5       5       5
       5       6       6       6       6       6       6       6       6       6
       6       6       5       5       5       5       6       6       6       6
       6       6       6       6       6       6       6       5       5       5
       5       6       6       6       6       6       6       6       6       6
       6       6       5       5       5       5       6       6       6       6
       6       6       6       6       6       6       6       5       5       5
       5       6       6       6       6       6       6       6       6       6
       6       6       5       5       5       5       6       6       6       6
       6       6       6       6       6       6       6       5       5       5
       5       4       4       4       4       4       4       4       4       4
       4       4       4       4       4       4       4       4       4       4
       4       4       4       4       4       4       4       4       4       4
       4       4       4       4       4       4       4       4       4       4
       4       4       4       4       4       4       4       4       4       4
       4       4       4       4       4       4       4       4       4       5
       5       6       6       6       6       6       6       6       6       6
       6       6       5       5       5       5       6       6       6       6
       6       6       6       6       6       6       6       5       5       5
       5       6       6       6       6       6       6       6       6       6
       6       6       5       5       5       5       6       6       6       6
       6       6       6       6       6       6       6       5       5       5
       5       6       6       6       6       6       6       6       6       6
       6       6       5       5       5       5       6       6       6       6
       6       6       6       6       6       6       6       5       5       5
       5       6       6       6       6       6       6       6       6       6
       6       6       5       5       5       5       6       6       6       6
       6       6       6       6       6       6       6       5       5       5
       5       6       6       6       6       6       6       6       6       6
       6       6       5       5       5       5       6       6       6       6
       6       6       6       6       6       6       6       5       5       5
       5       6       6       6       6       6       6       6       6       6
       6       6       5       5       4       4       4       4       4       4
       4       4       4       4       4       4       4       4       4       4
       4       4       4       4       4       4       4       4       4       4
       4       4       4       4       4       4       4       4       4       4
       4       4       4       4       4       4       4       4       4       4
       4       4       4       4       4       4       4       4       4       4
       4       4       4       4       4       4       4       5       5       6
       6       6       6       6       6       6       6       6       6       6
       5       5       5       5       6       6       6       6       6       6
       6       6       6       6       6       5       5       5       5       6
       6       6       6       6       6       6       6       6       6       6
       5       5       5       5       6       6       6       6       6       6
       6       6       6       6       6       5       5       5       5       6
       6       6       6       6       6       6       6       6       6       6
       5       5       5       5       6       6       6       6       6       6
       6       6       6       6       6       5       5       5       5       6
       6       6       6       6       6       6       6       6       6       6
       5       5       5       5       6       6       6       6       6       6
       6       6       6       6       6       5       5       5       5       6
       6       6       6       6       6       6       6       6       6       6
       5       5       5       5       6       6       6       6       6       6
       6       6       6       6       6       5       5       5       5       6
       6       6       6       6       6       6       6       6       6       6
       5       5       5       5       6       6       6       6       6       6
       6       6       6       6       6       5       5       5       5       6
       6       6       6       6       6       6       6       6       6       6
       5       5       5       5       5       5       6       6       6       6
       6       6       6       6       6       6       6       5       5       5
       5       6       6       6       6       6       6       6       6       6
       6       6       5       5       5       5       6       6       6       6
       6       6       6       6       6       6       6       5       5       5
       5       6       6       6       6       6       6       6       6       6
       6       6       5       5       5       5       6       6       6       6
       6       6       6       6       6       6       6       5       5       5
       5       6       6       6       6       6       6       6       6       6
       6       6       5       5       5       5       6       6       6       6
       6       6       6       6       6       6       6       5       5       5
       5       6       6       6       6       6       6       6       6       6
       6       6       5       5       5       5       6       6       6       6
       6       6       6       6       6       6       6       5       5       5
       5       6       6       6       6       6       6       6       6       6
       6       6       5       5       5       5       6       6       6       6
       6       6       6       6       6       6       6       5       5       5
       5       6       6       6       6       6       6       6       6       6
       6       6       5       5       7       8       8       8       8       8
       8       8       8       8       8       8       8       8       8       8
       8       8       9       9       9       1       1       1       1       1
       1       1       1      10      10      10      10      10      10      10
      10      10      10      10      10      10      10      10      10      10
      10      10      10      10      10      10      10      10      10      10
      10      10      10      10      10      10      10      10      10      10
      10      10      10      10      10      10      10      10      10      10
%FLAG NUMBER_EXCLUDED_ATOMS                                                     
%FORMAT(10I8)                                                                   
      12      18      16      15      19      15      15      19      15      15
      19      15      15      19      15      15      19      15      15      19
      15      15      19      15      15      19      15      15      19      15
      15      19      15      15      19      15      17      25      17      15
      19      15      15      19      15      15      19      15      15      19
      15      15      19      15      15      19      15      15      19      15
      15      19      15      15      19      15      15      19      15      15
      16       9      15       9      10      13      19      15      13      12
      11       6       4      14       9      10      13      19      15      13
      12      11       6       4      14       9      10      13      19      15
      13      12      11       6       4      14       9      10      13      19
      15      13      12      11       6       4      14       9      10      13
      19      15      13      12      11       6       4      14       9      10
      13      19      15      13      12      11       6       4      14       9
      10      13      19      15      13      12      11       6       4      14
       9      10      13      19      15      13      12      11       6       4
      14       9      10      13      19      15      13      12      11       6
       4      14       9      10      13      19      15      13      12      11
       6       4      14       9      10      13      19      15      13      12
      11       6       4      16       9      10      13      19      15      13
      12      11       6       4      13       8      10      18      25      17
      15      19      15      15      19      15      15      19      15      15
      19      15      15      19      15      15      19      15      15      19
      15      15      19      15      15      19      15      15      19      15
      15      16       9      15       9      10      13      19      15      13
      12      11       6       4      14       9      10      13      19      15
      13      12      11       6       4      14       9      10      13      19
      15      13      12      11       6       4      14       9      10      13
      19      15      13      12      11       6       4      14       9      10
      13      19      15      13      12      11       6       4      14       9
      10      13      19      15      13      12      11       6       4      14
       9      10      13      19      15      13      12      11       6       4
      14       9      10      13      19      15      13      12      11       6
       4      14       9      10      13      19      15      13      12      11
       6       4      14       9      10      13      19      15      13      12
      11       6       4      14       9      10      13      19      15      13
      12      11       6       4      15      14      19      15      15      19
      15      15      19      15      15      19      15      15      19      15
      15      19      15      15      19      15      15      19      15      15
      19      15      15      19      15      15      19      15      15      16
       9      15       9      10      13      19      15      13      12      11
       6       4      14       9      10      13      19      15      13      12
      11       6       4      14       9      10      13      19      15      13
      12      11       6       4      14       9      10      13      19      15
      13      12      11       6       4      14       9      10      13      19
      15      13      12      11       6       4      14       9      10      13
      19      15      13      12      11       6       4      14       9      10
      13      19      15      13      12      11       6       4      14       9
      10      13      19      15      13      12      11       6       4      14
       9      10      13      19      15      13      12      11       6       4
      14       9      10      13      19      15      13      12      11       6
       4      14       9      10      13      19      15      13      12      11
       6       4      14       9      10      13      19      15      13      12
      11       6       4      14       8      10      13      19      15      13
      12      11       6       3       4       3      14       9      10      13
      19      15      13      12      11       6       4      14       9      10
      13      19      15      13      12      11       6       4      14       9
      10      13      19      15      13      12      11       6       4      14
       9      10      13      19      15      13      12      11       6       4
      14       9      10      13      19      15      13      12      11       6
       4      14       9      10      13      19      15      13      12      11
       6       4      14       9      10      13      19      15      13      12
      11       6       4      14       9      10      13      19      15      13
      12      11       6       4      14       9      10      13      19      15
      13      12      11       6       4      14       9      10      13      19
      15      13      12      11       6       4      14       9      10      13
      19      15      13      12      11       6       4      15       9      10
      13      19      15      13      12      11       6       4       3       2
       1       2       3       2       2       1       2       3       2       2
       1       2       3       2       2       1       2       3       2       2
       1       2       3       2       2       1       2       3       2       2
       1       2       3       2       2       1       2       3       2       2
       1       2       3       2       2       1       2       3       2       2
       1       2       3       2       2       1       2       3       2       1
       1       3       2       2       1       2       3       2       2       1
       2       3       2       2       1       2       3       2       2       1
       2       3       2       2       1       2       3       2       2       1
       2       3       2       2       1       2       3       2       2       1
       2       3       2       2       1       2       3       2       2       1
       2       3       2       2       1       3       2       1       1       1
       1       1       1       2       1       1       2       1       1       2
       1       1       1       1       1       1       1       1       2       1
       1       2       1       1       2       1       1       1       1       1
       1       1       1       2       1       1       2       1       1       2
       1       1       1       1       1       1       1       1       2       1
       1       2       1       1       2       1       1       1       1       1
       1       1       1       2       1       1       2       1       1       2
       1       1       1       1       1       1       1       1       2       1
       1       2       1       1       2       1       1       1       1       1
       1       1       1       2       1       1       2       1       1       2
       1       1       1       1       1       1       1       1       2       1
       1       2       1       1       2       1       1       1       1       1
       1       1       1       2       1       1       2       1       1       2
       1       1       1       1       1       1       1       1       2       1
       1       2       1       1       2       1       1       1       1       1
       1       1       1       2       1       1       2       1       1       2
       1       1       1       1       1       1       1       1       2       1
       1       2       1       1       2       1       1       1       1       1
       1       3       2       2       1       2       3       2       2       1
       2       3       2       2       1       2       3       2       2       1
       2       3       2       2       1       2       3       2       2       1
       2       3       2       2       1       2       3       2       2       1
       2       3       2       2       1       2       3       2       2       1
       2       3       2       2       1       3       2       1       1       1
       1       1       1       2       1       1       2       1       1       2
       1       1       1       1       1       1       1       1       2       1
       1       2       1       1       2       1       1       1       1       1
       1       1       1       2       1       1       2       1       1       2
       1       1       1       1       1       1       1       1       2       1
       1       2       1       1       2       1       1       1       1       1
       1       1       1       2       1       1       2       1       1       2
       1       1       1       1       1       1       1       1       2       1
       1       2       1       1       2       1       1       1       1       1
       1       1       1       2       1       1       2       1       1       2
       1       1       1       1       1       1       1       1       2       1
       1       2       1       1       2       1       1       1       1       1
       1       1       1       2       1       1       2       1       1       2
       1       1       1       1       1       1       1       1       2       1
       1       2       1       1       2       1       1       1       1       1
       1       1       1       2       1       1       2       1       1       2
       1       1       1       1       3       2       2       1       2       3
       2       2       1       2       3       2       2       1       2       3
       2       2       1       2       3       2       2       1       2       3
       2       2       1       2       3       2       2       1       2       3
       2       2       1       2       3       2       2       1       2       3
       2       2       1       2       3       2       2       1       2       3
       2       2       1       3       2       1       1       1       1       1
       1       2       1       1       2       1       1       2       1       1
       1       1       1       1       1       1       2       1       1       2
       1       1       2       1       1       1       1       1       1       1
       1       2       1       1       2       1       1       2       1       1
       1       1       1       1       1       1       2       1       1       2
       1       1       2       1       1       1       1       1       1       1
       1       2       1       1       2       1       1       2       1       1
       1       1       1       1       1       1       2       1       1       2
       1       1       2       1       1       1       1       1       1       1
       1       2       1       1       2       1       1       2       1       1
       1       1       1       1       1       1       2       1       1       2
       1       1       2       1       1       1       1       1       1       1
       1       2       1       1       2       1       1       2       1       1
       1       1       1       1       1       1       2       1       1       2
       1       1       2       1       1       1       1       1       1       1
       1       2       1       1       2       1       1       2       1       1
       1       1       1       1       1       1       2       1       1       2
       1       1       2       1       1       1       1       1       1       1
       1       2       1       1       2       1       1       2       1       1
       1       1       1       1       1       1       1       1       2       1
       1       2       1       1       2       1       1       1       1       1
       1       1       1       2       1       1       2       1       1       2
       1       1       1       1       1       1       1       1       2       1
       1       2       1       1       2       1       1       1       1       1
       1       1       1       2       1       1       2       1       1       2
       1       1       1       1       1       1       1       1       2       1
       1       2       1       1       2       1       1       1       1       1
       1       1       1       2       1       1       2       1       1       2
       1       1       1       1       1       1       1       1       2       1
       1       2       1       1       2       1       1       1       1       1
       1       1       1       2       1       1       2       1       1       2
       1       1       1       1       1       1       1       1       2       1
       1       2       1       1       2       1       1       1       1       1
       1       1       1       2       1       1       2       1       1       2
       1       1       1       1       1       1       1       1       2       1
       1       2       1       1       2       1       1       1       1       1
       1       1       1       2       1       1       2       1       1       2
       1       1       1       1      10      10       9       8       7       8
       7       7       6       8       7       7       6       8       7       5
       4       3       4       3       2       6       4       4       1       2
       1       1       1       1       1       1       1       1       1       1
       1       1       1       1       1       1       1       1       1       1
       1       1       1       1       1       1       1       1       1       1
       1       1       1       1       1       1       1       1       1       1
       1       1       1       1       1       1       1       1       1       1
%FLAG NONBONDED_PARM_INDEX                                                      
%FORMAT(10I8)                                                                   
       1       2       4       7      11      16      22      29      37      46
       2       3       5       8      12      17      23      30      38      47
       4       5       6       9      13      18      24      31      39      48
       7       8       9      10      14      19      25      32      40      49
      11      12      13      14      15      20      26      33      41      50
      16      17      18      19      20      21      27      34      42      51
      22      23      24      25      26      27      28      35      43      52
      29      30      31      32      33      34      35      36      44      53
      37      38      39      40      41      42      43      44      45      54
      46      47      48      49      50      51      52      53      54      55
%FLAG RESIDUE_LABEL                                                             
%FORMAT(20a4)                                                                   
R48 PFS Cl- Cl- Cl- Cl- Cl- Cl- Cl- Cl- Cl- Cl- Cl- Cl- Cl- Cl- Cl- Cl- Cl- Cl- 
Cl- Cl- Cl- Cl- Cl- Cl- Cl- Cl- Cl- Cl- Cl- Cl- Cl- Cl- Cl- Cl- Cl- Cl- Cl- Cl- 
Cl- Cl- Cl- Cl- Cl- Cl- Cl- Cl- Cl- 
%FLAG RESIDUE_POINTER                                                           
%FORMAT(10I8)                                                                   
       1    1645    1674    1675    1676    1677    1678    1679    1680    1681
    1682    1683    1684    1685    1686    1687    1688    1689    1690    1691
    1692    1693    1694    1695    1696    1697    1698    1699    1700    1701
    1702    1703    1704    1705    1706    1707    1708    1709    1710    1711
    1712    1713    1714    1715    1716    1717    1718    1719    1720
%FLAG BOND_FORCE_CONSTANT                                                       
%FORMAT(5E16.8)                                                                 
  3.60690000E+02  3.54250000E+02  3.52860000E+02  2.15860000E+02  2.43910000E+02
  3.45250000E+02  2.28890000E+02  3.34280000E+02  6.14490000E+02  1.98480000E+02
%FLAG BOND_EQUIL_VALUE                                                          
%FORMAT(5E16.8)                                                                 
  1.08600000E+00  1.39860000E+00  1.09110000E+00  1.51670000E+00  1.51470000E+00
  1.09620000E+00  1.53540000E+00  1.35120000E+00  1.46570000E+00  1.81270000E+00
%FLAG ANGLE_FORCE_CONSTANT                                                      
%FORMAT(5E16.8)                                                                 
  3.56300000E+01  3.58000000E+01  4.49000000E+01  7.60200000E+01  4.67900000E+01
  6.07400000E+01  6.35300000E+01  4.34800000E+01  6.36700000E+01  4.36100000E+01
  6.03300000E+01  4.32700000E+01  5.98700000E+01  6.07800000E+01  1.19260000E+02
  1.58500000E+02  7.93600000E+01  1.06880000E+02  8.11800000E+01  6.35100000E+01
%FLAG ANGLE_EQUIL_VALUE                                                         
%FORMAT(5E16.8)                                                                 
  1.91619781E+00  1.88024401E+00  2.09230160E+00  1.90869289E+00  1.88792346E+00
  2.10888224E+00  2.01882321E+00  1.94447215E+00  2.09474507E+00  1.93085858E+00
  1.96209999E+00  1.91427794E+00  1.96576518E+00  1.96018012E+00  1.89385758E+00
  2.09806119E+00  1.91078728E+00  1.87396082E+00  1.91445248E+00  1.92946232E+00
%FLAG DIHEDRAL_FORCE_CONSTANT                                                   
%FORMAT(5E16.8)                                                                 
  3.62500000E+00  1.20000000E-01  0.00000000E+00  0.00000000E+00  1.55555556E-01
  7.00000000E-01  1.56000000E-01  0.00000000E+00  1.30000000E-01  2.40000000E-01
  5.20000000E-01  1.44444444E-01  1.81000000E+00  1.10000000E+00
%FLAG DIHEDRAL_PERIODICITY                                                      
%FORMAT(5E16.8)                                                                 
  2.00000000E+00  3.00000000E+00  1.00000000E+00  2.00000000E+00  3.00000000E+00
  2.00000000E+00  3.00000000E+00  2.00000000E+00  3.00000000E+00  2.00000000E+00
  3.00000000E+00  3.00000000E+00  2.00000000E+00  2.00000000E+00
%FLAG DIHEDRAL_PHASE                                                            
%FORMAT(5E16.8)                                                                 
  3.14159400E+00  0.00000000E+00  0.00000000E+00  0.00000000E+00  0.00000000E+00
  0.00000000E+00  0.00000000E+00  3.14159400E+00  0.00000000E+00  3.14159400E+00
  0.00000000E+00  0.00000000E+00  0.00000000E+00  3.14159400E+00
%FLAG SCEE_SCALE_FACTOR                                                         
%FORMAT(5E16.8)                                                                 
  1.20000000E+00  1.20000000E+00  1.20000000E+00  1.20000000E+00  1.20000000E+00
  1.20000000E+00  1.20000000E+00  1.20000000E+00  1.20000000E+00  1.20000000E+00
  1.20000000E+00  1.20000000E+00  1.20000000E+00  0.00000000E+00
%FLAG SCNB_SCALE_FACTOR                                                         
%FORMAT(5E16.8)                                                                 
  2.00000000E+00  2.00000000E+00  2.00000000E+00  2.00000000E+00  2.00000000E+00
  2.00000000E+00  2.00000000E+00  2.00000000E+00  2.00000000E+00  2.00000000E+00
  2.00000000E+00  2.00000000E+00  2.00000000E+00  0.00000000E+00
%FLAG SOLTY                                                                     
%FORMAT(5E16.8)                                                                 
  0.00000000E+00  0.00000000E+00  0.00000000E+00  0.00000000E+00  0.00000000E+00
  0.00000000E+00  0.00000000E+00  0.00000000E+00  0.00000000E+00  0.00000000E+00
%FLAG LENNARD_JONES_ACOEF                                                       
%FORMAT(5E16.8)                                                                 
  1.02073671E+06  8.43969952E+05  6.96551276E+05  1.11659990E+06  9.02707037E+05
  9.21633655E+05  1.00235148E+05  8.12662403E+04  8.57776131E+04  7.94617769E+03
  9.27554496E+04  7.52549148E+04  8.00843692E+04  7.41026906E+03  6.90855956E+03
  2.19657590E+04  1.74110867E+04  1.40871964E+04  1.35510742E+03  1.27542632E+03
  1.70079100E+02  2.34552991E+06  1.96483601E+06  3.01363531E+06  2.65089806E+05
  2.44084252E+05  6.81381492E+04  4.90327872E+06  4.63627012E+05  3.80155513E+05
  4.57193801E+05  4.15877422E+04  3.86097375E+04  8.20643968E+03  1.13117113E+06
  2.02652992E+05  6.30925504E+05  5.17507491E+05  6.24788819E+05  5.68021765E+04
  5.27277400E+04  1.12566992E+04  1.53564503E+06  2.76207447E+05  3.76435470E+05
  3.44293480E+06  2.90480711E+06  4.82659396E+06  4.19958375E+05  3.85641936E+05
  1.17510546E+05  6.83190767E+06  1.71559736E+06  2.32599631E+06  9.24719470E+06
%FLAG LENNARD_JONES_BCOEF                                                       
%FORMAT(5E16.8)                                                                 
  6.63431737E+02  5.90251928E+02  5.24668528E+02  1.69900948E+03  1.49470322E+03
  3.77949525E+03  1.37787728E+02  1.21392023E+02  3.12100979E+02  2.57122925E+01
  1.24325688E+02  1.09570372E+02  2.82860736E+02  2.32899892E+01  2.10929191E+01
  6.45020662E+01  5.61885732E+01  1.26479587E+02  1.06181419E+01  9.66228818E+00
  3.76172582E+00  8.73669684E+02  7.82392141E+02  2.42482142E+03  1.94663459E+02
  1.75205783E+02  9.86922587E+01  1.09738109E+03  4.19082844E+02  3.71304925E+02
  1.01899796E+03  8.31877412E+01  7.51823196E+01  3.69533701E+01  5.68678850E+02
  2.59697739E+02  5.62969425E+02  4.98871431E+02  1.37173438E+03  1.11953944E+02
  1.01173582E+02  4.98382106E+01  7.63007119E+02  3.49131956E+02  4.69350655E+02
  9.23600443E+02  8.30066580E+02  2.67761264E+03  2.13788333E+02  1.92160287E+02
  1.13088723E+02  1.13025941E+03  6.11087725E+02  8.19371089E+02  1.14737423E+03
%FLAG BONDS_INC_HYDROGEN                                                        
%FORMAT(10I8)                                                                   
    2031    4929       1    2028    4926       1    2025    4917       3    2025
    4920       3    2025    4923       3    2022    4908       3    2022    4911
       3    2022    4914       3    2019    4899       3    2019    4902       3
    2019    4905       3    2013    4893       3    2013    4896       3    2007
    4890       1    2004    4887       1    1998    4884       1    1995    4881
       1    1992    4872       3    1992    4875       3    1992    4878       3
    1989    4863       3    1989    4866       3    1989    4869       3    1986
    4854       3    1986    4857       3    1986    4860       3    1980    4848
       3    1980    4851       3    1974    4845       1    1971    4842       1
    1965    4839       1    1962    4836       1    1959    4827       3    1959
    4830       3    1959    4833       3    1956    4818       3    1956    4821
       3    1956    4824       3    1953    4809       3    1953    4812       3
    1953    4815       3    1947    4803       3    1947    4806       3    1941
    4800       1    1938    4797       1    1932    4794       1    1929    4791
       1    1926    4782       3    1926    4785       3    1926    4788       3
    1923    4773       3    1923    4776       3    1923    4779       3    1920
    4764       3    1920    4767       3    1920    4770       3    1914    4758
       3    1914    4761       3    1908    4755       1    1905    4752       1
    1899    4749       1    1896    4746       1    1893    4737       3    1893
    4740       3    1893    4743       3    1890    4728       3    1890    4731
       3    1890    4734       3    1887    4719       3    1887    4722       3
    1887    4725       3    1881    4713       3    1881    4716       3    1875
    4710       1    1872    4707       1    1866    4704       1    1863    4701
       1    1860    4692       3    1860    4695       3    1860    4698       3
    1857    4683       3    1857    4686       3    1857    4689       3    1854
    4674       3    1854    4677       3    1854    4680       3    1848    4668
       3    1848    4671       3    1842    4665       1    1839    4662       1
    1833    4659       1    1830    4656       1    1827    4647       3    1827
    4650       3    1827    4653       3    1824    4638       3    1824    4641
       3    1824    4644       3    1821    4629       3    1821    4632       3
    1821    4635       3    1815    4623       3    1815    4626       3    1809
    4620       1    1806    4617       1    1800    4614       1    1797    4611
       1    1794    4602       3    1794    4605       3    1794    4608       3
    1791    4593       3    1791    4596       3    1791    4599       3    1788
    4584       3    1788    4587       3    1788    4590       3    1782    4578
       3    1782    4581       3    1776    4575       1    1773    4572       1
    1767    4569       1    1764    4566       1    1761    4557       3    1761
    4560       3    1761    4563       3    1758    4548       3    1758    4551
       3    1758    4554       3    1755    4539       3    1755    4542       3
    1755    4545       3    1749    4533       3    1749    4536       3    1743
    4530       1    1740    4527       1    1734    4524       1    1731    4521
       1    1728    4512       3    1728    4515       3    1728    4518       3
    1725    4503       3    1725    4506       3    1725    4509       3    1722
    4494       3    1722    4497       3    1722    4500       3    1716    4488
       3    1716    4491       3    1710    4485       1    1707    4482       1
    1701    4479       1    1698    4476       1    1695    4467       3    1695
    4470       3    1695    4473       3    1692    4458       3    1692    4461
       3    1692    4464       3    1689    4449       3    1689    4452       3
    1689    4455       3    1683    4443       3    1683    4446       3    1677
    4440       1    1674    4437       1    1668    4434       1    1665    4431
       1    1662    4422       3    1662    4425       3    1662    4428       3
    1659    4413       3    1659    4416       3    1659    4419       3    1656
    4404       3    1656    4407       3    1656    4410       3    1650    4398
       3    1650    4401       3    1644    4395       1    1641    4392       1
    1635    4389       1    1632    4386       1    1629    4383       1    1626
    4380       1    1623    4371       3    1623    4374       3    1623    4377
       3    1620    4362       3    1620    4365       3    1620    4368       3
    1617    4353       3    1617    4356       3    1617    4359       3    1611
    4347       3    1611    4350       3    1605    4344       1    1602    4341
       1    1596    4338       1    1593    4335       1    1590    4326       3
    1590    4329       3    1590    4332       3    1587    4317       3    1587
    4320       3    1587    4323       3    1584    4308       3    1584    4311
       3    1584    4314       3    1578    4302       3    1578    4305       3
    1572    4299       1    1569    4296       1    1563    4293       1    1560
    4290       1    1557    4281       3    1557    4284       3    1557    4287
       3    1554    4272       3    1554    4275       3    1554    4278       3
    1551    4263       3    1551    4266       3    1551    4269       3    1545
    4257       3    1545    4260       3    1539    4254       1    1536    4251
       1    1530    4248       1    1527    4245       1    1524    4236       3
    1524    4239       3    1524    4242       3    1521    4227       3    1521
    4230       3    1521    4233       3    1518    4218       3    1518    4221
       3    1518    4224       3    1512    4212       3    1512    4215       3
    1506    4209       1    1503    4206       1    1497    4203       1    1494
    4200       1    1491    4191       3    1491    4194       3    1491    4197
       3    1488    4182       3    1488    4185       3    1488    4188       3
    1485    4173       3    1485    4176       3    1485    4179       3    1479
    4167       3    1479    4170       3    1473    4164       1    1470    4161
       1    1464    4158       1    1461    4155       1    1458    4146       3
    1458    4149       3    1458    4152       3    1455    4137       3    1455
    4140       3    1455    4143       3    1452    4128       3    1452    4131
       3    1452    4134       3    1446    4122       3    1446    4125       3
    1440    4119       1    1437    4116       1    1431    4113       1    1428
    4110       1    1425    4101       3    1425    4104       3    1425    4107
       3    1422    4092       3    1422    4095       3    1422    4098       3
    1419    4083       3    1419    4086       3    1419    4089       3    1413
    4077       3    1413    4080       3    1407    4074       1    1404    4071
       1    1398    4068       1    1395    4065       1    1392    4056       3
    1392    4059       3    1392    4062       3    1389    4047       3    1389
    4050       3    1389    4053       3    1386    4038       3    1386    4041
       3    1386    4044       3    1380    4032       3    1380    4035       3
    1374    4029       1    1371    4026       1    1365    4023       1    1362
    4020       1    1359    4011       3    1359    4014       3    1359    4017
       3    1356    4002       3    1356    4005       3    1356    4008       3
    1353    3993       3    1353    3996       3    1353    3999       3    1347
    3987       3    1347    3990       3    1341    3984       1    1338    3981
       1    1332    3978       1    1329    3975       1    1326    3966       3
    1326    3969       3    1326    3972       3    1323    3957       3    1323
    3960       3    1323    3963       3    1320    3948       3    1320    3951
       3    1320    3954       3    1314    3942       3    1314    3945       3
    1308    3939       1    1305    3936       1    1299    3933       1    1296
    3930       1    1293    3921       3    1293    3924       3    1293    3927
       3    1290    3912       3    1290    3915       3    1290    3918       3
    1287    3903       3    1287    3906       3    1287    3909       3    1281
    3897       3    1281    3900       3    1275    3894       1    1272    3891
       1    1266    3888       1    1263    3885       1    1260    3876       3
    1260    3879       3    1260    3882       3    1257    3867       3    1257
    3870       3    1257    3873       3    1254    3858       3    1254    3861
       3    1254    3864       3    1248    3852       3    1248    3855       3
    1242    3849       1    1239    3846       1    1233    3843       1    1230
    3840       1    1227    3831       3    1227    3834       3    1227    3837
       3    1224    3822       3    1224    3825       3    1224    3828       3
    1221    3813       3    1221    3816       3    1221    3819       3    1215
    3807       3    1215    3810       3    1209    3804       1    1206    3801
       1    1200    3792       6    1200    3795       6    1200    3798       6
    1197    3789       6    1194    3783       6    1194    3786       6    1191
    3777       6    1191    3780       6    1188    3774       6    1185    3768
       6    1185    3771       6    1182    3762       6    1182    3765       6
    1179    3759       6    1176    3753       6    1176    3756       6    1173
    3747       6    1173    3750       6    1170    3744       6    1167    3738
       6    1167    3741       6    1164    3732       6    1164    3735       6
    1161    3729       6    1158    3723       6    1158    3726       6    1155
    3717       6    1155    3720       6    1152    3714       6    1149    3708
       6    1149    3711       6    1146    3702       6    1146    3705       6
    1143    3699       6    1140    3693       6    1140    3696       6    1137
    3687       6    1137    3690       6    1134    3684       6    1131    3678
       6    1131    3681       6    1128    3672       6    1128    3675       6
    1125    3669       6    1122    3663       6    1122    3666       6    1119
    3657       6    1119    3660       6    1116    3654       6    1113    3648
       6    1113    3651       6    1110    3642       6    1110    3645       6
    1107    3639       6    1104    3633       6    1104    3636       6    1101
    3627       6    1101    3630       6    1098    3624       6    1095    3618
       6    1095    3621       6    1092    3612       6    1092    3615       6
    1089    3609       1    1086    3606       1    1083    3597       3    1083
    3600       3    1083    3603       3    1080    3588       3    1080    3591
       3    1080    3594       3    1077    3579       3    1077    3582       3
    1077    3585       3    1071    3573       3    1071    3576       3    1065
    3570       1    1062    3567       1    1056    3564       1    1053    3561
       1    1050    3552       3    1050    3555       3    1050    3558       3
    1047    3543       3    1047    3546       3    1047    3549       3    1044
    3534       3    1044    3537       3    1044    3540       3    1038    3528
       3    1038    3531       3    1032    3525       1    1029    3522       1
    1023    3519       1    1020    3516       1    1017    3507       3    1017
    3510       3    1017    3513       3    1014    3498       3    1014    3501
       3    1014    3504       3    1011    3489       3    1011    3492       3
    1011    3495       3    1005    3483       3    1005    3486       3     999
    3480       1     996    3477       1     990    3474       1     987    3471
       1     984    3462       3     984    3465       3     984    3468       3
     981    3453       3     981    3456       3     981    3459       3     978
    3444       3     978    3447       3     978    3450       3     972    3438
       3     972    3441       3     966    3435       1     963    3432       1
     957    3429       1     954    3426       1     951    3417       3     951
    3420       3     951    3423       3     948    3408       3     948    3411
       3     948    3414       3     945    3399       3     945    3402       3
     945    3405       3     939    3393       3     939    3396       3     933
    3390       1     930    3387       1     924    3384       1     921    3381
       1     918    3372       3     918    3375       3     918    3378       3
     915    3363       3     915    3366       3     915    3369       3     912
    3354       3     912    3357       3     912    3360       3     906    3348
       3     906    3351       3     900    3345       1     897    3342       1
     891    3339       1     888    3336       1     885    3327       3     885
    3330       3     885    3333       3     882    3318       3     882    3321
       3     882    3324       3     879    3309       3     879    3312       3
     879    3315       3     873    3303       3     873    3306       3     867
    3300       1     864    3297       1     858    3294       1     855    3291
       1     852    3282       3     852    3285       3     852    3288       3
     849    3273       3     849    3276       3     849    3279       3     846
    3264       3     846    3267       3     846    3270       3     840    3258
       3     840    3261       3     834    3255       1     831    3252       1
     825    3249       1     822    3246       1     819    3237       3     819
    3240       3     819    3243       3     816    3228       3     816    3231
       3     816    3234       3     813    3219       3     813    3222       3
     813    3225       3     807    3213       3     807    3216       3     801
    3210       1     798    3207       1     792    3204       1     789    3201
       1     786    3192       3     786    3195       3     786    3198       3
     783    3183       3     783    3186       3     783    3189       3     780
    3174       3     780    3177       3     780    3180       3     774    3168
       3     774    3171       3     768    3165       1     765    3162       1
     759    3159       1     756    3156       1     753    3147       3     753
    3150       3     753    3153       3     750    3138       3     750    3141
       3     750    3144       3     747    3129       3     747    3132       3
     747    3135       3     741    3123       3     741    3126       3     735
    3120       1     732    3117       1     726    3108       6     726    3111
       6     726    3114       6     723    3105       6     720    3099       6
     720    3102       6     717    3093       6     717    3096       6     714
    3090       6     711    3084       6     711    3087       6     708    3078
       6     708    3081       6     705    3075       6     702    3069       6
     702    3072       6     699    3063       6     699    3066       6     696
    3060       6     693    3054       6     693    3057       6     690    3048
       6     690    3051       6     687    3045       6     684    3039       6
     684    3042       6     681    3033       6     681    3036       6     678
    3030       6     675    3024       6     675    3027       6     672    3018
       6     672    3021       6     669    3015       6     666    3009       6
     666    3012       6     663    3003       6     663    3006       6     660
    3000       6     657    2994       6     657    2997       6     654    2988
       6     654    2991       6     651    2985       6     648    2979       6
     648    2982       6     645    2973       6     645    2976       6     642
    2970       6     639    2964       6     639    2967       6     636    2958
       6     636    2961       6     633    2955       6     630    2949       6
     630    2952       6     627    2943       6     627    2946       6     618
    2940       1     615    2937       1     609    2934       1     606    2931
       1     603    2922       3     603    2925       3     603    2928       3
     600    2913       3     600    2916       3     600    2919       3     597
    2904       3     597    2907       3     597    2910       3     591    2898
       3     591    2901       3     585    2895       1     582    2892       1
     576    2889       1     573    2886       1     570    2877       3     570
    2880       3     570    2883       3     567    2868       3     567    2871
       3     567    2874       3     564    2859       3     564    2862       3
     564    2865       3     558    2853       3     558    2856       3     552
    2850       1     549    2847       1     543    2844       1     540    2841
       1     537    2832       3     537    2835       3     537    2838       3
     534    2823       3     534    2826       3     534    2829       3     531
    2814       3     531    2817       3     531    2820       3     525    2808
       3     525    2811       3     519    2805       1     516    2802       1
     510    2799       1     507    2796       1     504    2787       3     504
    2790       3     504    2793       3     501    2778       3     501    2781
       3     501    2784       3     498    2769       3     498    2772       3
     498    2775       3     492    2763       3     492    2766       3     486
    2760       1     483    2757       1     477    2754       1     474    2751
       1     471    2742       3     471    2745       3     471    2748       3
     468    2733       3     468    2736       3     468    2739       3     465
    2724       3     465    2727       3     465    2730       3     459    2718
       3     459    2721       3     453    2715       1     450    2712       1
     444    2709       1     441    2706       1     438    2697       3     438
    2700       3     438    2703       3     435    2688       3     435    2691
       3     435    2694       3     432    2679       3     432    2682       3
     432    2685       3     426    2673       3     426    2676       3     420
    2670       1     417    2667       1     411    2664       1     408    2661
       1     405    2652       3     405    2655       3     405    2658       3
     402    2643       3     402    2646       3     402    2649       3     399
    2634       3     399    2637       3     399    2640       3     393    2628
       3     393    2631       3     387    2625       1     384    2622       1
     378    2619       1     375    2616       1     372    2607       3     372
    2610       3     372    2613       3     369    2598       3     369    2601
       3     369    2604       3     366    2589       3     366    2592       3
     366    2595       3     360    2583       3     360    2586       3     354
    2580       1     351    2577       1     345    2574       1     342    2571
       1     339    2562       3     339    2565       3     339    2568       3
     336    2553       3     336    2556       3     336    2559       3     333
    2544       3     333    2547       3     333    2550       3     327    2538
       3     327    2541       3     321    2535       1     318    2532       1
     312    2529       1     309    2526       1     306    2517       3     306
    2520       3     306    2523       3     303    2508       3     303    2511
       3     303    2514       3     300    2499       3     300    2502       3
     300    2505       3     294    2493       3     294    2496       3     288
    2490       1     285    2487       1     279    2484       1     276    2481
       1     273    2472       3     273    2475       3     273    2478       3
     270    2463       3     270    2466       3     270    2469       3     267
    2454       3     267    2457       3     267    2460       3     261    2448
       3     261    2451       3     255    2445       1     252    2442       1
     246    2439       1     243    2436       1     240    2427       3     240
    2430       3     240    2433       3     237    2418       3     237    2421
       3     237    2424       3     234    2409       3     234    2412       3
     234    2415       3     228    2403       3     228    2406       3     222
    2400       1     219    2397       1     213    2388       6     213    2391
       6     213    2394       6     210    2385       6     207    2379       6
     207    2382       6     204    2373       6     204    2376       6     201
    2370       6     198    2364       6     198    2367       6     195    2358
       6     195    2361       6     192    2355       6     189    2349       6
     189    2352       6     186    2343       6     186    2346       6     183
    2340       6     180    2334       6     180    2337       6     177    2328
       6     177    2331       6     174    2325       6     171    2319       6
     171    2322       6     168    2313       6     168    2316       6     165
    2310       6     162    2304       6     162    2307       6     159    2298
       6     159    2301       6     156    2295       6     153    2289       6
     153    2292       6     150    2283       6     150    2286       6     147
    2280       6     144    2274       6     144    2277       6     141    2268
       6     141    2271       6     138    2265       6     135    2259       6
     135    2262       6     132    2253       6     132    2256       6     129
    2250       6     126    2244       6     126    2247       6     123    2238
       6     123    2241       6     120    2235       6     117    2229       6
     117    2232       6     114    2223       6     114    2226       6     108
    2217       6     108    2220       6     105    2211       6     105    2214
       6     102    2208       6      99    2202       6      99    2205       6
      96    2196       6      96    2199       6      93    2193       6      90
    2187       6      90    2190       6      87    2181       6      87    2184
       6      84    2178       6      81    2172       6      81    2175       6
      78    2166       6      78    2169       6      75    2163       6      72
    2157       6      72    2160       6      69    2151       6      69    2154
       6      66    2148       6      63    2142       6      63    2145       6
      60    2136       6      60    2139       6      57    2133       6      54
    2127       6      54    2130       6      51    2121       6      51    2124
       6      48    2118       6      45    2112       6      45    2115       6
      42    2106       6      42    2109       6      39    2103       6      36
    2097       6      36    2100       6      33    2091       6      33    2094
       6      30    2088       6      27    2082       6      27    2085       6
      24    2076       6      24    2079       6      21    2073       6      18
    2067       6      18    2070       6      15    2061       6      15    2064
       6      12    2058       6       9    2052       6       9    2055       6
       6    2046       6       6    2049       6       3    2043       6       0
    2034       6       0    2037       6       0    2040       6
%FLAG BONDS_WITHOUT_HYDROGEN                                                    
%FORMAT(10I8)                                                                   
    2028    2031       2    2016    2019       4    2016    2022       4    2016
    2025       4    2013    2016       4    2010    2013       5    2010    2028
       2    2007    2010       2    2004    2007       2    2001    2004       2
    2001    2031       2    1995    1998       2    1983    1986       4    1983
    1989       4    1983    1992       4    1980    1983       4    1977    1980
       5    1977    1995       2    1974    1977       2    1971    1974       2
    1968    1971       2    1968    1998       2    1962    1965       2    1950
    1953       4    1950    1956       4    1950    1959       4    1947    1950
       4    1944    1947       5    1944    1962       2    1941    1944       2
    1938    1941       2    1935    1938       2    1935    1965       2    1929
    1932       2    1917    1920       4    1917    1923       4    1917    1926
       4    1914    1917       4    1911    1914       5    1911    1929       2
    1908    1911       2    1905    1908       2    1902    1905       2    1902
    1932       2    1896    1899       2    1884    1887       4    1884    1890
       4    1884    1893       4    1881    1884       4    1878    1881       5
    1878    1896       2    1875    1878       2    1872    1875       2    1869
    1872       2    1869    1899       2    1863    1866       2    1851    1854
       4    1851    1857       4    1851    1860       4    1848    1851       4
    1845    1848       5    1845    1863       2    1842    1845       2    1839
    1842       2    1836    1839       2    1836    1866       2    1830    1833
       2    1818    1821       4    1818    1824       4    1818    1827       4
    1815    1818       4    1812    1815       5    1812    1830       2    1809
    1812       2    1806    1809       2    1803    1806       2    1803    1833
       2    1797    1800       2    1785    1788       4    1785    1791       4
    1785    1794       4    1782    1785       4    1779    1782       5    1779
    1797       2    1776    1779       2    1773    1776       2    1770    1773
       2    1770    1800       2    1764    1767       2    1752    1755       4
    1752    1758       4    1752    1761       4    1749    1752       4    1746
    1749       5    1746    1764       2    1743    1746       2    1740    1743
       2    1737    1740       2    1737    1767       2    1731    1734       2
    1719    1722       4    1719    1725       4    1719    1728       4    1716
    1719       4    1713    1716       5    1713    1731       2    1710    1713
       2    1707    1710       2    1704    1707       2    1704    1734       2
    1698    1701       2    1686    1689       4    1686    1692       4    1686
    1695       4    1683    1686       4    1680    1683       5    1680    1698
       2    1677    1680       2    1674    1677       2    1671    1674       2
    1671    1701       2    1665    1668       2    1653    1656       4    1653
    1659       4    1653    1662       4    1650    1653       4    1647    1650
       5    1647    1665       2    1644    1647       2    1641    1644       2
    1638    1641       2    1638    1668       2    1632    1635       2    1626
    1629       2    1614    1617       4    1614    1620       4    1614    1623
       4    1611    1614       4    1608    1611       5    1608    1626       2
    1605    1608       2    1602    1605       2    1599    1602       2    1599
    1629       2    1593    1596       2    1581    1584       4    1581    1587
       4    1581    1590       4    1578    1581       4    1575    1578       5
    1575    1593       2    1572    1575       2    1569    1572       2    1566
    1569       2    1566    1596       2    1560    1563       2    1548    1551
       4    1548    1554       4    1548    1557       4    1545    1548       4
    1542    1545       5    1542    1560       2    1539    1542       2    1536
    1539       2    1533    1536       2    1533    1563       2    1527    1530
       2    1515    1518       4    1515    1521       4    1515    1524       4
    1512    1515       4    1509    1512       5    1509    1527       2    1506
    1509       2    1503    1506       2    1500    1503       2    1500    1530
       2    1494    1497       2    1482    1485       4    1482    1488       4
    1482    1491       4    1479    1482       4    1476    1479       5    1476
    1494       2    1473    1476       2    1470    1473       2    1467    1470
       2    1467    1497       2    1461    1464       2    1449    1452       4
    1449    1455       4    1449    1458       4    1446    1449       4    1443
    1446       5    1443    1461       2    1440    1443       2    1437    1440
       2    1434    1437       2    1434    1464       2    1428    1431       2
    1416    1419       4    1416    1422       4    1416    1425       4    1413
    1416       4    1410    1413       5    1410    1428       2    1407    1410
       2    1404    1407       2    1401    1404       2    1401    1431       2
    1395    1398       2    1383    1386       4    1383    1389       4    1383
    1392       4    1380    1383       4    1377    1380       5    1377    1395
       2    1374    1377       2    1371    1374       2    1368    1371       2
    1368    1398       2    1362    1365       2    1350    1353       4    1350
    1356       4    1350    1359       4    1347    1350       4    1344    1347
       5    1344    1362       2    1341    1344       2    1338    1341       2
    1335    1338       2    1335    1365       2    1329    1332       2    1317
    1320       4    1317    1323       4    1317    1326       4    1314    1317
       4    1311    1314       5    1311    1329       2    1308    1311       2
    1305    1308       2    1302    1305       2    1302    1332       2    1296
    1299       2    1284    1287       4    1284    1290       4    1284    1293
       4    1281    1284       4    1278    1281       5    1278    1296       2
    1275    1278       2    1272    1275       2    1269    1272       2    1269
    1299       2    1263    1266       2    1251    1254       4    1251    1257
       4    1251    1260       4    1248    1251       4    1245    1248       5
    1245    1263       2    1242    1245       2    1239    1242       2    1236
    1239       2    1236    1266       2    1230    1233       2    1218    1221
       4    1218    1224       4    1218    1227       4    1215    1218       4
    1212    1215       5    1212    1230       2    1209    1212       2    1206
    1209       2    1203    1206       2    1203    1233       2    1197    1200
       7    1197    1203       5    1194    1197       7    1191    1194       7
    1188    1191       7    1188    1236       5    1185    1188       7    1182
    1185       7    1179    1182       7    1179    1269       5    1176    1179
       7    1173    1176       7    1170    1173       7    1170    1302       5
    1167    1170       7    1164    1167       7    1161    1164       7    1161
    1335       5    1158    1161       7    1155    1158       7    1152    1155
       7    1152    1368       5    1149    1152       7    1146    1149       7
    1143    1146       7    1143    1401       5    1140    1143       7    1137
    1140       7    1134    1137       7    1134    1434       5    1131    1134
       7    1128    1131       7    1125    1128       7    1125    1467       5
    1122    1125       7    1119    1122       7    1116    1119       7    1116
    1500       5    1113    1116       7    1110    1113       7    1107    1110
       7    1107    1533       5    1104    1107       7    1101    1104       7
    1098    1101       7    1098    1566       5    1095    1098       7    1092
    1095       7    1086    1089       2    1074    1077       4    1074    1080
       4    1074    1083       4    1071    1074       4    1068    1071       5
    1068    1086       2    1065    1068       2    1062    1065       2    1059
    1062       2    1059    1089       2    1053    1056       2    1041    1044
       4    1041    1047       4    1041    1050       4    1038    1041       4
    1035    1038       5    1035    1053       2    1032    1035       2    1029
    1032       2    1026    1029       2    1026    1056       2    1020    1023
       2    1008    1011       4    1008    1014       4    1008    1017       4
    1005    1008       4    1002    1005       5    1002    1020       2     999
    1002       2     996     999       2     993     996       2     993    1023
       2     987     990       2     975     978       4     975     981       4
     975     984       4     972     975       4     969     972       5     969
     987       2     966     969       2     963     966       2     960     963
       2     960     990       2     954     957       2     942     945       4
     942     948       4     942     951       4     939     942       4     936
     939       5     936     954       2     933     936       2     930     933
       2     927     930       2     927     957       2     921     924       2
     909     912       4     909     915       4     909     918       4     906
     909       4     903     906       5     903     921       2     900     903
       2     897     900       2     894     897       2     894     924       2
     888     891       2     876     879       4     876     882       4     876
     885       4     873     876       4     870     873       5     870     888
       2     867     870       2     864     867       2     861     864       2
     861     891       2     855     858       2     843     846       4     843
     849       4     843     852       4     840     843       4     837     840
       5     837     855       2     834     837       2     831     834       2
     828     831       2     828     858       2     822     825       2     810
     813       4     810     816       4     810     819       4     807     810
       4     804     807       5     804     822       2     801     804       2
     798     801       2     795     798       2     795     825       2     789
     792       2     777     780       4     777     783       4     777     786
       4     774     777       4     771     774       5     771     789       2
     768     771       2     765     768       2     762     765       2     762
     792       2     756     759       2     744     747       4     744     750
       4     744     753       4     741     744       4     738     741       5
     738     756       2     735     738       2     732     735       2     729
     732       2     729     759       2     723     726       7     723     729
       5     720     723       7     717     720       7     714     717       7
     714     762       5     711     714       7     708     711       7     705
     708       7     705     795       5     702     705       7     699     702
       7     696     699       7     696     828       5     693     696       7
     690     693       7     687     690       7     687     861       5     684
     687       7     681     684       7     678     681       7     678     894
       5     675     678       7     672     675       7     669     672       7
     669     927       5     666     669       7     663     666       7     660
     663       7     660     960       5     657     660       7     654     657
       7     651     654       7     651     993       5     648     651       7
     645     648       7     642     645       7     642    1026       5     639
     642       7     636     639       7     633     636       7     633    1059
       5     630     633       7     627     630       7     624     627       7
     624    1092       7     624    1599       5     621     624       5     621
    1632       2     618     621       2     615     618       2     612     615
       2     612    1635       2     606     609       2     594     597       4
     594     600       4     594     603       4     591     594       4     588
     591       5     588     606       2     585     588       2     582     585
       2     579     582       2     579     609       2     573     576       2
     561     564       4     561     567       4     561     570       4     558
     561       4     555     558       5     555     573       2     552     555
       2     549     552       2     546     549       2     546     576       2
     540     543       2     528     531       4     528     534       4     528
     537       4     525     528       4     522     525       5     522     540
       2     519     522       2     516     519       2     513     516       2
     513     543       2     507     510       2     495     498       4     495
     501       4     495     504       4     492     495       4     489     492
       5     489     507       2     486     489       2     483     486       2
     480     483       2     480     510       2     474     477       2     462
     465       4     462     468       4     462     471       4     459     462
       4     456     459       5     456     474       2     453     456       2
     450     453       2     447     450       2     447     477       2     441
     444       2     429     432       4     429     435       4     429     438
       4     426     429       4     423     426       5     423     441       2
     420     423       2     417     420       2     414     417       2     414
     444       2     408     411       2     396     399       4     396     402
       4     396     405       4     393     396       4     390     393       5
     390     408       2     387     390       2     384     387       2     381
     384       2     381     411       2     375     378       2     363     366
       4     363     369       4     363     372       4     360     363       4
     357     360       5     357     375       2     354     357       2     351
     354       2     348     351       2     348     378       2     342     345
       2     330     333       4     330     336       4     330     339       4
     327     330       4     324     327       5     324     342       2     321
     324       2     318     321       2     315     318       2     315     345
       2     309     312       2     297     300       4     297     303       4
     297     306       4     294     297       4     291     294       5     291
     309       2     288     291       2     285     288       2     282     285
       2     282     312       2     276     279       2     264     267       4
     264     270       4     264     273       4     261     264       4     258
     261       5     258     276       2     255     258       2     252     255
       2     249     252       2     249     279       2     243     246       2
     231     234       4     231     237       4     231     240       4     228
     231       4     225     228       5     225     243       2     222     225
       2     219     222       2     216     219       2     216     246       2
     210     213       7     210     216       5     207     210       7     204
     207       7     201     204       7     201     249       5     198     201
       7     195     198       7     192     195       7     192     282       5
     189     192       7     186     189       7     183     186       7     183
     315       5     180     183       7     177     180       7     174     177
       7     174     348       5     171     174       7     168     171       7
     165     168       7     165     381       5     162     165       7     159
     162       7     156     159       7     156     414       5     153     156
       7     150     153       7     147     150       7     147     447       5
     144     147       7     141     144       7     138     141       7     138
     480       5     135     138       7     132     135       7     129     132
       7     129     513       5     126     129       7     123     126       7
     120     123       7     120     546       5     117     120       7     114
     117       7     111     114       7     111     579       5     111     612
       5     108     111       7     105     108       7     102     105       7
     102    1638       5      99     102       7      96      99       7      93
      96       7      93    1671       5      90      93       7      87      90
       7      84      87       7      84    1704       5      81      84       7
      78      81       7      75      78       7      75    1737       5      72
      75       7      69      72       7      66      69       7      66    1770
       5      63      66       7      60      63       7      57      60       7
      57    1803       5      54      57       7      51      54       7      48
      51       7      48    1836       5      45      48       7      42      45
       7      39      42       7      39    1869       5      36      39       7
      33      36       7      30      33       7      30    1902       5      27
      30       7      24      27       7      21      24       7      21    1935
       5      18      21       7      15      18       7      12      15       7
      12    1968       5       9      12       7       6       9       7       3
       6       7       3    2001       5       0       3       7    5013    5016
       7    5007    5013       7    5004    5010       7    5001    5007       7
    4998    5004       7    4995    4998       7    4995    5001       7    4983
    5016       8    4980    5016       8    4977    5016       8    4974    5013
       8    4971    5013       8    4968    5010       8    4965    5010       8
    4962    5007       8    4959    5007       8    4956    5004       8    4953
    5004       8    4950    5001       8    4947    5001       8    4944    4998
       8    4941    4998       8    4938    4995       8    4935    4995       8
    4932    4986       9    4932    4989       9    4932    4992       9    4932
    5010      10
%FLAG ANGLES_INC_HYDROGEN                                                       
%FORMAT(10I8)                                                                   
    4920    2025    4923       1    4917    2025    4920       1    4917    2025
    4923       1    4911    2022    4914       1    4908    2022    4911       1
    4908    2022    4914       1    4902    2019    4905       1    4899    2019
    4902       1    4899    2019    4905       1    4893    2013    4896       1
    4875    1992    4878       1    4872    1992    4875       1    4872    1992
    4878       1    4866    1989    4869       1    4863    1989    4866       1
    4863    1989    4869       1    4857    1986    4860       1    4854    1986
    4857       1    4854    1986    4860       1    4848    1980    4851       1
    4830    1959    4833       1    4827    1959    4830       1    4827    1959
    4833       1    4821    1956    4824       1    4818    1956    4821       1
    4818    1956    4824       1    4812    1953    4815       1    4809    1953
    4812       1    4809    1953    4815       1    4803    1947    4806       1
    4785    1926    4788       1    4782    1926    4785       1    4782    1926
    4788       1    4776    1923    4779       1    4773    1923    4776       1
    4773    1923    4779       1    4767    1920    4770       1    4764    1920
    4767       1    4764    1920    4770       1    4758    1914    4761       1
    4740    1893    4743       1    4737    1893    4740       1    4737    1893
    4743       1    4731    1890    4734       1    4728    1890    4731       1
    4728    1890    4734       1    4722    1887    4725       1    4719    1887
    4722       1    4719    1887    4725       1    4713    1881    4716       1
    4695    1860    4698       1    4692    1860    4695       1    4692    1860
    4698       1    4686    1857    4689       1    4683    1857    4686       1
    4683    1857    4689       1    4677    1854    4680       1    4674    1854
    4677       1    4674    1854    4680       1    4668    1848    4671       1
    4650    1827    4653       1    4647    1827    4650       1    4647    1827
    4653       1    4641    1824    4644       1    4638    1824    4641       1
    4638    1824    4644       1    4632    1821    4635       1    4629    1821
    4632       1    4629    1821    4635       1    4623    1815    4626       1
    4605    1794    4608       1    4602    1794    4605       1    4602    1794
    4608       1    4596    1791    4599       1    4593    1791    4596       1
    4593    1791    4599       1    4587    1788    4590       1    4584    1788
    4587       1    4584    1788    4590       1    4578    1782    4581       1
    4560    1761    4563       1    4557    1761    4560       1    4557    1761
    4563       1    4551    1758    4554       1    4548    1758    4551       1
    4548    1758    4554       1    4542    1755    4545       1    4539    1755
    4542       1    4539    1755    4545       1    4533    1749    4536       1
    4515    1728    4518       1    4512    1728    4515       1    4512    1728
    4518       1    4506    1725    4509       1    4503    1725    4506       1
    4503    1725    4509       1    4497    1722    4500       1    4494    1722
    4497       1    4494    1722    4500       1    4488    1716    4491       1
    4470    1695    4473       1    4467    1695    4470       1    4467    1695
    4473       1    4461    1692    4464       1    4458    1692    4461       1
    4458    1692    4464       1    4452    1689    4455       1    4449    1689
    4452       1    4449    1689    4455       1    4443    1683    4446       1
    4425    1662    4428       1    4422    1662    4425       1    4422    1662
    4428       1    4416    1659    4419       1    4413    1659    4416       1
    4413    1659    4419       1    4407    1656    4410       1    4404    1656
    4407       1    4404    1656    4410       1    4398    1650    4401       1
    4374    1623    4377       1    4371    1623    4374       1    4371    1623
    4377       1    4365    1620    4368       1    4362    1620    4365       1
    4362    1620    4368       1    4356    1617    4359       1    4353    1617
    4356       1    4353    1617    4359       1    4347    1611    4350       1
    4329    1590    4332       1    4326    1590    4329       1    4326    1590
    4332       1    4320    1587    4323       1    4317    1587    4320       1
    4317    1587    4323       1    4311    1584    4314       1    4308    1584
    4311       1    4308    1584    4314       1    4302    1578    4305       1
    4284    1557    4287       1    4281    1557    4284       1    4281    1557
    4287       1    4275    1554    4278       1    4272    1554    4275       1
    4272    1554    4278       1    4266    1551    4269       1    4263    1551
    4266       1    4263    1551    4269       1    4257    1545    4260       1
    4239    1524    4242       1    4236    1524    4239       1    4236    1524
    4242       1    4230    1521    4233       1    4227    1521    4230       1
    4227    1521    4233       1    4221    1518    4224       1    4218    1518
    4221       1    4218    1518    4224       1    4212    1512    4215       1
    4194    1491    4197       1    4191    1491    4194       1    4191    1491
    4197       1    4185    1488    4188       1    4182    1488    4185       1
    4182    1488    4188       1    4176    1485    4179       1    4173    1485
    4176       1    4173    1485    4179       1    4167    1479    4170       1
    4149    1458    4152       1    4146    1458    4149       1    4146    1458
    4152       1    4140    1455    4143       1    4137    1455    4140       1
    4137    1455    4143       1    4131    1452    4134       1    4128    1452
    4131       1    4128    1452    4134       1    4122    1446    4125       1
    4104    1425    4107       1    4101    1425    4104       1    4101    1425
    4107       1    4095    1422    4098       1    4092    1422    4095       1
    4092    1422    4098       1    4086    1419    4089       1    4083    1419
    4086       1    4083    1419    4089       1    4077    1413    4080       1
    4059    1392    4062       1    4056    1392    4059       1    4056    1392
    4062       1    4050    1389    4053       1    4047    1389    4050       1
    4047    1389    4053       1    4041    1386    4044       1    4038    1386
    4041       1    4038    1386    4044       1    4032    1380    4035       1
    4014    1359    4017       1    4011    1359    4014       1    4011    1359
    4017       1    4005    1356    4008       1    4002    1356    4005       1
    4002    1356    4008       1    3996    1353    3999       1    3993    1353
    3996       1    3993    1353    3999       1    3987    1347    3990       1
    3969    1326    3972       1    3966    1326    3969       1    3966    1326
    3972       1    3960    1323    3963       1    3957    1323    3960       1
    3957    1323    3963       1    3951    1320    3954       1    3948    1320
    3951       1    3948    1320    3954       1    3942    1314    3945       1
    3924    1293    3927       1    3921    1293    3924       1    3921    1293
    3927       1    3915    1290    3918       1    3912    1290    3915       1
    3912    1290    3918       1    3906    1287    3909       1    3903    1287
    3906       1    3903    1287    3909       1    3897    1281    3900       1
    3879    1260    3882       1    3876    1260    3879       1    3876    1260
    3882       1    3870    1257    3873       1    3867    1257    3870       1
    3867    1257    3873       1    3861    1254    3864       1    3858    1254
    3861       1    3858    1254    3864       1    3852    1248    3855       1
    3834    1227    3837       1    3831    1227    3834       1    3831    1227
    3837       1    3825    1224    3828       1    3822    1224    3825       1
    3822    1224    3828       1    3816    1221    3819       1    3813    1221
    3816       1    3813    1221    3819       1    3807    1215    3810       1
    3795    1200    3798       2    3792    1200    3795       2    3792    1200
    3798       2    3783    1194    3786       2    3777    1191    3780       2
    3768    1185    3771       2    3762    1182    3765       2    3753    1176
    3756       2    3747    1173    3750       2    3738    1167    3741       2
    3732    1164    3735       2    3723    1158    3726       2    3717    1155
    3720       2    3708    1149    3711       2    3702    1146    3705       2
    3693    1140    3696       2    3687    1137    3690       2    3678    1131
    3681       2    3672    1128    3675       2    3663    1122    3666       2
    3657    1119    3660       2    3648    1113    3651       2    3642    1110
    3645       2    3633    1104    3636       2    3627    1101    3630       2
    3618    1095    3621       2    3612    1092    3615       2    3600    1083
    3603       1    3597    1083    3600       1    3597    1083    3603       1
    3591    1080    3594       1    3588    1080    3591       1    3588    1080
    3594       1    3582    1077    3585       1    3579    1077    3582       1
    3579    1077    3585       1    3573    1071    3576       1    3555    1050
    3558       1    3552    1050    3555       1    3552    1050    3558       1
    3546    1047    3549       1    3543    1047    3546       1    3543    1047
    3549       1    3537    1044    3540       1    3534    1044    3537       1
    3534    1044    3540       1    3528    1038    3531       1    3510    1017
    3513       1    3507    1017    3510       1    3507    1017    3513       1
    3501    1014    3504       1    3498    1014    3501       1    3498    1014
    3504       1    3492    1011    3495       1    3489    1011    3492       1
    3489    1011    3495       1    3483    1005    3486       1    3465     984
    3468       1    3462     984    3465       1    3462     984    3468       1
    3456     981    3459       1    3453     981    3456       1    3453     981
    3459       1    3447     978    3450       1    3444     978    3447       1
    3444     978    3450       1    3438     972    3441       1    3420     951
    3423       1    3417     951    3420       1    3417     951    3423       1
    3411     948    3414       1    3408     948    3411       1    3408     948
    3414       1    3402     945    3405       1    3399     945    3402       1
    3399     945    3405       1    3393     939    3396       1    3375     918
    3378       1    3372     918    3375       1    3372     918    3378       1
    3366     915    3369       1    3363     915    3366       1    3363     915
    3369       1    3357     912    3360       1    3354     912    3357       1
    3354     912    3360       1    3348     906    3351       1    3330     885
    3333       1    3327     885    3330       1    3327     885    3333       1
    3321     882    3324       1    3318     882    3321       1    3318     882
    3324       1    3312     879    3315       1    3309     879    3312       1
    3309     879    3315       1    3303     873    3306       1    3285     852
    3288       1    3282     852    3285       1    3282     852    3288       1
    3276     849    3279       1    3273     849    3276       1    3273     849
    3279       1    3267     846    3270       1    3264     846    3267       1
    3264     846    3270       1    3258     840    3261       1    3240     819
    3243       1    3237     819    3240       1    3237     819    3243       1
    3231     816    3234       1    3228     816    3231       1    3228     816
    3234       1    3222     813    3225       1    3219     813    3222       1
    3219     813    3225       1    3213     807    3216       1    3195     786
    3198       1    3192     786    3195       1    3192     786    3198       1
    3186     783    3189       1    3183     783    3186       1    3183     783
    3189       1    3177     780    3180       1    3174     780    3177       1
    3174     780    3180       1    3168     774    3171       1    3150     753
    3153       1    3147     753    3150       1    3147     753    3153       1
    3141     750    3144       1    3138     750    3141       1    3138     750
    3144       1    3132     747    3135       1    3129     747    3132       1
    3129     747    3135       1    3123     741    3126       1    3111     726
    3114       2    3108     726    3111       2    3108     726    3114       2
    3099     720    3102       2    3093     717    3096       2    3084     711
    3087       2    3078     708    3081       2    3069     702    3072       2
    3063     699    3066       2    3054     693    3057       2    3048     690
    3051       2    3039     684    3042       2    3033     681    3036       2
    3024     675    3027       2    3018     672    3021       2    3009     666
    3012       2    3003     663    3006       2    2994     657    2997       2
    2988     654    2991       2    2979     648    2982       2    2973     645
    2976       2    2964     639    2967       2    2958     636    2961       2
    2949     630    2952       2    2943     627    2946       2    2925     603
    2928       1    2922     603    2925       1    2922     603    2928       1
    2916     600    2919       1    2913     600    2916       1    2913     600
    2919       1    2907     597    2910       1    2904     597    2907       1
    2904     597    2910       1    2898     591    2901       1    2880     570
    2883       1    2877     570    2880       1    2877     570    2883       1
    2871     567    2874       1    2868     567    2871       1    2868     567
    2874       1    2862     564    2865       1    2859     564    2862       1
    2859     564    2865       1    2853     558    2856       1    2835     537
    2838       1    2832     537    2835       1    2832     537    2838       1
    2826     534    2829       1    2823     534    2826       1    2823     534
    2829       1    2817     531    2820       1    2814     531    2817       1
    2814     531    2820       1    2808     525    2811       1    2790     504
    2793       1    2787     504    2790       1    2787     504    2793       1
    2781     501    2784       1    2778     501    2781       1    2778     501
    2784       1    2772     498    2775       1    2769     498    2772       1
    2769     498    2775       1    2763     492    2766       1    2745     471
    2748       1    2742     471    2745       1    2742     471    2748       1
    2736     468    2739       1    2733     468    2736       1    2733     468
    2739       1    2727     465    2730       1    2724     465    2727       1
    2724     465    2730       1    2718     459    2721       1    2700     438
    2703       1    2697     438    2700       1    2697     438    2703       1
    2691     435    2694       1    2688     435    2691       1    2688     435
    2694       1    2682     432    2685       1    2679     432    2682       1
    2679     432    2685       1    2673     426    2676       1    2655     405
    2658       1    2652     405    2655       1    2652     405    2658       1
    2646     402    2649       1    2643     402    2646       1    2643     402
    2649       1    2637     399    2640       1    2634     399    2637       1
    2634     399    2640       1    2628     393    2631       1    2610     372
    2613       1    2607     372    2610       1    2607     372    2613       1
    2601     369    2604       1    2598     369    2601       1    2598     369
    2604       1    2592     366    2595       1    2589     366    2592       1
    2589     366    2595       1    2583     360    2586       1    2565     339
    2568       1    2562     339    2565       1    2562     339    2568       1
    2556     336    2559       1    2553     336    2556       1    2553     336
    2559       1    2547     333    2550       1    2544     333    2547       1
    2544     333    2550       1    2538     327    2541       1    2520     306
    2523       1    2517     306    2520       1    2517     306    2523       1
    2511     303    2514       1    2508     303    2511       1    2508     303
    2514       1    2502     300    2505       1    2499     300    2502       1
    2499     300    2505       1    2493     294    2496       1    2475     273
    2478       1    2472     273    2475       1    2472     273    2478       1
    2466     270    2469       1    2463     270    2466       1    2463     270
    2469       1    2457     267    2460       1    2454     267    2457       1
    2454     267    2460       1    2448     261    2451       1    2430     240
    2433       1    2427     240    2430       1    2427     240    2433       1
    2421     237    2424       1    2418     237    2421       1    2418     237
    2424       1    2412     234    2415       1    2409     234    2412       1
    2409     234    2415       1    2403     228    2406       1    2391     213
    2394       2    2388     213    2391       2    2388     213    2394       2
    2379     207    2382       2    2373     204    2376       2    2364     198
    2367       2    2358     195    2361       2    2349     189    2352       2
    2343     186    2346       2    2334     180    2337       2    2328     177
    2331       2    2319     171    2322       2    2313     168    2316       2
    2304     162    2307       2    2298     159    2301       2    2289     153
    2292       2    2283     150    2286       2    2274     144    2277       2
    2268     141    2271       2    2259     135    2262       2    2253     132
    2256       2    2244     126    2247       2    2238     123    2241       2
    2229     117    2232       2    2223     114    2226       2    2217     108
    2220       2    2211     105    2214       2    2202      99    2205       2
    2196      96    2199       2    2187      90    2190       2    2181      87
    2184       2    2172      81    2175       2    2166      78    2169       2
    2157      72    2160       2    2151      69    2154       2    2142      63
    2145       2    2136      60    2139       2    2127      54    2130       2
    2121      51    2124       2    2112      45    2115       2    2106      42
    2109       2    2097      36    2100       2    2091      33    2094       2
    2082      27    2085       2    2076      24    2079       2    2067      18
    2070       2    2061      15    2064       2    2052       9    2055       2
    2046       6    2049       2    2037       0    2040       2    2034       0
    2037       2    2034       0    2040       2    2031    2028    4926       3
    2028    2031    4929       3    2016    2013    4893       5    2016    2013
    4896       5    2016    2019    4899       5    2016    2019    4902       5
    2016    2019    4905       5    2016    2022    4908       5    2016    2022
    4911       5    2016    2022    4914       5    2016    2025    4917       5
    2016    2025    4920       5    2016    2025    4923       5    2010    2007
    4890       3    2010    2013    4893       8    2010    2013    4896       8
    2010    2028    4926       3    2007    2004    4887       3    2004    2007
    4890       3    2001       3    2043      10    2001    2004    4887       3
    2001    2031    4929       3    1998    1995    4881       3    1995    1998
    4884       3    1983    1980    4848       5    1983    1980    4851       5
    1983    1986    4854       5    1983    1986    4857       5    1983    1986
    4860       5    1983    1989    4863       5    1983    1989    4866       5
    1983    1989    4869       5    1983    1992    4872       5    1983    1992
    4875       5    1983    1992    4878       5    1977    1974    4845       3
    1977    1980    4848       8    1977    1980    4851       8    1977    1995
    4881       3    1974    1971    4842       3    1971    1974    4845       3
    1968      12    2058      10    1968    1971    4842       3    1968    1998
    4884       3    1965    1962    4836       3    1962    1965    4839       3
    1950    1947    4803       5    1950    1947    4806       5    1950    1953
    4809       5    1950    1953    4812       5    1950    1953    4815       5
    1950    1956    4818       5    1950    1956    4821       5    1950    1956
    4824       5    1950    1959    4827       5    1950    1959    4830       5
    1950    1959    4833       5    1944    1941    4800       3    1944    1947
    4803       8    1944    1947    4806       8    1944    1962    4836       3
    1941    1938    4797       3    1938    1941    4800       3    1935      21
    2073      10    1935    1938    4797       3    1935    1965    4839       3
    1932    1929    4791       3    1929    1932    4794       3    1917    1914
    4758       5    1917    1914    4761       5    1917    1920    4764       5
    1917    1920    4767       5    1917    1920    4770       5    1917    1923
    4773       5    1917    1923    4776       5    1917    1923    4779       5
    1917    1926    4782       5    1917    1926    4785       5    1917    1926
    4788       5    1911    1908    4755       3    1911    1914    4758       8
    1911    1914    4761       8    1911    1929    4791       3    1908    1905
    4752       3    1905    1908    4755       3    1902      30    2088      10
    1902    1905    4752       3    1902    1932    4794       3    1899    1896
    4746       3    1896    1899    4749       3    1884    1881    4713       5
    1884    1881    4716       5    1884    1887    4719       5    1884    1887
    4722       5    1884    1887    4725       5    1884    1890    4728       5
    1884    1890    4731       5    1884    1890    4734       5    1884    1893
    4737       5    1884    1893    4740       5    1884    1893    4743       5
    1878    1875    4710       3    1878    1881    4713       8    1878    1881
    4716       8    1878    1896    4746       3    1875    1872    4707       3
    1872    1875    4710       3    1869      39    2103      10    1869    1872
    4707       3    1869    1899    4749       3    1866    1863    4701       3
    1863    1866    4704       3    1851    1848    4668       5    1851    1848
    4671       5    1851    1854    4674       5    1851    1854    4677       5
    1851    1854    4680       5    1851    1857    4683       5    1851    1857
    4686       5    1851    1857    4689       5    1851    1860    4692       5
    1851    1860    4695       5    1851    1860    4698       5    1845    1842
    4665       3    1845    1848    4668       8    1845    1848    4671       8
    1845    1863    4701       3    1842    1839    4662       3    1839    1842
    4665       3    1836      48    2118      10    1836    1839    4662       3
    1836    1866    4704       3    1833    1830    4656       3    1830    1833
    4659       3    1818    1815    4623       5    1818    1815    4626       5
    1818    1821    4629       5    1818    1821    4632       5    1818    1821
    4635       5    1818    1824    4638       5    1818    1824    4641       5
    1818    1824    4644       5    1818    1827    4647       5    1818    1827
    4650       5    1818    1827    4653       5    1812    1809    4620       3
    1812    1815    4623       8    1812    1815    4626       8    1812    1830
    4656       3    1809    1806    4617       3    1806    1809    4620       3
    1803      57    2133      10    1803    1806    4617       3    1803    1833
    4659       3    1800    1797    4611       3    1797    1800    4614       3
    1785    1782    4578       5    1785    1782    4581       5    1785    1788
    4584       5    1785    1788    4587       5    1785    1788    4590       5
    1785    1791    4593       5    1785    1791    4596       5    1785    1791
    4599       5    1785    1794    4602       5    1785    1794    4605       5
    1785    1794    4608       5    1779    1776    4575       3    1779    1782
    4578       8    1779    1782    4581       8    1779    1797    4611       3
    1776    1773    4572       3    1773    1776    4575       3    1770      66
    2148      10    1770    1773    4572       3    1770    1800    4614       3
    1767    1764    4566       3    1764    1767    4569       3    1752    1749
    4533       5    1752    1749    4536       5    1752    1755    4539       5
    1752    1755    4542       5    1752    1755    4545       5    1752    1758
    4548       5    1752    1758    4551       5    1752    1758    4554       5
    1752    1761    4557       5    1752    1761    4560       5    1752    1761
    4563       5    1746    1743    4530       3    1746    1749    4533       8
    1746    1749    4536       8    1746    1764    4566       3    1743    1740
    4527       3    1740    1743    4530       3    1737      75    2163      10
    1737    1740    4527       3    1737    1767    4569       3    1734    1731
    4521       3    1731    1734    4524       3    1719    1716    4488       5
    1719    1716    4491       5    1719    1722    4494       5    1719    1722
    4497       5    1719    1722    4500       5    1719    1725    4503       5
    1719    1725    4506       5    1719    1725    4509       5    1719    1728
    4512       5    1719    1728    4515       5    1719    1728    4518       5
    1713    1710    4485       3    1713    1716    4488       8    1713    1716
    4491       8    1713    1731    4521       3    1710    1707    4482       3
    1707    1710    4485       3    1704      84    2178      10    1704    1707
    4482       3    1704    1734    4524       3    1701    1698    4476       3
    1698    1701    4479       3    1686    1683    4443       5    1686    1683
    4446       5    1686    1689    4449       5    1686    1689    4452       5
    1686    1689    4455       5    1686    1692    4458       5    1686    1692
    4461       5    1686    1692    4464       5    1686    1695    4467       5
    1686    1695    4470       5    1686    1695    4473       5    1680    1677
    4440       3    1680    1683    4443       8    1680    1683    4446       8
    1680    1698    4476       3    1677    1674    4437       3    1674    1677
    4440       3    1671      93    2193      10    1671    1674    4437       3
    1671    1701    4479       3    1668    1665    4431       3    1665    1668
    4434       3    1653    1650    4398       5    1653    1650    4401       5
    1653    1656    4404       5    1653    1656    4407       5    1653    1656
    4410       5    1653    1659    4413       5    1653    1659    4416       5
    1653    1659    4419       5    1653    1662    4422       5    1653    1662
    4425       5    1653    1662    4428       5    1647    1644    4395       3
    1647    1650    4398       8    1647    1650    4401       8    1647    1665
    4431       3    1644    1641    4392       3    1641    1644    4395       3
    1638     102    2208      10    1638    1641    4392       3    1638    1668
    4434       3    1635    1632    4386       3    1632    1635    4389       3
    1629    1626    4380       3    1626    1629    4383       3    1614    1611
    4347       5    1614    1611    4350       5    1614    1617    4353       5
    1614    1617    4356       5    1614    1617    4359       5    1614    1620
    4362       5    1614    1620    4365       5    1614    1620    4368       5
    1614    1623    4371       5    1614    1623    4374       5    1614    1623
    4377       5    1608    1605    4344       3    1608    1611    4347       8
    1608    1611    4350       8    1608    1626    4380       3    1605    1602
    4341       3    1602    1605    4344       3    1599    1602    4341       3
    1599    1629    4383       3    1596    1593    4335       3    1593    1596
    4338       3    1581    1578    4302       5    1581    1578    4305       5
    1581    1584    4308       5    1581    1584    4311       5    1581    1584
    4314       5    1581    1587    4317       5    1581    1587    4320       5
    1581    1587    4323       5    1581    1590    4326       5    1581    1590
    4329       5    1581    1590    4332       5    1575    1572    4299       3
    1575    1578    4302       8    1575    1578    4305       8    1575    1593
    4335       3    1572    1569    4296       3    1569    1572    4299       3
    1566    1098    3624      10    1566    1569    4296       3    1566    1596
    4338       3    1563    1560    4290       3    1560    1563    4293       3
    1548    1545    4257       5    1548    1545    4260       5    1548    1551
    4263       5    1548    1551    4266       5    1548    1551    4269       5
    1548    1554    4272       5    1548    1554    4275       5    1548    1554
    4278       5    1548    1557    4281       5    1548    1557    4284       5
    1548    1557    4287       5    1542    1539    4254       3    1542    1545
    4257       8    1542    1545    4260       8    1542    1560    4290       3
    1539    1536    4251       3    1536    1539    4254       3    1533    1107
    3639      10    1533    1536    4251       3    1533    1563    4293       3
    1530    1527    4245       3    1527    1530    4248       3    1515    1512
    4212       5    1515    1512    4215       5    1515    1518    4218       5
    1515    1518    4221       5    1515    1518    4224       5    1515    1521
    4227       5    1515    1521    4230       5    1515    1521    4233       5
    1515    1524    4236       5    1515    1524    4239       5    1515    1524
    4242       5    1509    1506    4209       3    1509    1512    4212       8
    1509    1512    4215       8    1509    1527    4245       3    1506    1503
    4206       3    1503    1506    4209       3    1500    1116    3654      10
    1500    1503    4206       3    1500    1530    4248       3    1497    1494
    4200       3    1494    1497    4203       3    1482    1479    4167       5
    1482    1479    4170       5    1482    1485    4173       5    1482    1485
    4176       5    1482    1485    4179       5    1482    1488    4182       5
    1482    1488    4185       5    1482    1488    4188       5    1482    1491
    4191       5    1482    1491    4194       5    1482    1491    4197       5
    1476    1473    4164       3    1476    1479    4167       8    1476    1479
    4170       8    1476    1494    4200       3    1473    1470    4161       3
    1470    1473    4164       3    1467    1125    3669      10    1467    1470
    4161       3    1467    1497    4203       3    1464    1461    4155       3
    1461    1464    4158       3    1449    1446    4122       5    1449    1446
    4125       5    1449    1452    4128       5    1449    1452    4131       5
    1449    1452    4134       5    1449    1455    4137       5    1449    1455
    4140       5    1449    1455    4143       5    1449    1458    4146       5
    1449    1458    4149       5    1449    1458    4152       5    1443    1440
    4119       3    1443    1446    4122       8    1443    1446    4125       8
    1443    1461    4155       3    1440    1437    4116       3    1437    1440
    4119       3    1434    1134    3684      10    1434    1437    4116       3
    1434    1464    4158       3    1431    1428    4110       3    1428    1431
    4113       3    1416    1413    4077       5    1416    1413    4080       5
    1416    1419    4083       5    1416    1419    4086       5    1416    1419
    4089       5    1416    1422    4092       5    1416    1422    4095       5
    1416    1422    4098       5    1416    1425    4101       5    1416    1425
    4104       5    1416    1425    4107       5    1410    1407    4074       3
    1410    1413    4077       8    1410    1413    4080       8    1410    1428
    4110       3    1407    1404    4071       3    1404    1407    4074       3
    1401    1143    3699      10    1401    1404    4071       3    1401    1431
    4113       3    1398    1395    4065       3    1395    1398    4068       3
    1383    1380    4032       5    1383    1380    4035       5    1383    1386
    4038       5    1383    1386    4041       5    1383    1386    4044       5
    1383    1389    4047       5    1383    1389    4050       5    1383    1389
    4053       5    1383    1392    4056       5    1383    1392    4059       5
    1383    1392    4062       5    1377    1374    4029       3    1377    1380
    4032       8    1377    1380    4035       8    1377    1395    4065       3
    1374    1371    4026       3    1371    1374    4029       3    1368    1152
    3714      10    1368    1371    4026       3    1368    1398    4068       3
    1365    1362    4020       3    1362    1365    4023       3    1350    1347
    3987       5    1350    1347    3990       5    1350    1353    3993       5
    1350    1353    3996       5    1350    1353    3999       5    1350    1356
    4002       5    1350    1356    4005       5    1350    1356    4008       5
    1350    1359    4011       5    1350    1359    4014       5    1350    1359
    4017       5    1344    1341    3984       3    1344    1347    3987       8
    1344    1347    3990       8    1344    1362    4020       3    1341    1338
    3981       3    1338    1341    3984       3    1335    1161    3729      10
    1335    1338    3981       3    1335    1365    4023       3    1332    1329
    3975       3    1329    1332    3978       3    1317    1314    3942       5
    1317    1314    3945       5    1317    1320    3948       5    1317    1320
    3951       5    1317    1320    3954       5    1317    1323    3957       5
    1317    1323    3960       5    1317    1323    3963       5    1317    1326
    3966       5    1317    1326    3969       5    1317    1326    3972       5
    1311    1308    3939       3    1311    1314    3942       8    1311    1314
    3945       8    1311    1329    3975       3    1308    1305    3936       3
    1305    1308    3939       3    1302    1170    3744      10    1302    1305
    3936       3    1302    1332    3978       3    1299    1296    3930       3
    1296    1299    3933       3    1284    1281    3897       5    1284    1281
    3900       5    1284    1287    3903       5    1284    1287    3906       5
    1284    1287    3909       5    1284    1290    3912       5    1284    1290
    3915       5    1284    1290    3918       5    1284    1293    3921       5
    1284    1293    3924       5    1284    1293    3927       5    1278    1275
    3894       3    1278    1281    3897       8    1278    1281    3900       8
    1278    1296    3930       3    1275    1272    3891       3    1272    1275
    3894       3    1269    1179    3759      10    1269    1272    3891       3
    1269    1299    3933       3    1266    1263    3885       3    1263    1266
    3888       3    1251    1248    3852       5    1251    1248    3855       5
    1251    1254    3858       5    1251    1254    3861       5    1251    1254
    3864       5    1251    1257    3867       5    1251    1257    3870       5
    1251    1257    3873       5    1251    1260    3876       5    1251    1260
    3879       5    1251    1260    3882       5    1245    1242    3849       3
    1245    1248    3852       8    1245    1248    3855       8    1245    1263
    3885       3    1242    1239    3846       3    1239    1242    3849       3
    1236    1188    3774      10    1236    1239    3846       3    1236    1266
    3888       3    1233    1230    3840       3    1230    1233    3843       3
    1218    1215    3807       5    1218    1215    3810       5    1218    1221
    3813       5    1218    1221    3816       5    1218    1221    3819       5
    1218    1224    3822       5    1218    1224    3825       5    1218    1224
    3828       5    1218    1227    3831       5    1218    1227    3834       5
    1218    1227    3837       5    1212    1209    3804       3    1212    1215
    3807       8    1212    1215    3810       8    1212    1230    3840       3
    1209    1206    3801       3    1206    1209    3804       3    1203    1197
    3789      10    1203    1206    3801       3    1203    1233    3843       3
    1200    1197    3789      12    1197    1194    3783      12    1197    1194
    3786      12    1197    1200    3792      12    1197    1200    3795      12
    1197    1200    3798      12    1194    1191    3777      12    1194    1191
    3780      12    1194    1197    3789      12    1191    1188    3774      12
    1191    1194    3783      12    1191    1194    3786      12    1188    1185
    3768      12    1188    1185    3771      12    1188    1191    3777      12
    1188    1191    3780      12    1185    1182    3762      12    1185    1182
    3765      12    1185    1188    3774      12    1182    1179    3759      12
    1182    1185    3768      12    1182    1185    3771      12    1179    1176
    3753      12    1179    1176    3756      12    1179    1182    3762      12
    1179    1182    3765      12    1176    1173    3747      12    1176    1173
    3750      12    1176    1179    3759      12    1173    1170    3744      12
    1173    1176    3753      12    1173    1176    3756      12    1170    1167
    3738      12    1170    1167    3741      12    1170    1173    3747      12
    1170    1173    3750      12    1167    1164    3732      12    1167    1164
    3735      12    1167    1170    3744      12    1164    1161    3729      12
    1164    1167    3738      12    1164    1167    3741      12    1161    1158
    3723      12    1161    1158    3726      12    1161    1164    3732      12
    1161    1164    3735      12    1158    1155    3717      12    1158    1155
    3720      12    1158    1161    3729      12    1155    1152    3714      12
    1155    1158    3723      12    1155    1158    3726      12    1152    1149
    3708      12    1152    1149    3711      12    1152    1155    3717      12
    1152    1155    3720      12    1149    1146    3702      12    1149    1146
    3705      12    1149    1152    3714      12    1146    1143    3699      12
    1146    1149    3708      12    1146    1149    3711      12    1143    1140
    3693      12    1143    1140    3696      12    1143    1146    3702      12
    1143    1146    3705      12    1140    1137    3687      12    1140    1137
    3690      12    1140    1143    3699      12    1137    1134    3684      12
    1137    1140    3693      12    1137    1140    3696      12    1134    1131
    3678      12    1134    1131    3681      12    1134    1137    3687      12
    1134    1137    3690      12    1131    1128    3672      12    1131    1128
    3675      12    1131    1134    3684      12    1128    1125    3669      12
    1128    1131    3678      12    1128    1131    3681      12    1125    1122
    3663      12    1125    1122    3666      12    1125    1128    3672      12
    1125    1128    3675      12    1122    1119    3657      12    1122    1119
    3660      12    1122    1125    3669      12    1119    1116    3654      12
    1119    1122    3663      12    1119    1122    3666      12    1116    1113
    3648      12    1116    1113    3651      12    1116    1119    3657      12
    1116    1119    3660      12    1113    1110    3642      12    1113    1110
    3645      12    1113    1116    3654      12    1110    1107    3639      12
    1110    1113    3648      12    1110    1113    3651      12    1107    1104
    3633      12    1107    1104    3636      12    1107    1110    3642      12
    1107    1110    3645      12    1104    1101    3627      12    1104    1101
    3630      12    1104    1107    3639      12    1101    1098    3624      12
    1101    1104    3633      12    1101    1104    3636      12    1098    1095
    3618      12    1098    1095    3621      12    1098    1101    3627      12
    1098    1101    3630      12    1095    1092    3612      12    1095    1092
    3615      12    1095    1098    3624      12    1092    1095    3618      12
    1092    1095    3621      12    1089    1086    3606       3    1086    1089
    3609       3    1074    1071    3573       5    1074    1071    3576       5
    1074    1077    3579       5    1074    1077    3582       5    1074    1077
    3585       5    1074    1080    3588       5    1074    1080    3591       5
    1074    1080    3594       5    1074    1083    3597       5    1074    1083
    3600       5    1074    1083    3603       5    1068    1065    3570       3
    1068    1071    3573       8    1068    1071    3576       8    1068    1086
    3606       3    1065    1062    3567       3    1062    1065    3570       3
    1059     633    2955      10    1059    1062    3567       3    1059    1089
    3609       3    1056    1053    3561       3    1053    1056    3564       3
    1041    1038    3528       5    1041    1038    3531       5    1041    1044
    3534       5    1041    1044    3537       5    1041    1044    3540       5
    1041    1047    3543       5    1041    1047    3546       5    1041    1047
    3549       5    1041    1050    3552       5    1041    1050    3555       5
    1041    1050    3558       5    1035    1032    3525       3    1035    1038
    3528       8    1035    1038    3531       8    1035    1053    3561       3
    1032    1029    3522       3    1029    1032    3525       3    1026     642
    2970      10    1026    1029    3522       3    1026    1056    3564       3
    1023    1020    3516       3    1020    1023    3519       3    1008    1005
    3483       5    1008    1005    3486       5    1008    1011    3489       5
    1008    1011    3492       5    1008    1011    3495       5    1008    1014
    3498       5    1008    1014    3501       5    1008    1014    3504       5
    1008    1017    3507       5    1008    1017    3510       5    1008    1017
    3513       5    1002     999    3480       3    1002    1005    3483       8
    1002    1005    3486       8    1002    1020    3516       3     999     996
    3477       3     996     999    3480       3     993     651    2985      10
     993     996    3477       3     993    1023    3519       3     990     987
    3471       3     987     990    3474       3     975     972    3438       5
     975     972    3441       5     975     978    3444       5     975     978
    3447       5     975     978    3450       5     975     981    3453       5
     975     981    3456       5     975     981    3459       5     975     984
    3462       5     975     984    3465       5     975     984    3468       5
     969     966    3435       3     969     972    3438       8     969     972
    3441       8     969     987    3471       3     966     963    3432       3
     963     966    3435       3     960     660    3000      10     960     963
    3432       3     960     990    3474       3     957     954    3426       3
     954     957    3429       3     942     939    3393       5     942     939
    3396       5     942     945    3399       5     942     945    3402       5
     942     945    3405       5     942     948    3408       5     942     948
    3411       5     942     948    3414       5     942     951    3417       5
     942     951    3420       5     942     951    3423       5     936     933
    3390       3     936     939    3393       8     936     939    3396       8
     936     954    3426       3     933     930    3387       3     930     933
    3390       3     927     669    3015      10     927     930    3387       3
     927     957    3429       3     924     921    3381       3     921     924
    3384       3     909     906    3348       5     909     906    3351       5
     909     912    3354       5     909     912    3357       5     909     912
    3360       5     909     915    3363       5     909     915    3366       5
     909     915    3369       5     909     918    3372       5     909     918
    3375       5     909     918    3378       5     903     900    3345       3
     903     906    3348       8     903     906    3351       8     903     921
    3381       3     900     897    3342       3     897     900    3345       3
     894     678    3030      10     894     897    3342       3     894     924
    3384       3     891     888    3336       3     888     891    3339       3
     876     873    3303       5     876     873    3306       5     876     879
    3309       5     876     879    3312       5     876     879    3315       5
     876     882    3318       5     876     882    3321       5     876     882
    3324       5     876     885    3327       5     876     885    3330       5
     876     885    3333       5     870     867    3300       3     870     873
    3303       8     870     873    3306       8     870     888    3336       3
     867     864    3297       3     864     867    3300       3     861     687
    3045      10     861     864    3297       3     861     891    3339       3
     858     855    3291       3     855     858    3294       3     843     840
    3258       5     843     840    3261       5     843     846    3264       5
     843     846    3267       5     843     846    3270       5     843     849
    3273       5     843     849    3276       5     843     849    3279       5
     843     852    3282       5     843     852    3285       5     843     852
    3288       5     837     834    3255       3     837     840    3258       8
     837     840    3261       8     837     855    3291       3     834     831
    3252       3     831     834    3255       3     828     696    3060      10
     828     831    3252       3     828     858    3294       3     825     822
    3246       3     822     825    3249       3     810     807    3213       5
     810     807    3216       5     810     813    3219       5     810     813
    3222       5     810     813    3225       5     810     816    3228       5
     810     816    3231       5     810     816    3234       5     810     819
    3237       5     810     819    3240       5     810     819    3243       5
     804     801    3210       3     804     807    3213       8     804     807
    3216       8     804     822    3246       3     801     798    3207       3
     798     801    3210       3     795     705    3075      10     795     798
    3207       3     795     825    3249       3     792     789    3201       3
     789     792    3204       3     777     774    3168       5     777     774
    3171       5     777     780    3174       5     777     780    3177       5
     777     780    3180       5     777     783    3183       5     777     783
    3186       5     777     783    3189       5     777     786    3192       5
     777     786    3195       5     777     786    3198       5     771     768
    3165       3     771     774    3168       8     771     774    3171       8
     771     789    3201       3     768     765    3162       3     765     768
    3165       3     762     714    3090      10     762     765    3162       3
     762     792    3204       3     759     756    3156       3     756     759
    3159       3     744     741    3123       5     744     741    3126       5
     744     747    3129       5     744     747    3132       5     744     747
    3135       5     744     750    3138       5     744     750    3141       5
     744     750    3144       5     744     753    3147       5     744     753
    3150       5     744     753    3153       5     738     735    3120       3
     738     741    3123       8     738     741    3126       8     738     756
    3156       3     735     732    3117       3     732     735    3120       3
     729     723    3105      10     729     732    3117       3     729     759
    3159       3     726     723    3105      12     723     720    3099      12
     723     720    3102      12     723     726    3108      12     723     726
    3111      12     723     726    3114      12     720     717    3093      12
     720     717    3096      12     720     723    3105      12     717     714
    3090      12     717     720    3099      12     717     720    3102      12
     714     711    3084      12     714     711    3087      12     714     717
    3093      12     714     717    3096      12     711     708    3078      12
     711     708    3081      12     711     714    3090      12     708     705
    3075      12     708     711    3084      12     708     711    3087      12
     705     702    3069      12     705     702    3072      12     705     708
    3078      12     705     708    3081      12     702     699    3063      12
     702     699    3066      12     702     705    3075      12     699     696
    3060      12     699     702    3069      12     699     702    3072      12
     696     693    3054      12     696     693    3057      12     696     699
    3063      12     696     699    3066      12     693     690    3048      12
     693     690    3051      12     693     696    3060      12     690     687
    3045      12     690     693    3054      12     690     693    3057      12
     687     684    3039      12     687     684    3042      12     687     690
    3048      12     687     690    3051      12     684     681    3033      12
     684     681    3036      12     684     687    3045      12     681     678
    3030      12     681     684    3039      12     681     684    3042      12
     678     675    3024      12     678     675    3027      12     678     681
    3033      12     678     681    3036      12     675     672    3018      12
     675     672    3021      12     675     678    3030      12     672     669
    3015      12     672     675    3024      12     672     675    3027      12
     669     666    3009      12     669     666    3012      12     669     672
    3018      12     669     672    3021      12     666     663    3003      12
     666     663    3006      12     666     669    3015      12     663     660
    3000      12     663     666    3009      12     663     666    3012      12
     660     657    2994      12     660     657    2997      12     660     663
    3003      12     660     663    3006      12     657     654    2988      12
     657     654    2991      12     657     660    3000      12     654     651
    2985      12     654     657    2994      12     654     657    2997      12
     651     648    2979      12     651     648    2982      12     651     654
    2988      12     651     654    2991      12     648     645    2973      12
     648     645    2976      12     648     651    2985      12     645     642
    2970      12     645     648    2979      12     645     648    2982      12
     642     639    2964      12     642     639    2967      12     642     645
    2973      12     642     645    2976      12     639     636    2958      12
     639     636    2961      12     639     642    2970      12     636     633
    2955      12     636     639    2964      12     636     639    2967      12
     633     630    2949      12     633     630    2952      12     633     636
    2958      12     633     636    2961      12     630     627    2943      12
     630     627    2946      12     630     633    2955      12     627     630
    2949      12     627     630    2952      12     624     627    2943      12
     624     627    2946      12     624    1092    3612      12     624    1092
    3615      12     621     618    2940       3     621    1632    4386       3
     618     615    2937       3     615     618    2940       3     612     615
    2937       3     612    1635    4389       3     609     606    2931       3
     606     609    2934       3     594     591    2898       5     594     591
    2901       5     594     597    2904       5     594     597    2907       5
     594     597    2910       5     594     600    2913       5     594     600
    2916       5     594     600    2919       5     594     603    2922       5
     594     603    2925       5     594     603    2928       5     588     585
    2895       3     588     591    2898       8     588     591    2901       8
     588     606    2931       3     585     582    2892       3     582     585
    2895       3     579     582    2892       3     579     609    2934       3
     576     573    2886       3     573     576    2889       3     561     558
    2853       5     561     558    2856       5     561     564    2859       5
     561     564    2862       5     561     564    2865       5     561     567
    2868       5     561     567    2871       5     561     567    2874       5
     561     570    2877       5     561     570    2880       5     561     570
    2883       5     555     552    2850       3     555     558    2853       8
     555     558    2856       8     555     573    2886       3     552     549
    2847       3     549     552    2850       3     546     120    2235      10
     546     549    2847       3     546     576    2889       3     543     540
    2841       3     540     543    2844       3     528     525    2808       5
     528     525    2811       5     528     531    2814       5     528     531
    2817       5     528     531    2820       5     528     534    2823       5
     528     534    2826       5     528     534    2829       5     528     537
    2832       5     528     537    2835       5     528     537    2838       5
     522     519    2805       3     522     525    2808       8     522     525
    2811       8     522     540    2841       3     519     516    2802       3
     516     519    2805       3     513     129    2250      10     513     516
    2802       3     513     543    2844       3     510     507    2796       3
     507     510    2799       3     495     492    2763       5     495     492
    2766       5     495     498    2769       5     495     498    2772       5
     495     498    2775       5     495     501    2778       5     495     501
    2781       5     495     501    2784       5     495     504    2787       5
     495     504    2790       5     495     504    2793       5     489     486
    2760       3     489     492    2763       8     489     492    2766       8
     489     507    2796       3     486     483    2757       3     483     486
    2760       3     480     138    2265      10     480     483    2757       3
     480     510    2799       3     477     474    2751       3     474     477
    2754       3     462     459    2718       5     462     459    2721       5
     462     465    2724       5     462     465    2727       5     462     465
    2730       5     462     468    2733       5     462     468    2736       5
     462     468    2739       5     462     471    2742       5     462     471
    2745       5     462     471    2748       5     456     453    2715       3
     456     459    2718       8     456     459    2721       8     456     474
    2751       3     453     450    2712       3     450     453    2715       3
     447     147    2280      10     447     450    2712       3     447     477
    2754       3     444     441    2706       3     441     444    2709       3
     429     426    2673       5     429     426    2676       5     429     432
    2679       5     429     432    2682       5     429     432    2685       5
     429     435    2688       5     429     435    2691       5     429     435
    2694       5     429     438    2697       5     429     438    2700       5
     429     438    2703       5     423     420    2670       3     423     426
    2673       8     423     426    2676       8     423     441    2706       3
     420     417    2667       3     417     420    2670       3     414     156
    2295      10     414     417    2667       3     414     444    2709       3
     411     408    2661       3     408     411    2664       3     396     393
    2628       5     396     393    2631       5     396     399    2634       5
     396     399    2637       5     396     399    2640       5     396     402
    2643       5     396     402    2646       5     396     402    2649       5
     396     405    2652       5     396     405    2655       5     396     405
    2658       5     390     387    2625       3     390     393    2628       8
     390     393    2631       8     390     408    2661       3     387     384
    2622       3     384     387    2625       3     381     165    2310      10
     381     384    2622       3     381     411    2664       3     378     375
    2616       3     375     378    2619       3     363     360    2583       5
     363     360    2586       5     363     366    2589       5     363     366
    2592       5     363     366    2595       5     363     369    2598       5
     363     369    2601       5     363     369    2604       5     363     372
    2607       5     363     372    2610       5     363     372    2613       5
     357     354    2580       3     357     360    2583       8     357     360
    2586       8     357     375    2616       3     354     351    2577       3
     351     354    2580       3     348     174    2325      10     348     351
    2577       3     348     378    2619       3     345     342    2571       3
     342     345    2574       3     330     327    2538       5     330     327
    2541       5     330     333    2544       5     330     333    2547       5
     330     333    2550       5     330     336    2553       5     330     336
    2556       5     330     336    2559       5     330     339    2562       5
     330     339    2565       5     330     339    2568       5     324     321
    2535       3     324     327    2538       8     324     327    2541       8
     324     342    2571       3     321     318    2532       3     318     321
    2535       3     315     183    2340      10     315     318    2532       3
     315     345    2574       3     312     309    2526       3     309     312
    2529       3     297     294    2493       5     297     294    2496       5
     297     300    2499       5     297     300    2502       5     297     300
    2505       5     297     303    2508       5     297     303    2511       5
     297     303    2514       5     297     306    2517       5     297     306
    2520       5     297     306    2523       5     291     288    2490       3
     291     294    2493       8     291     294    2496       8     291     309
    2526       3     288     285    2487       3     285     288    2490       3
     282     192    2355      10     282     285    2487       3     282     312
    2529       3     279     276    2481       3     276     279    2484       3
     264     261    2448       5     264     261    2451       5     264     267
    2454       5     264     267    2457       5     264     267    2460       5
     264     270    2463       5     264     270    2466       5     264     270
    2469       5     264     273    2472       5     264     273    2475       5
     264     273    2478       5     258     255    2445       3     258     261
    2448       8     258     261    2451       8     258     276    2481       3
     255     252    2442       3     252     255    2445       3     249     201
    2370      10     249     252    2442       3     249     279    2484       3
     246     243    2436       3     243     246    2439       3     231     228
    2403       5     231     228    2406       5     231     234    2409       5
     231     234    2412       5     231     234    2415       5     231     237
    2418       5     231     237    2421       5     231     237    2424       5
     231     240    2427       5     231     240    2430       5     231     240
    2433       5     225     222    2400       3     225     228    2403       8
     225     228    2406       8     225     243    2436       3     222     219
    2397       3     219     222    2400       3     216     210    2385      10
     216     219    2397       3     216     246    2439       3     213     210
    2385      12     210     207    2379      12     210     207    2382      12
     210     213    2388      12     210     213    2391      12     210     213
    2394      12     207     204    2373      12     207     204    2376      12
     207     210    2385      12     204     201    2370      12     204     207
    2379      12     204     207    2382      12     201     198    2364      12
     201     198    2367      12     201     204    2373      12     201     204
    2376      12     198     195    2358      12     198     195    2361      12
     198     201    2370      12     195     192    2355      12     195     198
    2364      12     195     198    2367      12     192     189    2349      12
     192     189    2352      12     192     195    2358      12     192     195
    2361      12     189     186    2343      12     189     186    2346      12
     189     192    2355      12     186     183    2340      12     186     189
    2349      12     186     189    2352      12     183     180    2334      12
     183     180    2337      12     183     186    2343      12     183     186
    2346      12     180     177    2328      12     180     177    2331      12
     180     183    2340      12     177     174    2325      12     177     180
    2334      12     177     180    2337      12     174     171    2319      12
     174     171    2322      12     174     177    2328      12     174     177
    2331      12     171     168    2313      12     171     168    2316      12
     171     174    2325      12     168     165    2310      12     168     171
    2319      12     168     171    2322      12     165     162    2304      12
     165     162    2307      12     165     168    2313      12     165     168
    2316      12     162     159    2298      12     162     159    2301      12
     162     165    2310      12     159     156    2295      12     159     162
    2304      12     159     162    2307      12     156     153    2289      12
     156     153    2292      12     156     159    2298      12     156     159
    2301      12     153     150    2283      12     153     150    2286      12
     153     156    2295      12     150     147    2280      12     150     153
    2289      12     150     153    2292      12     147     144    2274      12
     147     144    2277      12     147     150    2283      12     147     150
    2286      12     144     141    2268      12     144     141    2271      12
     144     147    2280      12     141     138    2265      12     141     144
    2274      12     141     144    2277      12     138     135    2259      12
     138     135    2262      12     138     141    2268      12     138     141
    2271      12     135     132    2253      12     135     132    2256      12
     135     138    2265      12     132     129    2250      12     132     135
    2259      12     132     135    2262      12     129     126    2244      12
     129     126    2247      12     129     132    2253      12     129     132
    2256      12     126     123    2238      12     126     123    2241      12
     126     129    2250      12     123     120    2235      12     123     126
    2244      12     123     126    2247      12     120     117    2229      12
     120     117    2232      12     120     123    2238      12     120     123
    2241      12     117     114    2223      12     117     114    2226      12
     117     120    2235      12     114     117    2229      12     114     117
    2232      12     111     108    2217      12     111     108    2220      12
     111     114    2223      12     111     114    2226      12     108     105
    2211      12     108     105    2214      12     105     102    2208      12
     105     108    2217      12     105     108    2220      12     102      99
    2202      12     102      99    2205      12     102     105    2211      12
     102     105    2214      12      99      96    2196      12      99      96
    2199      12      99     102    2208      12      96      93    2193      12
      96      99    2202      12      96      99    2205      12      93      90
    2187      12      93      90    2190      12      93      96    2196      12
      93      96    2199      12      90      87    2181      12      90      87
    2184      12      90      93    2193      12      87      84    2178      12
      87      90    2187      12      87      90    2190      12      84      81
    2172      12      84      81    2175      12      84      87    2181      12
      84      87    2184      12      81      78    2166      12      81      78
    2169      12      81      84    2178      12      78      75    2163      12
      78      81    2172      12      78      81    2175      12      75      72
    2157      12      75      72    2160      12      75      78    2166      12
      75      78    2169      12      72      69    2151      12      72      69
    2154      12      72      75    2163      12      69      66    2148      12
      69      72    2157      12      69      72    2160      12      66      63
    2142      12      66      63    2145      12      66      69    2151      12
      66      69    2154      12      63      60    2136      12      63      60
    2139      12      63      66    2148      12      60      57    2133      12
      60      63    2142      12      60      63    2145      12      57      54
    2127      12      57      54    2130      12      57      60    2136      12
      57      60    2139      12      54      51    2121      12      54      51
    2124      12      54      57    2133      12      51      48    2118      12
      51      54    2127      12      51      54    2130      12      48      45
    2112      12      48      45    2115      12      48      51    2121      12
      48      51    2124      12      45      42    2106      12      45      42
    2109      12      45      48    2118      12      42      39    2103      12
      42      45    2112      12      42      45    2115      12      39      36
    2097      12      39      36    2100      12      39      42    2106      12
      39      42    2109      12      36      33    2091      12      36      33
    2094      12      36      39    2103      12      33      30    2088      12
      33      36    2097      12      33      36    2100      12      30      27
    2082      12      30      27    2085      12      30      33    2091      12
      30      33    2094      12      27      24    2076      12      27      24
    2079      12      27      30    2088      12      24      21    2073      12
      24      27    2082      12      24      27    2085      12      21      18
    2067      12      21      18    2070      12      21      24    2076      12
      21      24    2079      12      18      15    2061      12      18      15
    2064      12      18      21    2073      12      15      12    2058      12
      15      18    2067      12      15      18    2070      12      12       9
    2052      12      12       9    2055      12      12      15    2061      12
      12      15    2064      12       9       6    2046      12       9       6
    2049      12       9      12    2058      12       6       3    2043      12
       6       9    2052      12       6       9    2055      12       3       0
    2034      12       3       0    2037      12       3       0    2040      12
       3       6    2046      12       3       6    2049      12       0       3
    2043      12
%FLAG ANGLES_WITHOUT_HYDROGEN                                                   
%FORMAT(10I8)                                                                   
    2022    2016    2025       4    2019    2016    2022       4    2019    2016
    2025       4    2013    2010    2028       6    2013    2016    2019       4
    2013    2016    2022       4    2013    2016    2025       4    2010    2013
    2016       7    2010    2028    2031       9    2007    2010    2013       6
    2007    2010    2028       9    2004    2001    2031       9    2004    2007
    2010       9    2001    2004    2007       9    2001    2031    2028       9
    1989    1983    1992       4    1986    1983    1989       4    1986    1983
    1992       4    1980    1977    1995       6    1980    1983    1986       4
    1980    1983    1989       4    1980    1983    1992       4    1977    1980
    1983       7    1977    1995    1998       9    1974    1977    1980       6
    1974    1977    1995       9    1971    1968    1998       9    1971    1974
    1977       9    1968    1971    1974       9    1968    1998    1995       9
    1956    1950    1959       4    1953    1950    1956       4    1953    1950
    1959       4    1947    1944    1962       6    1947    1950    1953       4
    1947    1950    1956       4    1947    1950    1959       4    1944    1947
    1950       7    1944    1962    1965       9    1941    1944    1947       6
    1941    1944    1962       9    1938    1935    1965       9    1938    1941
    1944       9    1935    1938    1941       9    1935    1965    1962       9
    1923    1917    1926       4    1920    1917    1923       4    1920    1917
    1926       4    1914    1911    1929       6    1914    1917    1920       4
    1914    1917    1923       4    1914    1917    1926       4    1911    1914
    1917       7    1911    1929    1932       9    1908    1911    1914       6
    1908    1911    1929       9    1905    1902    1932       9    1905    1908
    1911       9    1902    1905    1908       9    1902    1932    1929       9
    1890    1884    1893       4    1887    1884    1890       4    1887    1884
    1893       4    1881    1878    1896       6    1881    1884    1887       4
    1881    1884    1890       4    1881    1884    1893       4    1878    1881
    1884       7    1878    1896    1899       9    1875    1878    1881       6
    1875    1878    1896       9    1872    1869    1899       9    1872    1875
    1878       9    1869    1872    1875       9    1869    1899    1896       9
    1857    1851    1860       4    1854    1851    1857       4    1854    1851
    1860       4    1848    1845    1863       6    1848    1851    1854       4
    1848    1851    1857       4    1848    1851    1860       4    1845    1848
    1851       7    1845    1863    1866       9    1842    1845    1848       6
    1842    1845    1863       9    1839    1836    1866       9    1839    1842
    1845       9    1836    1839    1842       9    1836    1866    1863       9
    1824    1818    1827       4    1821    1818    1824       4    1821    1818
    1827       4    1815    1812    1830       6    1815    1818    1821       4
    1815    1818    1824       4    1815    1818    1827       4    1812    1815
    1818       7    1812    1830    1833       9    1809    1812    1815       6
    1809    1812    1830       9    1806    1803    1833       9    1806    1809
    1812       9    1803    1806    1809       9    1803    1833    1830       9
    1791    1785    1794       4    1788    1785    1791       4    1788    1785
    1794       4    1782    1779    1797       6    1782    1785    1788       4
    1782    1785    1791       4    1782    1785    1794       4    1779    1782
    1785       7    1779    1797    1800       9    1776    1779    1782       6
    1776    1779    1797       9    1773    1770    1800       9    1773    1776
    1779       9    1770    1773    1776       9    1770    1800    1797       9
    1758    1752    1761       4    1755    1752    1758       4    1755    1752
    1761       4    1749    1746    1764       6    1749    1752    1755       4
    1749    1752    1758       4    1749    1752    1761       4    1746    1749
    1752       7    1746    1764    1767       9    1743    1746    1749       6
    1743    1746    1764       9    1740    1737    1767       9    1740    1743
    1746       9    1737    1740    1743       9    1737    1767    1764       9
    1725    1719    1728       4    1722    1719    1725       4    1722    1719
    1728       4    1716    1713    1731       6    1716    1719    1722       4
    1716    1719    1725       4    1716    1719    1728       4    1713    1716
    1719       7    1713    1731    1734       9    1710    1713    1716       6
    1710    1713    1731       9    1707    1704    1734       9    1707    1710
    1713       9    1704    1707    1710       9    1704    1734    1731       9
    1692    1686    1695       4    1689    1686    1692       4    1689    1686
    1695       4    1683    1680    1698       6    1683    1686    1689       4
    1683    1686    1692       4    1683    1686    1695       4    1680    1683
    1686       7    1680    1698    1701       9    1677    1680    1683       6
    1677    1680    1698       9    1674    1671    1701       9    1674    1677
    1680       9    1671    1674    1677       9    1671    1701    1698       9
    1659    1653    1662       4    1656    1653    1659       4    1656    1653
    1662       4    1650    1647    1665       6    1650    1653    1656       4
    1650    1653    1659       4    1650    1653    1662       4    1647    1650
    1653       7    1647    1665    1668       9    1644    1647    1650       6
    1644    1647    1665       9    1641    1638    1668       9    1641    1644
    1647       9    1638    1641    1644       9    1638    1668    1665       9
    1620    1614    1623       4    1617    1614    1620       4    1617    1614
    1623       4    1611    1608    1626       6    1611    1614    1617       4
    1611    1614    1620       4    1611    1614    1623       4    1608    1611
    1614       7    1608    1626    1629       9    1605    1608    1611       6
    1605    1608    1626       9    1602    1599    1629       9    1602    1605
    1608       9    1599    1602    1605       9    1599    1629    1626       9
    1587    1581    1590       4    1584    1581    1587       4    1584    1581
    1590       4    1578    1575    1593       6    1578    1581    1584       4
    1578    1581    1587       4    1578    1581    1590       4    1575    1578
    1581       7    1575    1593    1596       9    1572    1575    1578       6
    1572    1575    1593       9    1569    1566    1596       9    1569    1572
    1575       9    1566    1569    1572       9    1566    1596    1593       9
    1554    1548    1557       4    1551    1548    1554       4    1551    1548
    1557       4    1545    1542    1560       6    1545    1548    1551       4
    1545    1548    1554       4    1545    1548    1557       4    1542    1545
    1548       7    1542    1560    1563       9    1539    1542    1545       6
    1539    1542    1560       9    1536    1533    1563       9    1536    1539
    1542       9    1533    1536    1539       9    1533    1563    1560       9
    1521    1515    1524       4    1518    1515    1521       4    1518    1515
    1524       4    1512    1509    1527       6    1512    1515    1518       4
    1512    1515    1521       4    1512    1515    1524       4    1509    1512
    1515       7    1509    1527    1530       9    1506    1509    1512       6
    1506    1509    1527       9    1503    1500    1530       9    1503    1506
    1509       9    1500    1503    1506       9    1500    1530    1527       9
    1488    1482    1491       4    1485    1482    1488       4    1485    1482
    1491       4    1479    1476    1494       6    1479    1482    1485       4
    1479    1482    1488       4    1479    1482    1491       4    1476    1479
    1482       7    1476    1494    1497       9    1473    1476    1479       6
    1473    1476    1494       9    1470    1467    1497       9    1470    1473
    1476       9    1467    1470    1473       9    1467    1497    1494       9
    1455    1449    1458       4    1452    1449    1455       4    1452    1449
    1458       4    1446    1443    1461       6    1446    1449    1452       4
    1446    1449    1455       4    1446    1449    1458       4    1443    1446
    1449       7    1443    1461    1464       9    1440    1443    1446       6
    1440    1443    1461       9    1437    1434    1464       9    1437    1440
    1443       9    1434    1437    1440       9    1434    1464    1461       9
    1422    1416    1425       4    1419    1416    1422       4    1419    1416
    1425       4    1413    1410    1428       6    1413    1416    1419       4
    1413    1416    1422       4    1413    1416    1425       4    1410    1413
    1416       7    1410    1428    1431       9    1407    1410    1413       6
    1407    1410    1428       9    1404    1401    1431       9    1404    1407
    1410       9    1401    1404    1407       9    1401    1431    1428       9
    1389    1383    1392       4    1386    1383    1389       4    1386    1383
    1392       4    1380    1377    1395       6    1380    1383    1386       4
    1380    1383    1389       4    1380    1383    1392       4    1377    1380
    1383       7    1377    1395    1398       9    1374    1377    1380       6
    1374    1377    1395       9    1371    1368    1398       9    1371    1374
    1377       9    1368    1371    1374       9    1368    1398    1395       9
    1356    1350    1359       4    1353    1350    1356       4    1353    1350
    1359       4    1347    1344    1362       6    1347    1350    1353       4
    1347    1350    1356       4    1347    1350    1359       4    1344    1347
    1350       7    1344    1362    1365       9    1341    1344    1347       6
    1341    1344    1362       9    1338    1335    1365       9    1338    1341
    1344       9    1335    1338    1341       9    1335    1365    1362       9
    1323    1317    1326       4    1320    1317    1323       4    1320    1317
    1326       4    1314    1311    1329       6    1314    1317    1320       4
    1314    1317    1323       4    1314    1317    1326       4    1311    1314
    1317       7    1311    1329    1332       9    1308    1311    1314       6
    1308    1311    1329       9    1305    1302    1332       9    1305    1308
    1311       9    1302    1305    1308       9    1302    1332    1329       9
    1290    1284    1293       4    1287    1284    1290       4    1287    1284
    1293       4    1281    1278    1296       6    1281    1284    1287       4
    1281    1284    1290       4    1281    1284    1293       4    1278    1281
    1284       7    1278    1296    1299       9    1275    1278    1281       6
    1275    1278    1296       9    1272    1269    1299       9    1272    1275
    1278       9    1269    1272    1275       9    1269    1299    1296       9
    1257    1251    1260       4    1254    1251    1257       4    1254    1251
    1260       4    1248    1245    1263       6    1248    1251    1254       4
    1248    1251    1257       4    1248    1251    1260       4    1245    1248
    1251       7    1245    1263    1266       9    1242    1245    1248       6
    1242    1245    1263       9    1239    1236    1266       9    1239    1242
    1245       9    1236    1239    1242       9    1236    1266    1263       9
    1224    1218    1227       4    1221    1218    1224       4    1221    1218
    1227       4    1215    1212    1230       6    1215    1218    1221       4
    1215    1218    1224       4    1215    1218    1227       4    1212    1215
    1218       7    1212    1230    1233       9    1209    1212    1215       6
    1209    1212    1230       9    1206    1203    1233       9    1206    1209
    1212       9    1203    1206    1209       9    1203    1233    1230       9
    1200    1197    1203      11    1197    1203    1206       6    1197    1203
    1233       6    1194    1197    1200      13    1194    1197    1203      11
    1191    1188    1236      11    1191    1194    1197      13    1188    1191
    1194      13    1188    1236    1239       6    1188    1236    1266       6
    1185    1188    1191      13    1185    1188    1236      11    1182    1179
    1269      11    1182    1185    1188      13    1179    1182    1185      13
    1179    1269    1272       6    1179    1269    1299       6    1176    1179
    1182      13    1176    1179    1269      11    1173    1170    1302      11
    1173    1176    1179      13    1170    1173    1176      13    1170    1302
    1305       6    1170    1302    1332       6    1167    1170    1173      13
    1167    1170    1302      11    1164    1161    1335      11    1164    1167
    1170      13    1161    1164    1167      13    1161    1335    1338       6
    1161    1335    1365       6    1158    1161    1164      13    1158    1161
    1335      11    1155    1152    1368      11    1155    1158    1161      13
    1152    1155    1158      13    1152    1368    1371       6    1152    1368
    1398       6    1149    1152    1155      13    1149    1152    1368      11
    1146    1143    1401      11    1146    1149    1152      13    1143    1146
    1149      13    1143    1401    1404       6    1143    1401    1431       6
    1140    1143    1146      13    1140    1143    1401      11    1137    1134
    1434      11    1137    1140    1143      13    1134    1137    1140      13
    1134    1434    1437       6    1134    1434    1464       6    1131    1134
    1137      13    1131    1134    1434      11    1128    1125    1467      11
    1128    1131    1134      13    1125    1128    1131      13    1125    1467
    1470       6    1125    1467    1497       6    1122    1125    1128      13
    1122    1125    1467      11    1119    1116    1500      11    1119    1122
    1125      13    1116    1119    1122      13    1116    1500    1503       6
    1116    1500    1530       6    1113    1116    1119      13    1113    1116
    1500      11    1110    1107    1533      11    1110    1113    1116      13
    1107    1110    1113      13    1107    1533    1536       6    1107    1533
    1563       6    1104    1107    1110      13    1104    1107    1533      11
    1101    1098    1566      11    1101    1104    1107      13    1098    1101
    1104      13    1098    1566    1569       6    1098    1566    1596       6
    1095    1098    1101      13    1095    1098    1566      11    1092     624
    1599      11    1092    1095    1098      13    1080    1074    1083       4
    1077    1074    1080       4    1077    1074    1083       4    1071    1068
    1086       6    1071    1074    1077       4    1071    1074    1080       4
    1071    1074    1083       4    1068    1071    1074       7    1068    1086
    1089       9    1065    1068    1071       6    1065    1068    1086       9
    1062    1059    1089       9    1062    1065    1068       9    1059    1062
    1065       9    1059    1089    1086       9    1047    1041    1050       4
    1044    1041    1047       4    1044    1041    1050       4    1038    1035
    1053       6    1038    1041    1044       4    1038    1041    1047       4
    1038    1041    1050       4    1035    1038    1041       7    1035    1053
    1056       9    1032    1035    1038       6    1032    1035    1053       9
    1029    1026    1056       9    1029    1032    1035       9    1026    1029
    1032       9    1026    1056    1053       9    1014    1008    1017       4
    1011    1008    1014       4    1011    1008    1017       4    1005    1002
    1020       6    1005    1008    1011       4    1005    1008    1014       4
    1005    1008    1017       4    1002    1005    1008       7    1002    1020
    1023       9     999    1002    1005       6     999    1002    1020       9
     996     993    1023       9     996     999    1002       9     993     996
     999       9     993    1023    1020       9     981     975     984       4
     978     975     981       4     978     975     984       4     972     969
     987       6     972     975     978       4     972     975     981       4
     972     975     984       4     969     972     975       7     969     987
     990       9     966     969     972       6     966     969     987       9
     963     960     990       9     963     966     969       9     960     963
     966       9     960     990     987       9     948     942     951       4
     945     942     948       4     945     942     951       4     939     936
     954       6     939     942     945       4     939     942     948       4
     939     942     951       4     936     939     942       7     936     954
     957       9     933     936     939       6     933     936     954       9
     930     927     957       9     930     933     936       9     927     930
     933       9     927     957     954       9     915     909     918       4
     912     909     915       4     912     909     918       4     906     903
     921       6     906     909     912       4     906     909     915       4
     906     909     918       4     903     906     909       7     903     921
     924       9     900     903     906       6     900     903     921       9
     897     894     924       9     897     900     903       9     894     897
     900       9     894     924     921       9     882     876     885       4
     879     876     882       4     879     876     885       4     873     870
     888       6     873     876     879       4     873     876     882       4
     873     876     885       4     870     873     876       7     870     888
     891       9     867     870     873       6     867     870     888       9
     864     861     891       9     864     867     870       9     861     864
     867       9     861     891     888       9     849     843     852       4
     846     843     849       4     846     843     852       4     840     837
     855       6     840     843     846       4     840     843     849       4
     840     843     852       4     837     840     843       7     837     855
     858       9     834     837     840       6     834     837     855       9
     831     828     858       9     831     834     837       9     828     831
     834       9     828     858     855       9     816     810     819       4
     813     810     816       4     813     810     819       4     807     804
     822       6     807     810     813       4     807     810     816       4
     807     810     819       4     804     807     810       7     804     822
     825       9     801     804     807       6     801     804     822       9
     798     795     825       9     798     801     804       9     795     798
     801       9     795     825     822       9     783     777     786       4
     780     777     783       4     780     777     786       4     774     771
     789       6     774     777     780       4     774     777     783       4
     774     777     786       4     771     774     777       7     771     789
     792       9     768     771     774       6     768     771     789       9
     765     762     792       9     765     768     771       9     762     765
     768       9     762     792     789       9     750     744     753       4
     747     744     750       4     747     744     753       4     741     738
     756       6     741     744     747       4     741     744     750       4
     741     744     753       4     738     741     744       7     738     756
     759       9     735     738     741       6     735     738     756       9
     732     729     759       9     732     735     738       9     729     732
     735       9     729     759     756       9     726     723     729      11
     723     729     732       6     723     729     759       6     720     723
     726      13     720     723     729      11     717     714     762      11
     717     720     723      13     714     717     720      13     714     762
     765       6     714     762     792       6     711     714     717      13
     711     714     762      11     708     705     795      11     708     711
     714      13     705     708     711      13     705     795     798       6
     705     795     825       6     702     705     708      13     702     705
     795      11     699     696     828      11     699     702     705      13
     696     699     702      13     696     828     831       6     696     828
     858       6     693     696     699      13     693     696     828      11
     690     687     861      11     690     693     696      13     687     690
     693      13     687     861     864       6     687     861     891       6
     684     687     690      13     684     687     861      11     681     678
     894      11     681     684     687      13     678     681     684      13
     678     894     897       6     678     894     924       6     675     678
     681      13     675     678     894      11     672     669     927      11
     672     675     678      13     669     672     675      13     669     927
     930       6     669     927     957       6     666     669     672      13
     666     669     927      11     663     660     960      11     663     666
     669      13     660     663     666      13     660     960     963       6
     660     960     990       6     657     660     663      13     657     660
     960      11     654     651     993      11     654     657     660      13
     651     654     657      13     651     993     996       6     651     993
    1023       6     648     651     654      13     648     651     993      11
     645     642    1026      11     645     648     651      13     642     645
     648      13     642    1026    1029       6     642    1026    1056       6
     639     642     645      13     639     642    1026      11     636     633
    1059      11     636     639     642      13     633     636     639      13
     633    1059    1062       6     633    1059    1089       6     630     633
     636      13     630     633    1059      11     627     624    1092      13
     627     624    1599      11     627     630     633      13     624     621
    1632       6     624     627     630      13     624    1092    1095      13
     624    1599    1602       6     624    1599    1629       6     621     624
     627      11     621     624    1092      11     621     624    1599      14
     621    1632    1635       9     618     621     624       6     618     621
    1632       9     615     612    1635       9     615     618     621       9
     612     615     618       9     612    1635    1632       9     600     594
     603       4     597     594     600       4     597     594     603       4
     591     588     606       6     591     594     597       4     591     594
     600       4     591     594     603       4     588     591     594       7
     588     606     609       9     585     588     591       6     585     588
     606       9     582     579     609       9     582     585     588       9
     579     111     612      14     579     582     585       9     579     609
     606       9     567     561     570       4     564     561     567       4
     564     561     570       4     558     555     573       6     558     561
     564       4     558     561     567       4     558     561     570       4
     555     558     561       7     555     573     576       9     552     555
     558       6     552     555     573       9     549     546     576       9
     549     552     555       9     546     549     552       9     546     576
     573       9     534     528     537       4     531     528     534       4
     531     528     537       4     525     522     540       6     525     528
     531       4     525     528     534       4     525     528     537       4
     522     525     528       7     522     540     543       9     519     522
     525       6     519     522     540       9     516     513     543       9
     516     519     522       9     513     516     519       9     513     543
     540       9     501     495     504       4     498     495     501       4
     498     495     504       4     492     489     507       6     492     495
     498       4     492     495     501       4     492     495     504       4
     489     492     495       7     489     507     510       9     486     489
     492       6     486     489     507       9     483     480     510       9
     483     486     489       9     480     483     486       9     480     510
     507       9     468     462     471       4     465     462     468       4
     465     462     471       4     459     456     474       6     459     462
     465       4     459     462     468       4     459     462     471       4
     456     459     462       7     456     474     477       9     453     456
     459       6     453     456     474       9     450     447     477       9
     450     453     456       9     447     450     453       9     447     477
     474       9     435     429     438       4     432     429     435       4
     432     429     438       4     426     423     441       6     426     429
     432       4     426     429     435       4     426     429     438       4
     423     426     429       7     423     441     444       9     420     423
     426       6     420     423     441       9     417     414     444       9
     417     420     423       9     414     417     420       9     414     444
     441       9     402     396     405       4     399     396     402       4
     399     396     405       4     393     390     408       6     393     396
     399       4     393     396     402       4     393     396     405       4
     390     393     396       7     390     408     411       9     387     390
     393       6     387     390     408       9     384     381     411       9
     384     387     390       9     381     384     387       9     381     411
     408       9     369     363     372       4     366     363     369       4
     366     363     372       4     360     357     375       6     360     363
     366       4     360     363     369       4     360     363     372       4
     357     360     363       7     357     375     378       9     354     357
     360       6     354     357     375       9     351     348     378       9
     351     354     357       9     348     351     354       9     348     378
     375       9     336     330     339       4     333     330     336       4
     333     330     339       4     327     324     342       6     327     330
     333       4     327     330     336       4     327     330     339       4
     324     327     330       7     324     342     345       9     321     324
     327       6     321     324     342       9     318     315     345       9
     318     321     324       9     315     318     321       9     315     345
     342       9     303     297     306       4     300     297     303       4
     300     297     306       4     294     291     309       6     294     297
     300       4     294     297     303       4     294     297     306       4
     291     294     297       7     291     309     312       9     288     291
     294       6     288     291     309       9     285     282     312       9
     285     288     291       9     282     285     288       9     282     312
     309       9     270     264     273       4     267     264     270       4
     267     264     273       4     261     258     276       6     261     264
     267       4     261     264     270       4     261     264     273       4
     258     261     264       7     258     276     279       9     255     258
     261       6     255     258     276       9     252     249     279       9
     252     255     258       9     249     252     255       9     249     279
     276       9     237     231     240       4     234     231     237       4
     234     231     240       4     228     225     243       6     228     231
     234       4     228     231     237       4     228     231     240       4
     225     228     231       7     225     243     246       9     222     225
     228       6     222     225     243       9     219     216     246       9
     219     222     225       9     216     219     222       9     216     246
     243       9     213     210     216      11     210     216     219       6
     210     216     246       6     207     210     213      13     207     210
     216      11     204     201     249      11     204     207     210      13
     201     204     207      13     201     249     252       6     201     249
     279       6     198     201     204      13     198     201     249      11
     195     192     282      11     195     198     201      13     192     195
     198      13     192     282     285       6     192     282     312       6
     189     192     195      13     189     192     282      11     186     183
     315      11     186     189     192      13     183     186     189      13
     183     315     318       6     183     315     345       6     180     183
     186      13     180     183     315      11     177     174     348      11
     177     180     183      13     174     177     180      13     174     348
     351       6     174     348     378       6     171     174     177      13
     171     174     348      11     168     165     381      11     168     171
     174      13     165     168     171      13     165     381     384       6
     165     381     411       6     162     165     168      13     162     165
     381      11     159     156     414      11     159     162     165      13
     156     159     162      13     156     414     417       6     156     414
     444       6     153     156     159      13     153     156     414      11
     150     147     447      11     150     153     156      13     147     150
     153      13     147     447     450       6     147     447     477       6
     144     147     150      13     144     147     447      11     141     138
     480      11     141     144     147      13     138     141     144      13
     138     480     483       6     138     480     510       6     135     138
     141      13     135     138     480      11     132     129     513      11
     132     135     138      13     129     132     135      13     129     513
     516       6     129     513     543       6     126     129     132      13
     126     129     513      11     123     120     546      11     123     126
     129      13     120     123     126      13     120     546     549       6
     120     546     576       6     117     120     123      13     117     120
     546      11     114     111     579      11     114     111     612      11
     114     117     120      13     111     114     117      13     111     579
     582       6     111     579     609       6     111     612     615       6
     111     612    1635       6     108     111     114      13     108     111
     579      11     108     111     612      11     105     102    1638      11
     105     108     111      13     102     105     108      13     102    1638
    1641       6     102    1638    1668       6      99     102     105      13
      99     102    1638      11      96      93    1671      11      96      99
     102      13      93      96      99      13      93    1671    1674       6
      93    1671    1701       6      90      93      96      13      90      93
    1671      11      87      84    1704      11      87      90      93      13
      84      87      90      13      84    1704    1707       6      84    1704
    1734       6      81      84      87      13      81      84    1704      11
      78      75    1737      11      78      81      84      13      75      78
      81      13      75    1737    1740       6      75    1737    1767       6
      72      75      78      13      72      75    1737      11      69      66
    1770      11      69      72      75      13      66      69      72      13
      66    1770    1773       6      66    1770    1800       6      63      66
      69      13      63      66    1770      11      60      57    1803      11
      60      63      66      13      57      60      63      13      57    1803
    1806       6      57    1803    1833       6      54      57      60      13
      54      57    1803      11      51      48    1836      11      51      54
      57      13      48      51      54      13      48    1836    1839       6
      48    1836    1866       6      45      48      51      13      45      48
    1836      11      42      39    1869      11      42      45      48      13
      39      42      45      13      39    1869    1872       6      39    1869
    1899       6      36      39      42      13      36      39    1869      11
      33      30    1902      11      33      36      39      13      30      33
      36      13      30    1902    1905       6      30    1902    1932       6
      27      30      33      13      27      30    1902      11      24      21
    1935      11      24      27      30      13      21      24      27      13
      21    1935    1938       6      21    1935    1965       6      18      21
      24      13      18      21    1935      11      15      12    1968      11
      15      18      21      13      12      15      18      13      12    1968
    1971       6      12    1968    1998       6       9      12      15      13
       9      12    1968      11       6       3    2001      11       6       9
      12      13       3       6       9      13       3    2001    2004       6
       3    2001    2031       6       0       3       6      13       0       3
    2001      11    5007    5013    5016      13    5001    5007    5013      13
    4998    4995    5001      13    4998    5004    5010      13    4995    4998
    5004      13    4995    5001    5007      13    4992    4932    5010      15
    4989    4932    4992      16    4989    4932    5010      15    4986    4932
    4989      16    4986    4932    4992      16    4986    4932    5010      15
    4983    5016    5013      17    4980    5016    4983      18    4980    5016
    5013      17    4977    5016    4980      18    4977    5016    4983      18
    4977    5016    5013      17    4974    5013    5007      17    4974    5013
    5016      17    4971    5013    4974      18    4971    5013    5007      17
    4971    5013    5016      17    4968    5010    5004      17    4965    5010
    4968      18    4965    5010    5004      17    4962    5007    5001      17
    4962    5007    5013      17    4959    5007    4962      18    4959    5007
    5001      17    4959    5007    5013      17    4956    5004    4998      17
    4956    5004    5010      17    4953    5004    4956      18    4953    5004
    4998      17    4953    5004    5010      17    4950    5001    4995      17
    4950    5001    5007      17    4947    5001    4950      18    4947    5001
    4995      17    4947    5001    5007      17    4944    4998    4995      17
    4944    4998    5004      17    4941    4998    4944      18    4941    4998
    4995      17    4941    4998    5004      17    4938    4995    4998      17
    4938    4995    5001      17    4935    4995    4938      18    4935    4995
    4998      17    4935    4995    5001      17    4932    5010    4965      19
    4932    5010    4968      19    4932    5010    5004      20
%FLAG DIHEDRALS_INC_HYDROGEN                                                    
%FORMAT(10I8)                                                                   
    4926    2028    2031    4929       1    4887    2004    2007    4890       1
    4881    1995    1998    4884       1    4842    1971    1974    4845       1
    4836    1962    1965    4839       1    4797    1938    1941    4800       1
    4791    1929    1932    4794       1    4752    1905    1908    4755       1
    4746    1896    1899    4749       1    4707    1872    1875    4710       1
    4701    1863    1866    4704       1    4662    1839    1842    4665       1
    4656    1830    1833    4659       1    4617    1806    1809    4620       1
    4611    1797    1800    4614       1    4572    1773    1776    4575       1
    4566    1764    1767    4569       1    4527    1740    1743    4530       1
    4521    1731    1734    4524       1    4482    1707    1710    4485       1
    4476    1698    1701    4479       1    4437    1674    1677    4440       1
    4431    1665    1668    4434       1    4392    1641    1644    4395       1
    4386    1632    1635    4389       1    4380    1626    1629    4383       1
    4341    1602    1605    4344       1    4335    1593    1596    4338       1
    4296    1569    1572    4299       1    4290    1560    1563    4293       1
    4251    1536    1539    4254       1    4245    1527    1530    4248       1
    4206    1503    1506    4209       1    4200    1494    1497    4203       1
    4161    1470    1473    4164       1    4155    1461    1464    4158       1
    4116    1437    1440    4119       1    4110    1428    1431    4113       1
    4071    1404    1407    4074       1    4065    1395    1398    4068       1
    4026    1371    1374    4029       1    4020    1362    1365    4023       1
    3981    1338    1341    3984       1    3975    1329    1332    3978       1
    3936    1305    1308    3939       1    3930    1296    1299    3933       1
    3891    1272    1275    3894       1    3885    1263    1266    3888       1
    3846    1239    1242    3849       1    3840    1230    1233    3843       1
    3801    1206    1209    3804       1    3789    1197    1200    3792       2
    3789    1197    1200    3795       2    3789    1197    1200    3798       2
    3786    1194    1197    3789       2    3783    1194    1197    3789       2
    3780    1191    1194    3783       2    3780    1191    1194    3786       2
    3777    1191    1194    3783       2    3777    1191    1194    3786       2
    3774    1188    1191    3777       2    3774    1188    1191    3780       2
    3771    1185    1188    3774       2    3768    1185    1188    3774       2
    3765    1182    1185    3768       2    3765    1182    1185    3771       2
    3762    1182    1185    3768       2    3762    1182    1185    3771       2
    3759    1179    1182    3762       2    3759    1179    1182    3765       2
    3756    1176    1179    3759       2    3753    1176    1179    3759       2
    3750    1173    1176    3753       2    3750    1173    1176    3756       2
    3747    1173    1176    3753       2    3747    1173    1176    3756       2
    3744    1170    1173    3747       2    3744    1170    1173    3750       2
    3741    1167    1170    3744       2    3738    1167    1170    3744       2
    3735    1164    1167    3738       2    3735    1164    1167    3741       2
    3732    1164    1167    3738       2    3732    1164    1167    3741       2
    3729    1161    1164    3732       2    3729    1161    1164    3735       2
    3726    1158    1161    3729       2    3723    1158    1161    3729       2
    3720    1155    1158    3723       2    3720    1155    1158    3726       2
    3717    1155    1158    3723       2    3717    1155    1158    3726       2
    3714    1152    1155    3717       2    3714    1152    1155    3720       2
    3711    1149    1152    3714       2    3708    1149    1152    3714       2
    3705    1146    1149    3708       2    3705    1146    1149    3711       2
    3702    1146    1149    3708       2    3702    1146    1149    3711       2
    3699    1143    1146    3702       2    3699    1143    1146    3705       2
    3696    1140    1143    3699       2    3693    1140    1143    3699       2
    3690    1137    1140    3693       2    3690    1137    1140    3696       2
    3687    1137    1140    3693       2    3687    1137    1140    3696       2
    3684    1134    1137    3687       2    3684    1134    1137    3690       2
    3681    1131    1134    3684       2    3678    1131    1134    3684       2
    3675    1128    1131    3678       2    3675    1128    1131    3681       2
    3672    1128    1131    3678       2    3672    1128    1131    3681       2
    3669    1125    1128    3672       2    3669    1125    1128    3675       2
    3666    1122    1125    3669       2    3663    1122    1125    3669       2
    3660    1119    1122    3663       2    3660    1119    1122    3666       2
    3657    1119    1122    3663       2    3657    1119    1122    3666       2
    3654    1116    1119    3657       2    3654    1116    1119    3660       2
    3651    1113    1116    3654       2    3648    1113    1116    3654       2
    3645    1110    1113    3648       2    3645    1110    1113    3651       2
    3642    1110    1113    3648       2    3642    1110    1113    3651       2
    3639    1107    1110    3642       2    3639    1107    1110    3645       2
    3636    1104    1107    3639       2    3633    1104    1107    3639       2
    3630    1101    1104    3633       2    3630    1101    1104    3636       2
    3627    1101    1104    3633       2    3627    1101    1104    3636       2
    3624    1098    1101    3627       2    3624    1098    1101    3630       2
    3621    1095    1098    3624       2    3618    1095    1098    3624       2
    3615    1092    1095    3618       2    3615    1092    1095    3621       2
    3612    1092    1095    3618       2    3612    1092    1095    3621       2
    3606    1086    1089    3609       1    3567    1062    1065    3570       1
    3561    1053    1056    3564       1    3522    1029    1032    3525       1
    3516    1020    1023    3519       1    3477     996     999    3480       1
    3471     987     990    3474       1    3432     963     966    3435       1
    3426     954     957    3429       1    3387     930     933    3390       1
    3381     921     924    3384       1    3342     897     900    3345       1
    3336     888     891    3339       1    3297     864     867    3300       1
    3291     855     858    3294       1    3252     831     834    3255       1
    3246     822     825    3249       1    3207     798     801    3210       1
    3201     789     792    3204       1    3162     765     768    3165       1
    3156     756     759    3159       1    3117     732     735    3120       1
    3105     723     726    3108       2    3105     723     726    3111       2
    3105     723     726    3114       2    3102     720     723    3105       2
    3099     720     723    3105       2    3096     717     720    3099       2
    3096     717     720    3102       2    3093     717     720    3099       2
    3093     717     720    3102       2    3090     714     717    3093       2
    3090     714     717    3096       2    3087     711     714    3090       2
    3084     711     714    3090       2    3081     708     711    3084       2
    3081     708     711    3087       2    3078     708     711    3084       2
    3078     708     711    3087       2    3075     705     708    3078       2
    3075     705     708    3081       2    3072     702     705    3075       2
    3069     702     705    3075       2    3066     699     702    3069       2
    3066     699     702    3072       2    3063     699     702    3069       2
    3063     699     702    3072       2    3060     696     699    3063       2
    3060     696     699    3066       2    3057     693     696    3060       2
    3054     693     696    3060       2    3051     690     693    3054       2
    3051     690     693    3057       2    3048     690     693    3054       2
    3048     690     693    3057       2    3045     687     690    3048       2
    3045     687     690    3051       2    3042     684     687    3045       2
    3039     684     687    3045       2    3036     681     684    3039       2
    3036     681     684    3042       2    3033     681     684    3039       2
    3033     681     684    3042       2    3030     678     681    3033       2
    3030     678     681    3036       2    3027     675     678    3030       2
    3024     675     678    3030       2    3021     672     675    3024       2
    3021     672     675    3027       2    3018     672     675    3024       2
    3018     672     675    3027       2    3015     669     672    3018       2
    3015     669     672    3021       2    3012     666     669    3015       2
    3009     666     669    3015       2    3006     663     666    3009       2
    3006     663     666    3012       2    3003     663     666    3009       2
    3003     663     666    3012       2    3000     660     663    3003       2
    3000     660     663    3006       2    2997     657     660    3000       2
    2994     657     660    3000       2    2991     654     657    2994       2
    2991     654     657    2997       2    2988     654     657    2994       2
    2988     654     657    2997       2    2985     651     654    2988       2
    2985     651     654    2991       2    2982     648     651    2985       2
    2979     648     651    2985       2    2976     645     648    2979       2
    2976     645     648    2982       2    2973     645     648    2979       2
    2973     645     648    2982       2    2970     642     645    2973       2
    2970     642     645    2976       2    2967     639     642    2970       2
    2964     639     642    2970       2    2961     636     639    2964       2
    2961     636     639    2967       2    2958     636     639    2964       2
    2958     636     639    2967       2    2955     633     636    2958       2
    2955     633     636    2961       2    2952     630     633    2955       2
    2949     630     633    2955       2    2946     627     630    2949       2
    2946     627     630    2952       2    2943     627     630    2949       2
    2943     627     630    2952       2    2937     615     618    2940       1
    2931     606     609    2934       1    2892     582     585    2895       1
    2886     573     576    2889       1    2847     549     552    2850       1
    2841     540     543    2844       1    2802     516     519    2805       1
    2796     507     510    2799       1    2757     483     486    2760       1
    2751     474     477    2754       1    2712     450     453    2715       1
    2706     441     444    2709       1    2667     417     420    2670       1
    2661     408     411    2664       1    2622     384     387    2625       1
    2616     375     378    2619       1    2577     351     354    2580       1
    2571     342     345    2574       1    2532     318     321    2535       1
    2526     309     312    2529       1    2487     285     288    2490       1
    2481     276     279    2484       1    2442     252     255    2445       1
    2436     243     246    2439       1    2397     219     222    2400       1
    2385     210     213    2388       2    2385     210     213    2391       2
    2385     210     213    2394       2    2382     207     210    2385       2
    2379     207     210    2385       2    2376     204     207    2379       2
    2376     204     207    2382       2    2373     204     207    2379       2
    2373     204     207    2382       2    2370     201     204    2373       2
    2370     201     204    2376       2    2367     198     201    2370       2
    2364     198     201    2370       2    2361     195     198    2364       2
    2361     195     198    2367       2    2358     195     198    2364       2
    2358     195     198    2367       2    2355     192     195    2358       2
    2355     192     195    2361       2    2352     189     192    2355       2
    2349     189     192    2355       2    2346     186     189    2349       2
    2346     186     189    2352       2    2343     186     189    2349       2
    2343     186     189    2352       2    2340     183     186    2343       2
    2340     183     186    2346       2    2337     180     183    2340       2
    2334     180     183    2340       2    2331     177     180    2334       2
    2331     177     180    2337       2    2328     177     180    2334       2
    2328     177     180    2337       2    2325     174     177    2328       2
    2325     174     177    2331       2    2322     171     174    2325       2
    2319     171     174    2325       2    2316     168     171    2319       2
    2316     168     171    2322       2    2313     168     171    2319       2
    2313     168     171    2322       2    2310     165     168    2313       2
    2310     165     168    2316       2    2307     162     165    2310       2
    2304     162     165    2310       2    2301     159     162    2304       2
    2301     159     162    2307       2    2298     159     162    2304       2
    2298     159     162    2307       2    2295     156     159    2298       2
    2295     156     159    2301       2    2292     153     156    2295       2
    2289     153     156    2295       2    2286     150     153    2289       2
    2286     150     153    2292       2    2283     150     153    2289       2
    2283     150     153    2292       2    2280     147     150    2283       2
    2280     147     150    2286       2    2277     144     147    2280       2
    2274     144     147    2280       2    2271     141     144    2274       2
    2271     141     144    2277       2    2268     141     144    2274       2
    2268     141     144    2277       2    2265     138     141    2268       2
    2265     138     141    2271       2    2262     135     138    2265       2
    2259     135     138    2265       2    2256     132     135    2259       2
    2256     132     135    2262       2    2253     132     135    2259       2
    2253     132     135    2262       2    2250     129     132    2253       2
    2250     129     132    2256       2    2247     126     129    2250       2
    2244     126     129    2250       2    2241     123     126    2244       2
    2241     123     126    2247       2    2238     123     126    2244       2
    2238     123     126    2247       2    2235     120     123    2238       2
    2235     120     123    2241       2    2232     117     120    2235       2
    2229     117     120    2235       2    2226     114     117    2229       2
    2226     114     117    2232       2    2223     114     117    2229       2
    2223     114     117    2232       2    2214     105     108    2217       2
    2214     105     108    2220       2    2211     105     108    2217       2
    2211     105     108    2220       2    2208     102     105    2211       2
    2208     102     105    2214       2    2205      99     102    2208       2
    2202      99     102    2208       2    2199      96      99    2202       2
    2199      96      99    2205       2    2196      96      99    2202       2
    2196      96      99    2205       2    2193      93      96    2196       2
    2193      93      96    2199       2    2190      90      93    2193       2
    2187      90      93    2193       2    2184      87      90    2187       2
    2184      87      90    2190       2    2181      87      90    2187       2
    2181      87      90    2190       2    2178      84      87    2181       2
    2178      84      87    2184       2    2175      81      84    2178       2
    2172      81      84    2178       2    2169      78      81    2172       2
    2169      78      81    2175       2    2166      78      81    2172       2
    2166      78      81    2175       2    2163      75      78    2166       2
    2163      75      78    2169       2    2160      72      75    2163       2
    2157      72      75    2163       2    2154      69      72    2157       2
    2154      69      72    2160       2    2151      69      72    2157       2
    2151      69      72    2160       2    2148      66      69    2151       2
    2148      66      69    2154       2    2145      63      66    2148       2
    2142      63      66    2148       2    2139      60      63    2142       2
    2139      60      63    2145       2    2136      60      63    2142       2
    2136      60      63    2145       2    2133      57      60    2136       2
    2133      57      60    2139       2    2130      54      57    2133       2
    2127      54      57    2133       2    2124      51      54    2127       2
    2124      51      54    2130       2    2121      51      54    2127       2
    2121      51      54    2130       2    2118      48      51    2121       2
    2118      48      51    2124       2    2115      45      48    2118       2
    2112      45      48    2118       2    2109      42      45    2112       2
    2109      42      45    2115       2    2106      42      45    2112       2
    2106      42      45    2115       2    2103      39      42    2106       2
    2103      39      42    2109       2    2100      36      39    2103       2
    2097      36      39    2103       2    2094      33      36    2097       2
    2094      33      36    2100       2    2091      33      36    2097       2
    2091      33      36    2100       2    2088      30      33    2091       2
    2088      30      33    2094       2    2085      27      30    2088       2
    2082      27      30    2088       2    2079      24      27    2082       2
    2079      24      27    2085       2    2076      24      27    2082       2
    2076      24      27    2085       2    2073      21      24    2076       2
    2073      21      24    2079       2    2070      18      21    2073       2
    2067      18      21    2073       2    2064      15      18    2067       2
    2064      15      18    2070       2    2061      15      18    2067       2
    2061      15      18    2070       2    2058      12      15    2061       2
    2058      12      15    2064       2    2055       9      12    2058       2
    2052       9      12    2058       2    2049       6       9    2052       2
    2049       6       9    2055       2    2046       6       9    2052       2
    2046       6       9    2055       2    2043       3       6    2046       2
    2043       3       6    2049       2    2040       0       3    2043       2
    2037       0       3    2043       2    2034       0       3    2043       2
    2031    2001       3    2043       3    2031    2001    2004    4887       1
    2028    2010    2007    4890       1    2028    2010    2013    4893       4
    2028    2010    2013    4896       4    2025    2016    2013    4893       5
    2025    2016    2013    4896       5    2025    2016    2019    4899       5
    2025    2016    2019    4902       5    2025    2016    2019    4905       5
    2025    2016    2022    4908       5    2025    2016    2022    4911       5
    2025    2016    2022    4914       5    2022    2016    2013    4893       5
    2022    2016    2013    4896       5    2022    2016    2019    4899       5
    2022    2016    2019    4902       5    2022    2016    2019    4905       5
    2022    2016    2025    4917       5    2022    2016    2025    4920       5
    2022    2016    2025    4923       5    2019    2016    2013    4893       5
    2019    2016    2013    4896       5    2019    2016    2022    4908       5
    2019    2016    2022    4911       5    2019    2016    2022    4914       5
    2019    2016    2025    4917       5    2019    2016    2025    4920       5
    2019    2016    2025    4923       5    2013    2010    2007    4890       1
    2013    2010    2028    4926       1    2013    2016    2019    4899       5
    2013    2016    2019    4902       5    2013    2016    2019    4905       5
    2013    2016    2022    4908       5    2013    2016    2022    4911       5
    2013    2016    2022    4914       5    2013    2016    2025    4917       5
    2013    2016    2025    4920       5    2013    2016    2025    4923       5
    2010    2007    2004    4887       1    2010    2028    2031    4929       1
    2007    2010    2013    4893       4    2007    2010    2013    4896       4
    2007    2010    2028    4926       1    2004    2001       3    2043       3
    2004    2001      -3    2043       4    2004    2001    2031    4929       1
    2034       0       3    2001       5    2037       0       3    2001       5
    2040       0       3    2001       5    2001       3       6    2046       5
    2001       3       6    2049       5    2001    2004    2007    4890       1
    2001    2031    2028    4926       1    1998    1968      12    2058       3
    1998    1968     -12    2058       4    1998    1968    1971    4842       1
    1995    1977    1974    4845       1    1995    1977    1980    4848       4
    1995    1977    1980    4851       4    1992    1983    1980    4848       5
    1992    1983    1980    4851       5    1992    1983    1986    4854       5
    1992    1983    1986    4857       5    1992    1983    1986    4860       5
    1992    1983    1989    4863       5    1992    1983    1989    4866       5
    1992    1983    1989    4869       5    1989    1983    1980    4848       5
    1989    1983    1980    4851       5    1989    1983    1986    4854       5
    1989    1983    1986    4857       5    1989    1983    1986    4860       5
    1989    1983    1992    4872       5    1989    1983    1992    4875       5
    1989    1983    1992    4878       5    1986    1983    1980    4848       5
    1986    1983    1980    4851       5    1986    1983    1989    4863       5
    1986    1983    1989    4866       5    1986    1983    1989    4869       5
    1986    1983    1992    4872       5    1986    1983    1992    4875       5
    1986    1983    1992    4878       5    1980    1977    1974    4845       1
    1980    1977    1995    4881       1    1980    1983    1986    4854       5
    1980    1983    1986    4857       5    1980    1983    1986    4860       5
    1980    1983    1989    4863       5    1980    1983    1989    4866       5
    1980    1983    1989    4869       5    1980    1983    1992    4872       5
    1980    1983    1992    4875       5    1980    1983    1992    4878       5
    1977    1974    1971    4842       1    1977    1995    1998    4884       1
    1974    1977    1980    4848       4    1974    1977    1980    4851       4
    1974    1977    1995    4881       1    1971    1968      12    2058       3
    1971    1968     -12    2058       4    1971    1968    1998    4884       1
    1968      12       9    2052       5    1968      12       9    2055       5
    1968      12      15    2061       5    1968      12      15    2064       5
    1968    1971    1974    4845       1    1968    1998    1995    4881       1
    1965    1935      21    2073       3    1965    1935     -21    2073       4
    1965    1935    1938    4797       1    1962    1944    1941    4800       1
    1962    1944    1947    4803       4    1962    1944    1947    4806       4
    1959    1950    1947    4803       5    1959    1950    1947    4806       5
    1959    1950    1953    4809       5    1959    1950    1953    4812       5
    1959    1950    1953    4815       5    1959    1950    1956    4818       5
    1959    1950    1956    4821       5    1959    1950    1956    4824       5
    1956    1950    1947    4803       5    1956    1950    1947    4806       5
    1956    1950    1953    4809       5    1956    1950    1953    4812       5
    1956    1950    1953    4815       5    1956    1950    1959    4827       5
    1956    1950    1959    4830       5    1956    1950    1959    4833       5
    1953    1950    1947    4803       5    1953    1950    1947    4806       5
    1953    1950    1956    4818       5    1953    1950    1956    4821       5
    1953    1950    1956    4824       5    1953    1950    1959    4827       5
    1953    1950    1959    4830       5    1953    1950    1959    4833       5
    1947    1944    1941    4800       1    1947    1944    1962    4836       1
    1947    1950    1953    4809       5    1947    1950    1953    4812       5
    1947    1950    1953    4815       5    1947    1950    1956    4818       5
    1947    1950    1956    4821       5    1947    1950    1956    4824       5
    1947    1950    1959    4827       5    1947    1950    1959    4830       5
    1947    1950    1959    4833       5    1944    1941    1938    4797       1
    1944    1962    1965    4839       1    1941    1944    1947    4803       4
    1941    1944    1947    4806       4    1941    1944    1962    4836       1
    1938    1935      21    2073       3    1938    1935     -21    2073       4
    1938    1935    1965    4839       1    1935      21      18    2067       5
    1935      21      18    2070       5    1935      21      24    2076       5
    1935      21      24    2079       5    1935    1938    1941    4800       1
    1935    1965    1962    4836       1    1932    1902      30    2088       3
    1932    1902     -30    2088       4    1932    1902    1905    4752       1
    1929    1911    1908    4755       1    1929    1911    1914    4758       4
    1929    1911    1914    4761       4    1926    1917    1914    4758       5
    1926    1917    1914    4761       5    1926    1917    1920    4764       5
    1926    1917    1920    4767       5    1926    1917    1920    4770       5
    1926    1917    1923    4773       5    1926    1917    1923    4776       5
    1926    1917    1923    4779       5    1923    1917    1914    4758       5
    1923    1917    1914    4761       5    1923    1917    1920    4764       5
    1923    1917    1920    4767       5    1923    1917    1920    4770       5
    1923    1917    1926    4782       5    1923    1917    1926    4785       5
    1923    1917    1926    4788       5    1920    1917    1914    4758       5
    1920    1917    1914    4761       5    1920    1917    1923    4773       5
    1920    1917    1923    4776       5    1920    1917    1923    4779       5
    1920    1917    1926    4782       5    1920    1917    1926    4785       5
    1920    1917    1926    4788       5    1914    1911    1908    4755       1
    1914    1911    1929    4791       1    1914    1917    1920    4764       5
    1914    1917    1920    4767       5    1914    1917    1920    4770       5
    1914    1917    1923    4773       5    1914    1917    1923    4776       5
    1914    1917    1923    4779       5    1914    1917    1926    4782       5
    1914    1917    1926    4785       5    1914    1917    1926    4788       5
    1911    1908    1905    4752       1    1911    1929    1932    4794       1
    1908    1911    1914    4758       4    1908    1911    1914    4761       4
    1908    1911    1929    4791       1    1905    1902      30    2088       3
    1905    1902     -30    2088       4    1905    1902    1932    4794       1
    1902      30      27    2082       5    1902      30      27    2085       5
    1902      30      33    2091       5    1902      30      33    2094       5
    1902    1905    1908    4755       1    1902    1932    1929    4791       1
    1899    1869      39    2103       3    1899    1869     -39    2103       4
    1899    1869    1872    4707       1    1896    1878    1875    4710       1
    1896    1878    1881    4713       4    1896    1878    1881    4716       4
    1893    1884    1881    4713       5    1893    1884    1881    4716       5
    1893    1884    1887    4719       5    1893    1884    1887    4722       5
    1893    1884    1887    4725       5    1893    1884    1890    4728       5
    1893    1884    1890    4731       5    1893    1884    1890    4734       5
    1890    1884    1881    4713       5    1890    1884    1881    4716       5
    1890    1884    1887    4719       5    1890    1884    1887    4722       5
    1890    1884    1887    4725       5    1890    1884    1893    4737       5
    1890    1884    1893    4740       5    1890    1884    1893    4743       5
    1887    1884    1881    4713       5    1887    1884    1881    4716       5
    1887    1884    1890    4728       5    1887    1884    1890    4731       5
    1887    1884    1890    4734       5    1887    1884    1893    4737       5
    1887    1884    1893    4740       5    1887    1884    1893    4743       5
    1881    1878    1875    4710       1    1881    1878    1896    4746       1
    1881    1884    1887    4719       5    1881    1884    1887    4722       5
    1881    1884    1887    4725       5    1881    1884    1890    4728       5
    1881    1884    1890    4731       5    1881    1884    1890    4734       5
    1881    1884    1893    4737       5    1881    1884    1893    4740       5
    1881    1884    1893    4743       5    1878    1875    1872    4707       1
    1878    1896    1899    4749       1    1875    1878    1881    4713       4
    1875    1878    1881    4716       4    1875    1878    1896    4746       1
    1872    1869      39    2103       3    1872    1869     -39    2103       4
    1872    1869    1899    4749       1    1869      39      36    2097       5
    1869      39      36    2100       5    1869      39      42    2106       5
    1869      39      42    2109       5    1869    1872    1875    4710       1
    1869    1899    1896    4746       1    1866    1836      48    2118       3
    1866    1836     -48    2118       4    1866    1836    1839    4662       1
    1863    1845    1842    4665       1    1863    1845    1848    4668       4
    1863    1845    1848    4671       4    1860    1851    1848    4668       5
    1860    1851    1848    4671       5    1860    1851    1854    4674       5
    1860    1851    1854    4677       5    1860    1851    1854    4680       5
    1860    1851    1857    4683       5    1860    1851    1857    4686       5
    1860    1851    1857    4689       5    1857    1851    1848    4668       5
    1857    1851    1848    4671       5    1857    1851    1854    4674       5
    1857    1851    1854    4677       5    1857    1851    1854    4680       5
    1857    1851    1860    4692       5    1857    1851    1860    4695       5
    1857    1851    1860    4698       5    1854    1851    1848    4668       5
    1854    1851    1848    4671       5    1854    1851    1857    4683       5
    1854    1851    1857    4686       5    1854    1851    1857    4689       5
    1854    1851    1860    4692       5    1854    1851    1860    4695       5
    1854    1851    1860    4698       5    1848    1845    1842    4665       1
    1848    1845    1863    4701       1    1848    1851    1854    4674       5
    1848    1851    1854    4677       5    1848    1851    1854    4680       5
    1848    1851    1857    4683       5    1848    1851    1857    4686       5
    1848    1851    1857    4689       5    1848    1851    1860    4692       5
    1848    1851    1860    4695       5    1848    1851    1860    4698       5
    1845    1842    1839    4662       1    1845    1863    1866    4704       1
    1842    1845    1848    4668       4    1842    1845    1848    4671       4
    1842    1845    1863    4701       1    1839    1836      48    2118       3
    1839    1836     -48    2118       4    1839    1836    1866    4704       1
    1836      48      45    2112       5    1836      48      45    2115       5
    1836      48      51    2121       5    1836      48      51    2124       5
    1836    1839    1842    4665       1    1836    1866    1863    4701       1
    1833    1803      57    2133       3    1833    1803     -57    2133       4
    1833    1803    1806    4617       1    1830    1812    1809    4620       1
    1830    1812    1815    4623       4    1830    1812    1815    4626       4
    1827    1818    1815    4623       5    1827    1818    1815    4626       5
    1827    1818    1821    4629       5    1827    1818    1821    4632       5
    1827    1818    1821    4635       5    1827    1818    1824    4638       5
    1827    1818    1824    4641       5    1827    1818    1824    4644       5
    1824    1818    1815    4623       5    1824    1818    1815    4626       5
    1824    1818    1821    4629       5    1824    1818    1821    4632       5
    1824    1818    1821    4635       5    1824    1818    1827    4647       5
    1824    1818    1827    4650       5    1824    1818    1827    4653       5
    1821    1818    1815    4623       5    1821    1818    1815    4626       5
    1821    1818    1824    4638       5    1821    1818    1824    4641       5
    1821    1818    1824    4644       5    1821    1818    1827    4647       5
    1821    1818    1827    4650       5    1821    1818    1827    4653       5
    1815    1812    1809    4620       1    1815    1812    1830    4656       1
    1815    1818    1821    4629       5    1815    1818    1821    4632       5
    1815    1818    1821    4635       5    1815    1818    1824    4638       5
    1815    1818    1824    4641       5    1815    1818    1824    4644       5
    1815    1818    1827    4647       5    1815    1818    1827    4650       5
    1815    1818    1827    4653       5    1812    1809    1806    4617       1
    1812    1830    1833    4659       1    1809    1812    1815    4623       4
    1809    1812    1815    4626       4    1809    1812    1830    4656       1
    1806    1803      57    2133       3    1806    1803     -57    2133       4
    1806    1803    1833    4659       1    1803      57      54    2127       5
    1803      57      54    2130       5    1803      57      60    2136       5
    1803      57      60    2139       5    1803    1806    1809    4620       1
    1803    1833    1830    4656       1    1800    1770      66    2148       3
    1800    1770     -66    2148       4    1800    1770    1773    4572       1
    1797    1779    1776    4575       1    1797    1779    1782    4578       4
    1797    1779    1782    4581       4    1794    1785    1782    4578       5
    1794    1785    1782    4581       5    1794    1785    1788    4584       5
    1794    1785    1788    4587       5    1794    1785    1788    4590       5
    1794    1785    1791    4593       5    1794    1785    1791    4596       5
    1794    1785    1791    4599       5    1791    1785    1782    4578       5
    1791    1785    1782    4581       5    1791    1785    1788    4584       5
    1791    1785    1788    4587       5    1791    1785    1788    4590       5
    1791    1785    1794    4602       5    1791    1785    1794    4605       5
    1791    1785    1794    4608       5    1788    1785    1782    4578       5
    1788    1785    1782    4581       5    1788    1785    1791    4593       5
    1788    1785    1791    4596       5    1788    1785    1791    4599       5
    1788    1785    1794    4602       5    1788    1785    1794    4605       5
    1788    1785    1794    4608       5    1782    1779    1776    4575       1
    1782    1779    1797    4611       1    1782    1785    1788    4584       5
    1782    1785    1788    4587       5    1782    1785    1788    4590       5
    1782    1785    1791    4593       5    1782    1785    1791    4596       5
    1782    1785    1791    4599       5    1782    1785    1794    4602       5
    1782    1785    1794    4605       5    1782    1785    1794    4608       5
    1779    1776    1773    4572       1    1779    1797    1800    4614       1
    1776    1779    1782    4578       4    1776    1779    1782    4581       4
    1776    1779    1797    4611       1    1773    1770      66    2148       3
    1773    1770     -66    2148       4    1773    1770    1800    4614       1
    1770      66      63    2142       5    1770      66      63    2145       5
    1770      66      69    2151       5    1770      66      69    2154       5
    1770    1773    1776    4575       1    1770    1800    1797    4611       1
    1767    1737      75    2163       3    1767    1737     -75    2163       4
    1767    1737    1740    4527       1    1764    1746    1743    4530       1
    1764    1746    1749    4533       4    1764    1746    1749    4536       4
    1761    1752    1749    4533       5    1761    1752    1749    4536       5
    1761    1752    1755    4539       5    1761    1752    1755    4542       5
    1761    1752    1755    4545       5    1761    1752    1758    4548       5
    1761    1752    1758    4551       5    1761    1752    1758    4554       5
    1758    1752    1749    4533       5    1758    1752    1749    4536       5
    1758    1752    1755    4539       5    1758    1752    1755    4542       5
    1758    1752    1755    4545       5    1758    1752    1761    4557       5
    1758    1752    1761    4560       5    1758    1752    1761    4563       5
    1755    1752    1749    4533       5    1755    1752    1749    4536       5
    1755    1752    1758    4548       5    1755    1752    1758    4551       5
    1755    1752    1758    4554       5    1755    1752    1761    4557       5
    1755    1752    1761    4560       5    1755    1752    1761    4563       5
    1749    1746    1743    4530       1    1749    1746    1764    4566       1
    1749    1752    1755    4539       5    1749    1752    1755    4542       5
    1749    1752    1755    4545       5    1749    1752    1758    4548       5
    1749    1752    1758    4551       5    1749    1752    1758    4554       5
    1749    1752    1761    4557       5    1749    1752    1761    4560       5
    1749    1752    1761    4563       5    1746    1743    1740    4527       1
    1746    1764    1767    4569       1    1743    1746    1749    4533       4
    1743    1746    1749    4536       4    1743    1746    1764    4566       1
    1740    1737      75    2163       3    1740    1737     -75    2163       4
    1740    1737    1767    4569       1    1737      75      72    2157       5
    1737      75      72    2160       5    1737      75      78    2166       5
    1737      75      78    2169       5    1737    1740    1743    4530       1
    1737    1767    1764    4566       1    1734    1704      84    2178       3
    1734    1704     -84    2178       4    1734    1704    1707    4482       1
    1731    1713    1710    4485       1    1731    1713    1716    4488       4
    1731    1713    1716    4491       4    1728    1719    1716    4488       5
    1728    1719    1716    4491       5    1728    1719    1722    4494       5
    1728    1719    1722    4497       5    1728    1719    1722    4500       5
    1728    1719    1725    4503       5    1728    1719    1725    4506       5
    1728    1719    1725    4509       5    1725    1719    1716    4488       5
    1725    1719    1716    4491       5    1725    1719    1722    4494       5
    1725    1719    1722    4497       5    1725    1719    1722    4500       5
    1725    1719    1728    4512       5    1725    1719    1728    4515       5
    1725    1719    1728    4518       5    1722    1719    1716    4488       5
    1722    1719    1716    4491       5    1722    1719    1725    4503       5
    1722    1719    1725    4506       5    1722    1719    1725    4509       5
    1722    1719    1728    4512       5    1722    1719    1728    4515       5
    1722    1719    1728    4518       5    1716    1713    1710    4485       1
    1716    1713    1731    4521       1    1716    1719    1722    4494       5
    1716    1719    1722    4497       5    1716    1719    1722    4500       5
    1716    1719    1725    4503       5    1716    1719    1725    4506       5
    1716    1719    1725    4509       5    1716    1719    1728    4512       5
    1716    1719    1728    4515       5    1716    1719    1728    4518       5
    1713    1710    1707    4482       1    1713    1731    1734    4524       1
    1710    1713    1716    4488       4    1710    1713    1716    4491       4
    1710    1713    1731    4521       1    1707    1704      84    2178       3
    1707    1704     -84    2178       4    1707    1704    1734    4524       1
    1704      84      81    2172       5    1704      84      81    2175       5
    1704      84      87    2181       5    1704      84      87    2184       5
    1704    1707    1710    4485       1    1704    1734    1731    4521       1
    1701    1671      93    2193       3    1701    1671     -93    2193       4
    1701    1671    1674    4437       1    1698    1680    1677    4440       1
    1698    1680    1683    4443       4    1698    1680    1683    4446       4
    1695    1686    1683    4443       5    1695    1686    1683    4446       5
    1695    1686    1689    4449       5    1695    1686    1689    4452       5
    1695    1686    1689    4455       5    1695    1686    1692    4458       5
    1695    1686    1692    4461       5    1695    1686    1692    4464       5
    1692    1686    1683    4443       5    1692    1686    1683    4446       5
    1692    1686    1689    4449       5    1692    1686    1689    4452       5
    1692    1686    1689    4455       5    1692    1686    1695    4467       5
    1692    1686    1695    4470       5    1692    1686    1695    4473       5
    1689    1686    1683    4443       5    1689    1686    1683    4446       5
    1689    1686    1692    4458       5    1689    1686    1692    4461       5
    1689    1686    1692    4464       5    1689    1686    1695    4467       5
    1689    1686    1695    4470       5    1689    1686    1695    4473       5
    1683    1680    1677    4440       1    1683    1680    1698    4476       1
    1683    1686    1689    4449       5    1683    1686    1689    4452       5
    1683    1686    1689    4455       5    1683    1686    1692    4458       5
    1683    1686    1692    4461       5    1683    1686    1692    4464       5
    1683    1686    1695    4467       5    1683    1686    1695    4470       5
    1683    1686    1695    4473       5    1680    1677    1674    4437       1
    1680    1698    1701    4479       1    1677    1680    1683    4443       4
    1677    1680    1683    4446       4    1677    1680    1698    4476       1
    1674    1671      93    2193       3    1674    1671     -93    2193       4
    1674    1671    1701    4479       1    1671      93      90    2187       5
    1671      93      90    2190       5    1671      93      96    2196       5
    1671      93      96    2199       5    1671    1674    1677    4440       1
    1671    1701    1698    4476       1    1668    1638     102    2208       3
    1668    1638    -102    2208       4    1668    1638    1641    4392       1
    1665    1647    1644    4395       1    1665    1647    1650    4398       4
    1665    1647    1650    4401       4    1662    1653    1650    4398       5
    1662    1653    1650    4401       5    1662    1653    1656    4404       5
    1662    1653    1656    4407       5    1662    1653    1656    4410       5
    1662    1653    1659    4413       5    1662    1653    1659    4416       5
    1662    1653    1659    4419       5    1659    1653    1650    4398       5
    1659    1653    1650    4401       5    1659    1653    1656    4404       5
    1659    1653    1656    4407       5    1659    1653    1656    4410       5
    1659    1653    1662    4422       5    1659    1653    1662    4425       5
    1659    1653    1662    4428       5    1656    1653    1650    4398       5
    1656    1653    1650    4401       5    1656    1653    1659    4413       5
    1656    1653    1659    4416       5    1656    1653    1659    4419       5
    1656    1653    1662    4422       5    1656    1653    1662    4425       5
    1656    1653    1662    4428       5    1650    1647    1644    4395       1
    1650    1647    1665    4431       1    1650    1653    1656    4404       5
    1650    1653    1656    4407       5    1650    1653    1656    4410       5
    1650    1653    1659    4413       5    1650    1653    1659    4416       5
    1650    1653    1659    4419       5    1650    1653    1662    4422       5
    1650    1653    1662    4425       5    1650    1653    1662    4428       5
    1647    1644    1641    4392       1    1647    1665    1668    4434       1
    1644    1647    1650    4398       4    1644    1647    1650    4401       4
    1644    1647    1665    4431       1    1641    1638     102    2208       3
    1641    1638    -102    2208       4    1641    1638    1668    4434       1
    1638     102      99    2202       5    1638     102      99    2205       5
    1638     102     105    2211       5    1638     102     105    2214       5
    1638    1641    1644    4395       1    1638    1668    1665    4431       1
    1635     612     615    2937       1    1632     621     618    2940       1
    1629    1599    1602    4341       1    1626    1608    1605    4344       1
    1626    1608    1611    4347       4    1626    1608    1611    4350       4
    1623    1614    1611    4347       5    1623    1614    1611    4350       5
    1623    1614    1617    4353       5    1623    1614    1617    4356       5
    1623    1614    1617    4359       5    1623    1614    1620    4362       5
    1623    1614    1620    4365       5    1623    1614    1620    4368       5
    1620    1614    1611    4347       5    1620    1614    1611    4350       5
    1620    1614    1617    4353       5    1620    1614    1617    4356       5
    1620    1614    1617    4359       5    1620    1614    1623    4371       5
    1620    1614    1623    4374       5    1620    1614    1623    4377       5
    1617    1614    1611    4347       5    1617    1614    1611    4350       5
    1617    1614    1620    4362       5    1617    1614    1620    4365       5
    1617    1614    1620    4368       5    1617    1614    1623    4371       5
    1617    1614    1623    4374       5    1617    1614    1623    4377       5
    1611    1608    1605    4344       1    1611    1608    1626    4380       1
    1611    1614    1617    4353       5    1611    1614    1617    4356       5
    1611    1614    1617    4359       5    1611    1614    1620    4362       5
    1611    1614    1620    4365       5    1611    1614    1620    4368       5
    1611    1614    1623    4371       5    1611    1614    1623    4374       5
    1611    1614    1623    4377       5    1608    1605    1602    4341       1
    1608    1626    1629    4383       1    1605    1608    1611    4347       4
    1605    1608    1611    4350       4    1605    1608    1626    4380       1
    1602    1599    1629    4383       1    1599     624     627    2943       5
    1599     624     627    2946       5    1599     624    1092    3612       5
    1599     624    1092    3615       5    1599    1602    1605    4344       1
    1599    1629    1626    4380       1    1596    1566    1098    3624       3
    1596    1566   -1098    3624       4    1596    1566    1569    4296       1
    1593    1575    1572    4299       1    1593    1575    1578    4302       4
    1593    1575    1578    4305       4    1590    1581    1578    4302       5
    1590    1581    1578    4305       5    1590    1581    1584    4308       5
    1590    1581    1584    4311       5    1590    1581    1584    4314       5
    1590    1581    1587    4317       5    1590    1581    1587    4320       5
    1590    1581    1587    4323       5    1587    1581    1578    4302       5
    1587    1581    1578    4305       5    1587    1581    1584    4308       5
    1587    1581    1584    4311       5    1587    1581    1584    4314       5
    1587    1581    1590    4326       5    1587    1581    1590    4329       5
    1587    1581    1590    4332       5    1584    1581    1578    4302       5
    1584    1581    1578    4305       5    1584    1581    1587    4317       5
    1584    1581    1587    4320       5    1584    1581    1587    4323       5
    1584    1581    1590    4326       5    1584    1581    1590    4329       5
    1584    1581    1590    4332       5    1578    1575    1572    4299       1
    1578    1575    1593    4335       1    1578    1581    1584    4308       5
    1578    1581    1584    4311       5    1578    1581    1584    4314       5
    1578    1581    1587    4317       5    1578    1581    1587    4320       5
    1578    1581    1587    4323       5    1578    1581    1590    4326       5
    1578    1581    1590    4329       5    1578    1581    1590    4332       5
    1575    1572    1569    4296       1    1575    1593    1596    4338       1
    1572    1575    1578    4302       4    1572    1575    1578    4305       4
    1572    1575    1593    4335       1    1569    1566    1098    3624       3
    1569    1566   -1098    3624       4    1569    1566    1596    4338       1
    1566    1098    1095    3618       5    1566    1098    1095    3621       5
    1566    1098    1101    3627       5    1566    1098    1101    3630       5
    1566    1569    1572    4299       1    1566    1596    1593    4335       1
    1563    1533    1107    3639       3    1563    1533   -1107    3639       4
    1563    1533    1536    4251       1    1560    1542    1539    4254       1
    1560    1542    1545    4257       4    1560    1542    1545    4260       4
    1557    1548    1545    4257       5    1557    1548    1545    4260       5
    1557    1548    1551    4263       5    1557    1548    1551    4266       5
    1557    1548    1551    4269       5    1557    1548    1554    4272       5
    1557    1548    1554    4275       5    1557    1548    1554    4278       5
    1554    1548    1545    4257       5    1554    1548    1545    4260       5
    1554    1548    1551    4263       5    1554    1548    1551    4266       5
    1554    1548    1551    4269       5    1554    1548    1557    4281       5
    1554    1548    1557    4284       5    1554    1548    1557    4287       5
    1551    1548    1545    4257       5    1551    1548    1545    4260       5
    1551    1548    1554    4272       5    1551    1548    1554    4275       5
    1551    1548    1554    4278       5    1551    1548    1557    4281       5
    1551    1548    1557    4284       5    1551    1548    1557    4287       5
    1545    1542    1539    4254       1    1545    1542    1560    4290       1
    1545    1548    1551    4263       5    1545    1548    1551    4266       5
    1545    1548    1551    4269       5    1545    1548    1554    4272       5
    1545    1548    1554    4275       5    1545    1548    1554    4278       5
    1545    1548    1557    4281       5    1545    1548    1557    4284       5
    1545    1548    1557    4287       5    1542    1539    1536    4251       1
    1542    1560    1563    4293       1    1539    1542    1545    4257       4
    1539    1542    1545    4260       4    1539    1542    1560    4290       1
    1536    1533    1107    3639       3    1536    1533   -1107    3639       4
    1536    1533    1563    4293       1    1533    1107    1104    3633       5
    1533    1107    1104    3636       5    1533    1107    1110    3642       5
    1533    1107    1110    3645       5    1533    1536    1539    4254       1
    1533    1563    1560    4290       1    1530    1500    1116    3654       3
    1530    1500   -1116    3654       4    1530    1500    1503    4206       1
    1527    1509    1506    4209       1    1527    1509    1512    4212       4
    1527    1509    1512    4215       4    1524    1515    1512    4212       5
    1524    1515    1512    4215       5    1524    1515    1518    4218       5
    1524    1515    1518    4221       5    1524    1515    1518    4224       5
    1524    1515    1521    4227       5    1524    1515    1521    4230       5
    1524    1515    1521    4233       5    1521    1515    1512    4212       5
    1521    1515    1512    4215       5    1521    1515    1518    4218       5
    1521    1515    1518    4221       5    1521    1515    1518    4224       5
    1521    1515    1524    4236       5    1521    1515    1524    4239       5
    1521    1515    1524    4242       5    1518    1515    1512    4212       5
    1518    1515    1512    4215       5    1518    1515    1521    4227       5
    1518    1515    1521    4230       5    1518    1515    1521    4233       5
    1518    1515    1524    4236       5    1518    1515    1524    4239       5
    1518    1515    1524    4242       5    1512    1509    1506    4209       1
    1512    1509    1527    4245       1    1512    1515    1518    4218       5
    1512    1515    1518    4221       5    1512    1515    1518    4224       5
    1512    1515    1521    4227       5    1512    1515    1521    4230       5
    1512    1515    1521    4233       5    1512    1515    1524    4236       5
    1512    1515    1524    4239       5    1512    1515    1524    4242       5
    1509    1506    1503    4206       1    1509    1527    1530    4248       1
    1506    1509    1512    4212       4    1506    1509    1512    4215       4
    1506    1509    1527    4245       1    1503    1500    1116    3654       3
    1503    1500   -1116    3654       4    1503    1500    1530    4248       1
    1500    1116    1113    3648       5    1500    1116    1113    3651       5
    1500    1116    1119    3657       5    1500    1116    1119    3660       5
    1500    1503    1506    4209       1    1500    1530    1527    4245       1
    1497    1467    1125    3669       3    1497    1467   -1125    3669       4
    1497    1467    1470    4161       1    1494    1476    1473    4164       1
    1494    1476    1479    4167       4    1494    1476    1479    4170       4
    1491    1482    1479    4167       5    1491    1482    1479    4170       5
    1491    1482    1485    4173       5    1491    1482    1485    4176       5
    1491    1482    1485    4179       5    1491    1482    1488    4182       5
    1491    1482    1488    4185       5    1491    1482    1488    4188       5
    1488    1482    1479    4167       5    1488    1482    1479    4170       5
    1488    1482    1485    4173       5    1488    1482    1485    4176       5
    1488    1482    1485    4179       5    1488    1482    1491    4191       5
    1488    1482    1491    4194       5    1488    1482    1491    4197       5
    1485    1482    1479    4167       5    1485    1482    1479    4170       5
    1485    1482    1488    4182       5    1485    1482    1488    4185       5
    1485    1482    1488    4188       5    1485    1482    1491    4191       5
    1485    1482    1491    4194       5    1485    1482    1491    4197       5
    1479    1476    1473    4164       1    1479    1476    1494    4200       1
    1479    1482    1485    4173       5    1479    1482    1485    4176       5
    1479    1482    1485    4179       5    1479    1482    1488    4182       5
    1479    1482    1488    4185       5    1479    1482    1488    4188       5
    1479    1482    1491    4191       5    1479    1482    1491    4194       5
    1479    1482    1491    4197       5    1476    1473    1470    4161       1
    1476    1494    1497    4203       1    1473    1476    1479    4167       4
    1473    1476    1479    4170       4    1473    1476    1494    4200       1
    1470    1467    1125    3669       3    1470    1467   -1125    3669       4
    1470    1467    1497    4203       1    1467    1125    1122    3663       5
    1467    1125    1122    3666       5    1467    1125    1128    3672       5
    1467    1125    1128    3675       5    1467    1470    1473    4164       1
    1467    1497    1494    4200       1    1464    1434    1134    3684       3
    1464    1434   -1134    3684       4    1464    1434    1437    4116       1
    1461    1443    1440    4119       1    1461    1443    1446    4122       4
    1461    1443    1446    4125       4    1458    1449    1446    4122       5
    1458    1449    1446    4125       5    1458    1449    1452    4128       5
    1458    1449    1452    4131       5    1458    1449    1452    4134       5
    1458    1449    1455    4137       5    1458    1449    1455    4140       5
    1458    1449    1455    4143       5    1455    1449    1446    4122       5
    1455    1449    1446    4125       5    1455    1449    1452    4128       5
    1455    1449    1452    4131       5    1455    1449    1452    4134       5
    1455    1449    1458    4146       5    1455    1449    1458    4149       5
    1455    1449    1458    4152       5    1452    1449    1446    4122       5
    1452    1449    1446    4125       5    1452    1449    1455    4137       5
    1452    1449    1455    4140       5    1452    1449    1455    4143       5
    1452    1449    1458    4146       5    1452    1449    1458    4149       5
    1452    1449    1458    4152       5    1446    1443    1440    4119       1
    1446    1443    1461    4155       1    1446    1449    1452    4128       5
    1446    1449    1452    4131       5    1446    1449    1452    4134       5
    1446    1449    1455    4137       5    1446    1449    1455    4140       5
    1446    1449    1455    4143       5    1446    1449    1458    4146       5
    1446    1449    1458    4149       5    1446    1449    1458    4152       5
    1443    1440    1437    4116       1    1443    1461    1464    4158       1
    1440    1443    1446    4122       4    1440    1443    1446    4125       4
    1440    1443    1461    4155       1    1437    1434    1134    3684       3
    1437    1434   -1134    3684       4    1437    1434    1464    4158       1
    1434    1134    1131    3678       5    1434    1134    1131    3681       5
    1434    1134    1137    3687       5    1434    1134    1137    3690       5
    1434    1437    1440    4119       1    1434    1464    1461    4155       1
    1431    1401    1143    3699       3    1431    1401   -1143    3699       4
    1431    1401    1404    4071       1    1428    1410    1407    4074       1
    1428    1410    1413    4077       4    1428    1410    1413    4080       4
    1425    1416    1413    4077       5    1425    1416    1413    4080       5
    1425    1416    1419    4083       5    1425    1416    1419    4086       5
    1425    1416    1419    4089       5    1425    1416    1422    4092       5
    1425    1416    1422    4095       5    1425    1416    1422    4098       5
    1422    1416    1413    4077       5    1422    1416    1413    4080       5
    1422    1416    1419    4083       5    1422    1416    1419    4086       5
    1422    1416    1419    4089       5    1422    1416    1425    4101       5
    1422    1416    1425    4104       5    1422    1416    1425    4107       5
    1419    1416    1413    4077       5    1419    1416    1413    4080       5
    1419    1416    1422    4092       5    1419    1416    1422    4095       5
    1419    1416    1422    4098       5    1419    1416    1425    4101       5
    1419    1416    1425    4104       5    1419    1416    1425    4107       5
    1413    1410    1407    4074       1    1413    1410    1428    4110       1
    1413    1416    1419    4083       5    1413    1416    1419    4086       5
    1413    1416    1419    4089       5    1413    1416    1422    4092       5
    1413    1416    1422    4095       5    1413    1416    1422    4098       5
    1413    1416    1425    4101       5    1413    1416    1425    4104       5
    1413    1416    1425    4107       5    1410    1407    1404    4071       1
    1410    1428    1431    4113       1    1407    1410    1413    4077       4
    1407    1410    1413    4080       4    1407    1410    1428    4110       1
    1404    1401    1143    3699       3    1404    1401   -1143    3699       4
    1404    1401    1431    4113       1    1401    1143    1140    3693       5
    1401    1143    1140    3696       5    1401    1143    1146    3702       5
    1401    1143    1146    3705       5    1401    1404    1407    4074       1
    1401    1431    1428    4110       1    1398    1368    1152    3714       3
    1398    1368   -1152    3714       4    1398    1368    1371    4026       1
    1395    1377    1374    4029       1    1395    1377    1380    4032       4
    1395    1377    1380    4035       4    1392    1383    1380    4032       5
    1392    1383    1380    4035       5    1392    1383    1386    4038       5
    1392    1383    1386    4041       5    1392    1383    1386    4044       5
    1392    1383    1389    4047       5    1392    1383    1389    4050       5
    1392    1383    1389    4053       5    1389    1383    1380    4032       5
    1389    1383    1380    4035       5    1389    1383    1386    4038       5
    1389    1383    1386    4041       5    1389    1383    1386    4044       5
    1389    1383    1392    4056       5    1389    1383    1392    4059       5
    1389    1383    1392    4062       5    1386    1383    1380    4032       5
    1386    1383    1380    4035       5    1386    1383    1389    4047       5
    1386    1383    1389    4050       5    1386    1383    1389    4053       5
    1386    1383    1392    4056       5    1386    1383    1392    4059       5
    1386    1383    1392    4062       5    1380    1377    1374    4029       1
    1380    1377    1395    4065       1    1380    1383    1386    4038       5
    1380    1383    1386    4041       5    1380    1383    1386    4044       5
    1380    1383    1389    4047       5    1380    1383    1389    4050       5
    1380    1383    1389    4053       5    1380    1383    1392    4056       5
    1380    1383    1392    4059       5    1380    1383    1392    4062       5
    1377    1374    1371    4026       1    1377    1395    1398    4068       1
    1374    1377    1380    4032       4    1374    1377    1380    4035       4
    1374    1377    1395    4065       1    1371    1368    1152    3714       3
    1371    1368   -1152    3714       4    1371    1368    1398    4068       1
    1368    1152    1149    3708       5    1368    1152    1149    3711       5
    1368    1152    1155    3717       5    1368    1152    1155    3720       5
    1368    1371    1374    4029       1    1368    1398    1395    4065       1
    1365    1335    1161    3729       3    1365    1335   -1161    3729       4
    1365    1335    1338    3981       1    1362    1344    1341    3984       1
    1362    1344    1347    3987       4    1362    1344    1347    3990       4
    1359    1350    1347    3987       5    1359    1350    1347    3990       5
    1359    1350    1353    3993       5    1359    1350    1353    3996       5
    1359    1350    1353    3999       5    1359    1350    1356    4002       5
    1359    1350    1356    4005       5    1359    1350    1356    4008       5
    1356    1350    1347    3987       5    1356    1350    1347    3990       5
    1356    1350    1353    3993       5    1356    1350    1353    3996       5
    1356    1350    1353    3999       5    1356    1350    1359    4011       5
    1356    1350    1359    4014       5    1356    1350    1359    4017       5
    1353    1350    1347    3987       5    1353    1350    1347    3990       5
    1353    1350    1356    4002       5    1353    1350    1356    4005       5
    1353    1350    1356    4008       5    1353    1350    1359    4011       5
    1353    1350    1359    4014       5    1353    1350    1359    4017       5
    1347    1344    1341    3984       1    1347    1344    1362    4020       1
    1347    1350    1353    3993       5    1347    1350    1353    3996       5
    1347    1350    1353    3999       5    1347    1350    1356    4002       5
    1347    1350    1356    4005       5    1347    1350    1356    4008       5
    1347    1350    1359    4011       5    1347    1350    1359    4014       5
    1347    1350    1359    4017       5    1344    1341    1338    3981       1
    1344    1362    1365    4023       1    1341    1344    1347    3987       4
    1341    1344    1347    3990       4    1341    1344    1362    4020       1
    1338    1335    1161    3729       3    1338    1335   -1161    3729       4
    1338    1335    1365    4023       1    1335    1161    1158    3723       5
    1335    1161    1158    3726       5    1335    1161    1164    3732       5
    1335    1161    1164    3735       5    1335    1338    1341    3984       1
    1335    1365    1362    4020       1    1332    1302    1170    3744       3
    1332    1302   -1170    3744       4    1332    1302    1305    3936       1
    1329    1311    1308    3939       1    1329    1311    1314    3942       4
    1329    1311    1314    3945       4    1326    1317    1314    3942       5
    1326    1317    1314    3945       5    1326    1317    1320    3948       5
    1326    1317    1320    3951       5    1326    1317    1320    3954       5
    1326    1317    1323    3957       5    1326    1317    1323    3960       5
    1326    1317    1323    3963       5    1323    1317    1314    3942       5
    1323    1317    1314    3945       5    1323    1317    1320    3948       5
    1323    1317    1320    3951       5    1323    1317    1320    3954       5
    1323    1317    1326    3966       5    1323    1317    1326    3969       5
    1323    1317    1326    3972       5    1320    1317    1314    3942       5
    1320    1317    1314    3945       5    1320    1317    1323    3957       5
    1320    1317    1323    3960       5    1320    1317    1323    3963       5
    1320    1317    1326    3966       5    1320    1317    1326    3969       5
    1320    1317    1326    3972       5    1314    1311    1308    3939       1
    1314    1311    1329    3975       1    1314    1317    1320    3948       5
    1314    1317    1320    3951       5    1314    1317    1320    3954       5
    1314    1317    1323    3957       5    1314    1317    1323    3960       5
    1314    1317    1323    3963       5    1314    1317    1326    3966       5
    1314    1317    1326    3969       5    1314    1317    1326    3972       5
    1311    1308    1305    3936       1    1311    1329    1332    3978       1
    1308    1311    1314    3942       4    1308    1311    1314    3945       4
    1308    1311    1329    3975       1    1305    1302    1170    3744       3
    1305    1302   -1170    3744       4    1305    1302    1332    3978       1
    1302    1170    1167    3738       5    1302    1170    1167    3741       5
    1302    1170    1173    3747       5    1302    1170    1173    3750       5
    1302    1305    1308    3939       1    1302    1332    1329    3975       1
    1299    1269    1179    3759       3    1299    1269   -1179    3759       4
    1299    1269    1272    3891       1    1296    1278    1275    3894       1
    1296    1278    1281    3897       4    1296    1278    1281    3900       4
    1293    1284    1281    3897       5    1293    1284    1281    3900       5
    1293    1284    1287    3903       5    1293    1284    1287    3906       5
    1293    1284    1287    3909       5    1293    1284    1290    3912       5
    1293    1284    1290    3915       5    1293    1284    1290    3918       5
    1290    1284    1281    3897       5    1290    1284    1281    3900       5
    1290    1284    1287    3903       5    1290    1284    1287    3906       5
    1290    1284    1287    3909       5    1290    1284    1293    3921       5
    1290    1284    1293    3924       5    1290    1284    1293    3927       5
    1287    1284    1281    3897       5    1287    1284    1281    3900       5
    1287    1284    1290    3912       5    1287    1284    1290    3915       5
    1287    1284    1290    3918       5    1287    1284    1293    3921       5
    1287    1284    1293    3924       5    1287    1284    1293    3927       5
    1281    1278    1275    3894       1    1281    1278    1296    3930       1
    1281    1284    1287    3903       5    1281    1284    1287    3906       5
    1281    1284    1287    3909       5    1281    1284    1290    3912       5
    1281    1284    1290    3915       5    1281    1284    1290    3918       5
    1281    1284    1293    3921       5    1281    1284    1293    3924       5
    1281    1284    1293    3927       5    1278    1275    1272    3891       1
    1278    1296    1299    3933       1    1275    1278    1281    3897       4
    1275    1278    1281    3900       4    1275    1278    1296    3930       1
    1272    1269    1179    3759       3    1272    1269   -1179    3759       4
    1272    1269    1299    3933       1    1269    1179    1176    3753       5
    1269    1179    1176    3756       5    1269    1179    1182    3762       5
    1269    1179    1182    3765       5    1269    1272    1275    3894       1
    1269    1299    1296    3930       1    1266    1236    1188    3774       3
    1266    1236   -1188    3774       4    1266    1236    1239    3846       1
    1263    1245    1242    3849       1    1263    1245    1248    3852       4
    1263    1245    1248    3855       4    1260    1251    1248    3852       5
    1260    1251    1248    3855       5    1260    1251    1254    3858       5
    1260    1251    1254    3861       5    1260    1251    1254    3864       5
    1260    1251    1257    3867       5    1260    1251    1257    3870       5
    1260    1251    1257    3873       5    1257    1251    1248    3852       5
    1257    1251    1248    3855       5    1257    1251    1254    3858       5
    1257    1251    1254    3861       5    1257    1251    1254    3864       5
    1257    1251    1260    3876       5    1257    1251    1260    3879       5
    1257    1251    1260    3882       5    1254    1251    1248    3852       5
    1254    1251    1248    3855       5    1254    1251    1257    3867       5
    1254    1251    1257    3870       5    1254    1251    1257    3873       5
    1254    1251    1260    3876       5    1254    1251    1260    3879       5
    1254    1251    1260    3882       5    1248    1245    1242    3849       1
    1248    1245    1263    3885       1    1248    1251    1254    3858       5
    1248    1251    1254    3861       5    1248    1251    1254    3864       5
    1248    1251    1257    3867       5    1248    1251    1257    3870       5
    1248    1251    1257    3873       5    1248    1251    1260    3876       5
    1248    1251    1260    3879       5    1248    1251    1260    3882       5
    1245    1242    1239    3846       1    1245    1263    1266    3888       1
    1242    1245    1248    3852       4    1242    1245    1248    3855       4
    1242    1245    1263    3885       1    1239    1236    1188    3774       3
    1239    1236   -1188    3774       4    1239    1236    1266    3888       1
    1236    1188    1185    3768       5    1236    1188    1185    3771       5
    1236    1188    1191    3777       5    1236    1188    1191    3780       5
    1236    1239    1242    3849       1    1236    1266    1263    3885       1
    1233    1203    1197    3789       3    1233    1203   -1197    3789       4
    1233    1203    1206    3801       1    1230    1212    1209    3804       1
    1230    1212    1215    3807       4    1230    1212    1215    3810       4
    1227    1218    1215    3807       5    1227    1218    1215    3810       5
    1227    1218    1221    3813       5    1227    1218    1221    3816       5
    1227    1218    1221    3819       5    1227    1218    1224    3822       5
    1227    1218    1224    3825       5    1227    1218    1224    3828       5
    1224    1218    1215    3807       5    1224    1218    1215    3810       5
    1224    1218    1221    3813       5    1224    1218    1221    3816       5
    1224    1218    1221    3819       5    1224    1218    1227    3831       5
    1224    1218    1227    3834       5    1224    1218    1227    3837       5
    1221    1218    1215    3807       5    1221    1218    1215    3810       5
    1221    1218    1224    3822       5    1221    1218    1224    3825       5
    1221    1218    1224    3828       5    1221    1218    1227    3831       5
    1221    1218    1227    3834       5    1221    1218    1227    3837       5
    1215    1212    1209    3804       1    1215    1212    1230    3840       1
    1215    1218    1221    3813       5    1215    1218    1221    3816       5
    1215    1218    1221    3819       5    1215    1218    1224    3822       5
    1215    1218    1224    3825       5    1215    1218    1224    3828       5
    1215    1218    1227    3831       5    1215    1218    1227    3834       5
    1215    1218    1227    3837       5    1212    1209    1206    3801       1
    1212    1230    1233    3843       1    1209    1212    1215    3807       4
    1209    1212    1215    3810       4    1209    1212    1230    3840       1
    1206    1203    1197    3789       3    1206    1203   -1197    3789       4
    1206    1203    1233    3843       1    1203    1197    1194    3783       5
    1203    1197    1194    3786       5    1203    1197    1200    3792       5
    1203    1197    1200    3795       5    1203    1197    1200    3798       5
    1203    1206    1209    3804       1    1203    1233    1230    3840       1
    1200    1197    1194    3783       9    1200    1197    1194    3786       9
    1197    1194    1191    3777       9    1197    1194    1191    3780       9
    1197    1203    1206    3801       1    1197    1203    1233    3843       1
    1194    1191    1188    3774       9    1194    1197    1200    3792       9
    1194    1197    1200    3795       9    1194    1197    1200    3798       9
    1191    1188    1185    3768       9    1191    1188    1185    3771       9
    1191    1194    1197    3789       9    1188    1185    1182    3762       9
    1188    1185    1182    3765       9    1188    1191    1194    3783       9
    1188    1191    1194    3786       9    1188    1236    1239    3846       1
    1188    1236    1266    3888       1    1185    1182    1179    3759       9
    1185    1188    1191    3777       9    1185    1188    1191    3780       9
    1182    1179    1176    3753       9    1182    1179    1176    3756       9
    1182    1185    1188    3774       9    1179    1176    1173    3747       9
    1179    1176    1173    3750       9    1179    1182    1185    3768       9
    1179    1182    1185    3771       9    1179    1269    1272    3891       1
    1179    1269    1299    3933       1    1176    1173    1170    3744       9
    1176    1179    1182    3762       9    1176    1179    1182    3765       9
    1173    1170    1167    3738       9    1173    1170    1167    3741       9
    1173    1176    1179    3759       9    1170    1167    1164    3732       9
    1170    1167    1164    3735       9    1170    1173    1176    3753       9
    1170    1173    1176    3756       9    1170    1302    1305    3936       1
    1170    1302    1332    3978       1    1167    1164    1161    3729       9
    1167    1170    1173    3747       9    1167    1170    1173    3750       9
    1164    1161    1158    3723       9    1164    1161    1158    3726       9
    1164    1167    1170    3744       9    1161    1158    1155    3717       9
    1161    1158    1155    3720       9    1161    1164    1167    3738       9
    1161    1164    1167    3741       9    1161    1335    1338    3981       1
    1161    1335    1365    4023       1    1158    1155    1152    3714       9
    1158    1161    1164    3732       9    1158    1161    1164    3735       9
    1155    1152    1149    3708       9    1155    1152    1149    3711       9
    1155    1158    1161    3729       9    1152    1149    1146    3702       9
    1152    1149    1146    3705       9    1152    1155    1158    3723       9
    1152    1155    1158    3726       9    1152    1368    1371    4026       1
    1152    1368    1398    4068       1    1149    1146    1143    3699       9
    1149    1152    1155    3717       9    1149    1152    1155    3720       9
    1146    1143    1140    3693       9    1146    1143    1140    3696       9
    1146    1149    1152    3714       9    1143    1140    1137    3687       9
    1143    1140    1137    3690       9    1143    1146    1149    3708       9
    1143    1146    1149    3711       9    1143    1401    1404    4071       1
    1143    1401    1431    4113       1    1140    1137    1134    3684       9
    1140    1143    1146    3702       9    1140    1143    1146    3705       9
    1137    1134    1131    3678       9    1137    1134    1131    3681       9
    1137    1140    1143    3699       9    1134    1131    1128    3672       9
    1134    1131    1128    3675       9    1134    1137    1140    3693       9
    1134    1137    1140    3696       9    1134    1434    1437    4116       1
    1134    1434    1464    4158       1    1131    1128    1125    3669       9
    1131    1134    1137    3687       9    1131    1134    1137    3690       9
    1128    1125    1122    3663       9    1128    1125    1122    3666       9
    1128    1131    1134    3684       9    1125    1122    1119    3657       9
    1125    1122    1119    3660       9    1125    1128    1131    3678       9
    1125    1128    1131    3681       9    1125    1467    1470    4161       1
    1125    1467    1497    4203       1    1122    1119    1116    3654       9
    1122    1125    1128    3672       9    1122    1125    1128    3675       9
    1119    1116    1113    3648       9    1119    1116    1113    3651       9
    1119    1122    1125    3669       9    1116    1113    1110    3642       9
    1116    1113    1110    3645       9    1116    1119    1122    3663       9
    1116    1119    1122    3666       9    1116    1500    1503    4206       1
    1116    1500    1530    4248       1    1113    1110    1107    3639       9
    1113    1116    1119    3657       9    1113    1116    1119    3660       9
    1110    1107    1104    3633       9    1110    1107    1104    3636       9
    1110    1113    1116    3654       9    1107    1104    1101    3627       9
    1107    1104    1101    3630       9    1107    1110    1113    3648       9
    1107    1110    1113    3651       9    1107    1533    1536    4251       1
    1107    1533    1563    4293       1    1104    1101    1098    3624       9
    1104    1107    1110    3642       9    1104    1107    1110    3645       9
    1101    1098    1095    3618       9    1101    1098    1095    3621       9
    1101    1104    1107    3639       9    1098    1095    1092    3612       9
    1098    1095    1092    3615       9    1098    1101    1104    3633       9
    1098    1101    1104    3636       9    1098    1566    1569    4296       1
    1098    1566    1596    4338       1    1095    1098    1101    3627       9
    1095    1098    1101    3630       9    1092     624     627    2943       9
    1092     624     627    2946       9    1092    1095    1098    3624       9
    1089    1059     633    2955       3    1089    1059    -633    2955       4
    1089    1059    1062    3567       1    1086    1068    1065    3570       1
    1086    1068    1071    3573       4    1086    1068    1071    3576       4
    1083    1074    1071    3573       5    1083    1074    1071    3576       5
    1083    1074    1077    3579       5    1083    1074    1077    3582       5
    1083    1074    1077    3585       5    1083    1074    1080    3588       5
    1083    1074    1080    3591       5    1083    1074    1080    3594       5
    1080    1074    1071    3573       5    1080    1074    1071    3576       5
    1080    1074    1077    3579       5    1080    1074    1077    3582       5
    1080    1074    1077    3585       5    1080    1074    1083    3597       5
    1080    1074    1083    3600       5    1080    1074    1083    3603       5
    1077    1074    1071    3573       5    1077    1074    1071    3576       5
    1077    1074    1080    3588       5    1077    1074    1080    3591       5
    1077    1074    1080    3594       5    1077    1074    1083    3597       5
    1077    1074    1083    3600       5    1077    1074    1083    3603       5
    1071    1068    1065    3570       1    1071    1068    1086    3606       1
    1071    1074    1077    3579       5    1071    1074    1077    3582       5
    1071    1074    1077    3585       5    1071    1074    1080    3588       5
    1071    1074    1080    3591       5    1071    1074    1080    3594       5
    1071    1074    1083    3597       5    1071    1074    1083    3600       5
    1071    1074    1083    3603       5    1068    1065    1062    3567       1
    1068    1086    1089    3609       1    1065    1068    1071    3573       4
    1065    1068    1071    3576       4    1065    1068    1086    3606       1
    1062    1059     633    2955       3    1062    1059    -633    2955       4
    1062    1059    1089    3609       1    1059     633     630    2949       5
    1059     633     630    2952       5    1059     633     636    2958       5
    1059     633     636    2961       5    1059    1062    1065    3570       1
    1059    1089    1086    3606       1    1056    1026     642    2970       3
    1056    1026    -642    2970       4    1056    1026    1029    3522       1
    1053    1035    1032    3525       1    1053    1035    1038    3528       4
    1053    1035    1038    3531       4    1050    1041    1038    3528       5
    1050    1041    1038    3531       5    1050    1041    1044    3534       5
    1050    1041    1044    3537       5    1050    1041    1044    3540       5
    1050    1041    1047    3543       5    1050    1041    1047    3546       5
    1050    1041    1047    3549       5    1047    1041    1038    3528       5
    1047    1041    1038    3531       5    1047    1041    1044    3534       5
    1047    1041    1044    3537       5    1047    1041    1044    3540       5
    1047    1041    1050    3552       5    1047    1041    1050    3555       5
    1047    1041    1050    3558       5    1044    1041    1038    3528       5
    1044    1041    1038    3531       5    1044    1041    1047    3543       5
    1044    1041    1047    3546       5    1044    1041    1047    3549       5
    1044    1041    1050    3552       5    1044    1041    1050    3555       5
    1044    1041    1050    3558       5    1038    1035    1032    3525       1
    1038    1035    1053    3561       1    1038    1041    1044    3534       5
    1038    1041    1044    3537       5    1038    1041    1044    3540       5
    1038    1041    1047    3543       5    1038    1041    1047    3546       5
    1038    1041    1047    3549       5    1038    1041    1050    3552       5
    1038    1041    1050    3555       5    1038    1041    1050    3558       5
    1035    1032    1029    3522       1    1035    1053    1056    3564       1
    1032    1035    1038    3528       4    1032    1035    1038    3531       4
    1032    1035    1053    3561       1    1029    1026     642    2970       3
    1029    1026    -642    2970       4    1029    1026    1056    3564       1
    1026     642     639    2964       5    1026     642     639    2967       5
    1026     642     645    2973       5    1026     642     645    2976       5
    1026    1029    1032    3525       1    1026    1056    1053    3561       1
    1023     993     651    2985       3    1023     993    -651    2985       4
    1023     993     996    3477       1    1020    1002     999    3480       1
    1020    1002    1005    3483       4    1020    1002    1005    3486       4
    1017    1008    1005    3483       5    1017    1008    1005    3486       5
    1017    1008    1011    3489       5    1017    1008    1011    3492       5
    1017    1008    1011    3495       5    1017    1008    1014    3498       5
    1017    1008    1014    3501       5    1017    1008    1014    3504       5
    1014    1008    1005    3483       5    1014    1008    1005    3486       5
    1014    1008    1011    3489       5    1014    1008    1011    3492       5
    1014    1008    1011    3495       5    1014    1008    1017    3507       5
    1014    1008    1017    3510       5    1014    1008    1017    3513       5
    1011    1008    1005    3483       5    1011    1008    1005    3486       5
    1011    1008    1014    3498       5    1011    1008    1014    3501       5
    1011    1008    1014    3504       5    1011    1008    1017    3507       5
    1011    1008    1017    3510       5    1011    1008    1017    3513       5
    1005    1002     999    3480       1    1005    1002    1020    3516       1
    1005    1008    1011    3489       5    1005    1008    1011    3492       5
    1005    1008    1011    3495       5    1005    1008    1014    3498       5
    1005    1008    1014    3501       5    1005    1008    1014    3504       5
    1005    1008    1017    3507       5    1005    1008    1017    3510       5
    1005    1008    1017    3513       5    1002     999     996    3477       1
    1002    1020    1023    3519       1     999    1002    1005    3483       4
     999    1002    1005    3486       4     999    1002    1020    3516       1
     996     993     651    2985       3     996     993    -651    2985       4
     996     993    1023    3519       1     993     651     648    2979       5
     993     651     648    2982       5     993     651     654    2988       5
     993     651     654    2991       5     993     996     999    3480       1
     993    1023    1020    3516       1     990     960     660    3000       3
     990     960    -660    3000       4     990     960     963    3432       1
     987     969     966    3435       1     987     969     972    3438       4
     987     969     972    3441       4     984     975     972    3438       5
     984     975     972    3441       5     984     975     978    3444       5
     984     975     978    3447       5     984     975     978    3450       5
     984     975     981    3453       5     984     975     981    3456       5
     984     975     981    3459       5     981     975     972    3438       5
     981     975     972    3441       5     981     975     978    3444       5
     981     975     978    3447       5     981     975     978    3450       5
     981     975     984    3462       5     981     975     984    3465       5
     981     975     984    3468       5     978     975     972    3438       5
     978     975     972    3441       5     978     975     981    3453       5
     978     975     981    3456       5     978     975     981    3459       5
     978     975     984    3462       5     978     975     984    3465       5
     978     975     984    3468       5     972     969     966    3435       1
     972     969     987    3471       1     972     975     978    3444       5
     972     975     978    3447       5     972     975     978    3450       5
     972     975     981    3453       5     972     975     981    3456       5
     972     975     981    3459       5     972     975     984    3462       5
     972     975     984    3465       5     972     975     984    3468       5
     969     966     963    3432       1     969     987     990    3474       1
     966     969     972    3438       4     966     969     972    3441       4
     966     969     987    3471       1     963     960     660    3000       3
     963     960    -660    3000       4     963     960     990    3474       1
     960     660     657    2994       5     960     660     657    2997       5
     960     660     663    3003       5     960     660     663    3006       5
     960     963     966    3435       1     960     990     987    3471       1
     957     927     669    3015       3     957     927    -669    3015       4
     957     927     930    3387       1     954     936     933    3390       1
     954     936     939    3393       4     954     936     939    3396       4
     951     942     939    3393       5     951     942     939    3396       5
     951     942     945    3399       5     951     942     945    3402       5
     951     942     945    3405       5     951     942     948    3408       5
     951     942     948    3411       5     951     942     948    3414       5
     948     942     939    3393       5     948     942     939    3396       5
     948     942     945    3399       5     948     942     945    3402       5
     948     942     945    3405       5     948     942     951    3417       5
     948     942     951    3420       5     948     942     951    3423       5
     945     942     939    3393       5     945     942     939    3396       5
     945     942     948    3408       5     945     942     948    3411       5
     945     942     948    3414       5     945     942     951    3417       5
     945     942     951    3420       5     945     942     951    3423       5
     939     936     933    3390       1     939     936     954    3426       1
     939     942     945    3399       5     939     942     945    3402       5
     939     942     945    3405       5     939     942     948    3408       5
     939     942     948    3411       5     939     942     948    3414       5
     939     942     951    3417       5     939     942     951    3420       5
     939     942     951    3423       5     936     933     930    3387       1
     936     954     957    3429       1     933     936     939    3393       4
     933     936     939    3396       4     933     936     954    3426       1
     930     927     669    3015       3     930     927    -669    3015       4
     930     927     957    3429       1     927     669     666    3009       5
     927     669     666    3012       5     927     669     672    3018       5
     927     669     672    3021       5     927     930     933    3390       1
     927     957     954    3426       1     924     894     678    3030       3
     924     894    -678    3030       4     924     894     897    3342       1
     921     903     900    3345       1     921     903     906    3348       4
     921     903     906    3351       4     918     909     906    3348       5
     918     909     906    3351       5     918     909     912    3354       5
     918     909     912    3357       5     918     909     912    3360       5
     918     909     915    3363       5     918     909     915    3366       5
     918     909     915    3369       5     915     909     906    3348       5
     915     909     906    3351       5     915     909     912    3354       5
     915     909     912    3357       5     915     909     912    3360       5
     915     909     918    3372       5     915     909     918    3375       5
     915     909     918    3378       5     912     909     906    3348       5
     912     909     906    3351       5     912     909     915    3363       5
     912     909     915    3366       5     912     909     915    3369       5
     912     909     918    3372       5     912     909     918    3375       5
     912     909     918    3378       5     906     903     900    3345       1
     906     903     921    3381       1     906     909     912    3354       5
     906     909     912    3357       5     906     909     912    3360       5
     906     909     915    3363       5     906     909     915    3366       5
     906     909     915    3369       5     906     909     918    3372       5
     906     909     918    3375       5     906     909     918    3378       5
     903     900     897    3342       1     903     921     924    3384       1
     900     903     906    3348       4     900     903     906    3351       4
     900     903     921    3381       1     897     894     678    3030       3
     897     894    -678    3030       4     897     894     924    3384       1
     894     678     675    3024       5     894     678     675    3027       5
     894     678     681    3033       5     894     678     681    3036       5
     894     897     900    3345       1     894     924     921    3381       1
     891     861     687    3045       3     891     861    -687    3045       4
     891     861     864    3297       1     888     870     867    3300       1
     888     870     873    3303       4     888     870     873    3306       4
     885     876     873    3303       5     885     876     873    3306       5
     885     876     879    3309       5     885     876     879    3312       5
     885     876     879    3315       5     885     876     882    3318       5
     885     876     882    3321       5     885     876     882    3324       5
     882     876     873    3303       5     882     876     873    3306       5
     882     876     879    3309       5     882     876     879    3312       5
     882     876     879    3315       5     882     876     885    3327       5
     882     876     885    3330       5     882     876     885    3333       5
     879     876     873    3303       5     879     876     873    3306       5
     879     876     882    3318       5     879     876     882    3321       5
     879     876     882    3324       5     879     876     885    3327       5
     879     876     885    3330       5     879     876     885    3333       5
     873     870     867    3300       1     873     870     888    3336       1
     873     876     879    3309       5     873     876     879    3312       5
     873     876     879    3315       5     873     876     882    3318       5
     873     876     882    3321       5     873     876     882    3324       5
     873     876     885    3327       5     873     876     885    3330       5
     873     876     885    3333       5     870     867     864    3297       1
     870     888     891    3339       1     867     870     873    3303       4
     867     870     873    3306       4     867     870     888    3336       1
     864     861     687    3045       3     864     861    -687    3045       4
     864     861     891    3339       1     861     687     684    3039       5
     861     687     684    3042       5     861     687     690    3048       5
     861     687     690    3051       5     861     864     867    3300       1
     861     891     888    3336       1     858     828     696    3060       3
     858     828    -696    3060       4     858     828     831    3252       1
     855     837     834    3255       1     855     837     840    3258       4
     855     837     840    3261       4     852     843     840    3258       5
     852     843     840    3261       5     852     843     846    3264       5
     852     843     846    3267       5     852     843     846    3270       5
     852     843     849    3273       5     852     843     849    3276       5
     852     843     849    3279       5     849     843     840    3258       5
     849     843     840    3261       5     849     843     846    3264       5
     849     843     846    3267       5     849     843     846    3270       5
     849     843     852    3282       5     849     843     852    3285       5
     849     843     852    3288       5     846     843     840    3258       5
     846     843     840    3261       5     846     843     849    3273       5
     846     843     849    3276       5     846     843     849    3279       5
     846     843     852    3282       5     846     843     852    3285       5
     846     843     852    3288       5     840     837     834    3255       1
     840     837     855    3291       1     840     843     846    3264       5
     840     843     846    3267       5     840     843     846    3270       5
     840     843     849    3273       5     840     843     849    3276       5
     840     843     849    3279       5     840     843     852    3282       5
     840     843     852    3285       5     840     843     852    3288       5
     837     834     831    3252       1     837     855     858    3294       1
     834     837     840    3258       4     834     837     840    3261       4
     834     837     855    3291       1     831     828     696    3060       3
     831     828    -696    3060       4     831     828     858    3294       1
     828     696     693    3054       5     828     696     693    3057       5
     828     696     699    3063       5     828     696     699    3066       5
     828     831     834    3255       1     828     858     855    3291       1
     825     795     705    3075       3     825     795    -705    3075       4
     825     795     798    3207       1     822     804     801    3210       1
     822     804     807    3213       4     822     804     807    3216       4
     819     810     807    3213       5     819     810     807    3216       5
     819     810     813    3219       5     819     810     813    3222       5
     819     810     813    3225       5     819     810     816    3228       5
     819     810     816    3231       5     819     810     816    3234       5
     816     810     807    3213       5     816     810     807    3216       5
     816     810     813    3219       5     816     810     813    3222       5
     816     810     813    3225       5     816     810     819    3237       5
     816     810     819    3240       5     816     810     819    3243       5
     813     810     807    3213       5     813     810     807    3216       5
     813     810     816    3228       5     813     810     816    3231       5
     813     810     816    3234       5     813     810     819    3237       5
     813     810     819    3240       5     813     810     819    3243       5
     807     804     801    3210       1     807     804     822    3246       1
     807     810     813    3219       5     807     810     813    3222       5
     807     810     813    3225       5     807     810     816    3228       5
     807     810     816    3231       5     807     810     816    3234       5
     807     810     819    3237       5     807     810     819    3240       5
     807     810     819    3243       5     804     801     798    3207       1
     804     822     825    3249       1     801     804     807    3213       4
     801     804     807    3216       4     801     804     822    3246       1
     798     795     705    3075       3     798     795    -705    3075       4
     798     795     825    3249       1     795     705     702    3069       5
     795     705     702    3072       5     795     705     708    3078       5
     795     705     708    3081       5     795     798     801    3210       1
     795     825     822    3246       1     792     762     714    3090       3
     792     762    -714    3090       4     792     762     765    3162       1
     789     771     768    3165       1     789     771     774    3168       4
     789     771     774    3171       4     786     777     774    3168       5
     786     777     774    3171       5     786     777     780    3174       5
     786     777     780    3177       5     786     777     780    3180       5
     786     777     783    3183       5     786     777     783    3186       5
     786     777     783    3189       5     783     777     774    3168       5
     783     777     774    3171       5     783     777     780    3174       5
     783     777     780    3177       5     783     777     780    3180       5
     783     777     786    3192       5     783     777     786    3195       5
     783     777     786    3198       5     780     777     774    3168       5
     780     777     774    3171       5     780     777     783    3183       5
     780     777     783    3186       5     780     777     783    3189       5
     780     777     786    3192       5     780     777     786    3195       5
     780     777     786    3198       5     774     771     768    3165       1
     774     771     789    3201       1     774     777     780    3174       5
     774     777     780    3177       5     774     777     780    3180       5
     774     777     783    3183       5     774     777     783    3186       5
     774     777     783    3189       5     774     777     786    3192       5
     774     777     786    3195       5     774     777     786    3198       5
     771     768     765    3162       1     771     789     792    3204       1
     768     771     774    3168       4     768     771     774    3171       4
     768     771     789    3201       1     765     762     714    3090       3
     765     762    -714    3090       4     765     762     792    3204       1
     762     714     711    3084       5     762     714     711    3087       5
     762     714     717    3093       5     762     714     717    3096       5
     762     765     768    3165       1     762     792     789    3201       1
     759     729     723    3105       3     759     729    -723    3105       4
     759     729     732    3117       1     756     738     735    3120       1
     756     738     741    3123       4     756     738     741    3126       4
     753     744     741    3123       5     753     744     741    3126       5
     753     744     747    3129       5     753     744     747    3132       5
     753     744     747    3135       5     753     744     750    3138       5
     753     744     750    3141       5     753     744     750    3144       5
     750     744     741    3123       5     750     744     741    3126       5
     750     744     747    3129       5     750     744     747    3132       5
     750     744     747    3135       5     750     744     753    3147       5
     750     744     753    3150       5     750     744     753    3153       5
     747     744     741    3123       5     747     744     741    3126       5
     747     744     750    3138       5     747     744     750    3141       5
     747     744     750    3144       5     747     744     753    3147       5
     747     744     753    3150       5     747     744     753    3153       5
     741     738     735    3120       1     741     738     756    3156       1
     741     744     747    3129       5     741     744     747    3132       5
     741     744     747    3135       5     741     744     750    3138       5
     741     744     750    3141       5     741     744     750    3144       5
     741     744     753    3147       5     741     744     753    3150       5
     741     744     753    3153       5     738     735     732    3117       1
     738     756     759    3159       1     735     738     741    3123       4
     735     738     741    3126       4     735     738     756    3156       1
     732     729     723    3105       3     732     729    -723    3105       4
     732     729     759    3159       1     729     723     720    3099       5
     729     723     720    3102       5     729     723     726    3108       5
     729     723     726    3111       5     729     723     726    3114       5
     729     732     735    3120       1     729     759     756    3156       1
     726     723     720    3099       9     726     723     720    3102       9
     723     720     717    3093       9     723     720     717    3096       9
     723     729     732    3117       1     723     729     759    3159       1
     720     717     714    3090       9     720     723     726    3108       9
     720     723     726    3111       9     720     723     726    3114       9
     717     714     711    3084       9     717     714     711    3087       9
     717     720     723    3105       9     714     711     708    3078       9
     714     711     708    3081       9     714     717     720    3099       9
     714     717     720    3102       9     714     762     765    3162       1
     714     762     792    3204       1     711     708     705    3075       9
     711     714     717    3093       9     711     714     717    3096       9
     708     705     702    3069       9     708     705     702    3072       9
     708     711     714    3090       9     705     702     699    3063       9
     705     702     699    3066       9     705     708     711    3084       9
     705     708     711    3087       9     705     795     798    3207       1
     705     795     825    3249       1     702     699     696    3060       9
     702     705     708    3078       9     702     705     708    3081       9
     699     696     693    3054       9     699     696     693    3057       9
     699     702     705    3075       9     696     693     690    3048       9
     696     693     690    3051       9     696     699     702    3069       9
     696     699     702    3072       9     696     828     831    3252       1
     696     828     858    3294       1     693     690     687    3045       9
     693     696     699    3063       9     693     696     699    3066       9
     690     687     684    3039       9     690     687     684    3042       9
     690     693     696    3060       9     687     684     681    3033       9
     687     684     681    3036       9     687     690     693    3054       9
     687     690     693    3057       9     687     861     864    3297       1
     687     861     891    3339       1     684     681     678    3030       9
     684     687     690    3048       9     684     687     690    3051       9
     681     678     675    3024       9     681     678     675    3027       9
     681     684     687    3045       9     678     675     672    3018       9
     678     675     672    3021       9     678     681     684    3039       9
     678     681     684    3042       9     678     894     897    3342       1
     678     894     924    3384       1     675     672     669    3015       9
     675     678     681    3033       9     675     678     681    3036       9
     672     669     666    3009       9     672     669     666    3012       9
     672     675     678    3030       9     669     666     663    3003       9
     669     666     663    3006       9     669     672     675    3024       9
     669     672     675    3027       9     669     927     930    3387       1
     669     927     957    3429       1     666     663     660    3000       9
     666     669     672    3018       9     666     669     672    3021       9
     663     660     657    2994       9     663     660     657    2997       9
     663     666     669    3015       9     660     657     654    2988       9
     660     657     654    2991       9     660     663     666    3009       9
     660     663     666    3012       9     660     960     963    3432       1
     660     960     990    3474       1     657     654     651    2985       9
     657     660     663    3003       9     657     660     663    3006       9
     654     651     648    2979       9     654     651     648    2982       9
     654     657     660    3000       9     651     648     645    2973       9
     651     648     645    2976       9     651     654     657    2994       9
     651     654     657    2997       9     651     993     996    3477       1
     651     993    1023    3519       1     648     645     642    2970       9
     648     651     654    2988       9     648     651     654    2991       9
     645     642     639    2964       9     645     642     639    2967       9
     645     648     651    2985       9     642     639     636    2958       9
     642     639     636    2961       9     642     645     648    2979       9
     642     645     648    2982       9     642    1026    1029    3522       1
     642    1026    1056    3564       1     639     636     633    2955       9
     639     642     645    2973       9     639     642     645    2976       9
     636     633     630    2949       9     636     633     630    2952       9
     636     639     642    2970       9     633     630     627    2943       9
     633     630     627    2946       9     633     636     639    2964       9
     633     636     639    2967       9     633    1059    1062    3567       1
     633    1059    1089    3609       1     630     633     636    2958       9
     630     633     636    2961       9     627     624    1092    3612       9
     627     624    1092    3615       9     627     630     633    2955       9
     624     621     618    2940       1     624     621    1632    4386       1
     624     627     630    2949       9     624     627     630    2952       9
     624    1092    1095    3618       9     624    1092    1095    3621       9
     624    1599    1602    4341       1     624    1599    1629    4383       1
     621     618     615    2937       1     621     624     627    2943       5
     621     624     627    2946       5     621     624    1092    3612       5
     621     624    1092    3615       5     621    1632    1635    4389       1
     618     621    1632    4386       1     615     612    1635    4389       1
     612     111     108    2217       5     612     111     108    2220       5
     612     111     114    2223       5     612     111     114    2226       5
     612     615     618    2940       1     612    1635    1632    4386       1
     609     579     582    2892       1     606     588     585    2895       1
     606     588     591    2898       4     606     588     591    2901       4
     603     594     591    2898       5     603     594     591    2901       5
     603     594     597    2904       5     603     594     597    2907       5
     603     594     597    2910       5     603     594     600    2913       5
     603     594     600    2916       5     603     594     600    2919       5
     600     594     591    2898       5     600     594     591    2901       5
     600     594     597    2904       5     600     594     597    2907       5
     600     594     597    2910       5     600     594     603    2922       5
     600     594     603    2925       5     600     594     603    2928       5
     597     594     591    2898       5     597     594     591    2901       5
     597     594     600    2913       5     597     594     600    2916       5
     597     594     600    2919       5     597     594     603    2922       5
     597     594     603    2925       5     597     594     603    2928       5
     591     588     585    2895       1     591     588     606    2931       1
     591     594     597    2904       5     591     594     597    2907       5
     591     594     597    2910       5     591     594     600    2913       5
     591     594     600    2916       5     591     594     600    2919       5
     591     594     603    2922       5     591     594     603    2925       5
     591     594     603    2928       5     588     585     582    2892       1
     588     606     609    2934       1     585     588     591    2898       4
     585     588     591    2901       4     585     588     606    2931       1
     582     579     609    2934       1     579     111     108    2217       5
     579     111     108    2220       5     579     111     114    2223       5
     579     111     114    2226       5     579     582     585    2895       1
     579     609     606    2931       1     576     546     120    2235       3
     576     546    -120    2235       4     576     546     549    2847       1
     573     555     552    2850       1     573     555     558    2853       4
     573     555     558    2856       4     570     561     558    2853       5
     570     561     558    2856       5     570     561     564    2859       5
     570     561     564    2862       5     570     561     564    2865       5
     570     561     567    2868       5     570     561     567    2871       5
     570     561     567    2874       5     567     561     558    2853       5
     567     561     558    2856       5     567     561     564    2859       5
     567     561     564    2862       5     567     561     564    2865       5
     567     561     570    2877       5     567     561     570    2880       5
     567     561     570    2883       5     564     561     558    2853       5
     564     561     558    2856       5     564     561     567    2868       5
     564     561     567    2871       5     564     561     567    2874       5
     564     561     570    2877       5     564     561     570    2880       5
     564     561     570    2883       5     558     555     552    2850       1
     558     555     573    2886       1     558     561     564    2859       5
     558     561     564    2862       5     558     561     564    2865       5
     558     561     567    2868       5     558     561     567    2871       5
     558     561     567    2874       5     558     561     570    2877       5
     558     561     570    2880       5     558     561     570    2883       5
     555     552     549    2847       1     555     573     576    2889       1
     552     555     558    2853       4     552     555     558    2856       4
     552     555     573    2886       1     549     546     120    2235       3
     549     546    -120    2235       4     549     546     576    2889       1
     546     120     117    2229       5     546     120     117    2232       5
     546     120     123    2238       5     546     120     123    2241       5
     546     549     552    2850       1     546     576     573    2886       1
     543     513     129    2250       3     543     513    -129    2250       4
     543     513     516    2802       1     540     522     519    2805       1
     540     522     525    2808       4     540     522     525    2811       4
     537     528     525    2808       5     537     528     525    2811       5
     537     528     531    2814       5     537     528     531    2817       5
     537     528     531    2820       5     537     528     534    2823       5
     537     528     534    2826       5     537     528     534    2829       5
     534     528     525    2808       5     534     528     525    2811       5
     534     528     531    2814       5     534     528     531    2817       5
     534     528     531    2820       5     534     528     537    2832       5
     534     528     537    2835       5     534     528     537    2838       5
     531     528     525    2808       5     531     528     525    2811       5
     531     528     534    2823       5     531     528     534    2826       5
     531     528     534    2829       5     531     528     537    2832       5
     531     528     537    2835       5     531     528     537    2838       5
     525     522     519    2805       1     525     522     540    2841       1
     525     528     531    2814       5     525     528     531    2817       5
     525     528     531    2820       5     525     528     534    2823       5
     525     528     534    2826       5     525     528     534    2829       5
     525     528     537    2832       5     525     528     537    2835       5
     525     528     537    2838       5     522     519     516    2802       1
     522     540     543    2844       1     519     522     525    2808       4
     519     522     525    2811       4     519     522     540    2841       1
     516     513     129    2250       3     516     513    -129    2250       4
     516     513     543    2844       1     513     129     126    2244       5
     513     129     126    2247       5     513     129     132    2253       5
     513     129     132    2256       5     513     516     519    2805       1
     513     543     540    2841       1     510     480     138    2265       3
     510     480    -138    2265       4     510     480     483    2757       1
     507     489     486    2760       1     507     489     492    2763       4
     507     489     492    2766       4     504     495     492    2763       5
     504     495     492    2766       5     504     495     498    2769       5
     504     495     498    2772       5     504     495     498    2775       5
     504     495     501    2778       5     504     495     501    2781       5
     504     495     501    2784       5     501     495     492    2763       5
     501     495     492    2766       5     501     495     498    2769       5
     501     495     498    2772       5     501     495     498    2775       5
     501     495     504    2787       5     501     495     504    2790       5
     501     495     504    2793       5     498     495     492    2763       5
     498     495     492    2766       5     498     495     501    2778       5
     498     495     501    2781       5     498     495     501    2784       5
     498     495     504    2787       5     498     495     504    2790       5
     498     495     504    2793       5     492     489     486    2760       1
     492     489     507    2796       1     492     495     498    2769       5
     492     495     498    2772       5     492     495     498    2775       5
     492     495     501    2778       5     492     495     501    2781       5
     492     495     501    2784       5     492     495     504    2787       5
     492     495     504    2790       5     492     495     504    2793       5
     489     486     483    2757       1     489     507     510    2799       1
     486     489     492    2763       4     486     489     492    2766       4
     486     489     507    2796       1     483     480     138    2265       3
     483     480    -138    2265       4     483     480     510    2799       1
     480     138     135    2259       5     480     138     135    2262       5
     480     138     141    2268       5     480     138     141    2271       5
     480     483     486    2760       1     480     510     507    2796       1
     477     447     147    2280       3     477     447    -147    2280       4
     477     447     450    2712       1     474     456     453    2715       1
     474     456     459    2718       4     474     456     459    2721       4
     471     462     459    2718       5     471     462     459    2721       5
     471     462     465    2724       5     471     462     465    2727       5
     471     462     465    2730       5     471     462     468    2733       5
     471     462     468    2736       5     471     462     468    2739       5
     468     462     459    2718       5     468     462     459    2721       5
     468     462     465    2724       5     468     462     465    2727       5
     468     462     465    2730       5     468     462     471    2742       5
     468     462     471    2745       5     468     462     471    2748       5
     465     462     459    2718       5     465     462     459    2721       5
     465     462     468    2733       5     465     462     468    2736       5
     465     462     468    2739       5     465     462     471    2742       5
     465     462     471    2745       5     465     462     471    2748       5
     459     456     453    2715       1     459     456     474    2751       1
     459     462     465    2724       5     459     462     465    2727       5
     459     462     465    2730       5     459     462     468    2733       5
     459     462     468    2736       5     459     462     468    2739       5
     459     462     471    2742       5     459     462     471    2745       5
     459     462     471    2748       5     456     453     450    2712       1
     456     474     477    2754       1     453     456     459    2718       4
     453     456     459    2721       4     453     456     474    2751       1
     450     447     147    2280       3     450     447    -147    2280       4
     450     447     477    2754       1     447     147     144    2274       5
     447     147     144    2277       5     447     147     150    2283       5
     447     147     150    2286       5     447     450     453    2715       1
     447     477     474    2751       1     444     414     156    2295       3
     444     414    -156    2295       4     444     414     417    2667       1
     441     423     420    2670       1     441     423     426    2673       4
     441     423     426    2676       4     438     429     426    2673       5
     438     429     426    2676       5     438     429     432    2679       5
     438     429     432    2682       5     438     429     432    2685       5
     438     429     435    2688       5     438     429     435    2691       5
     438     429     435    2694       5     435     429     426    2673       5
     435     429     426    2676       5     435     429     432    2679       5
     435     429     432    2682       5     435     429     432    2685       5
     435     429     438    2697       5     435     429     438    2700       5
     435     429     438    2703       5     432     429     426    2673       5
     432     429     426    2676       5     432     429     435    2688       5
     432     429     435    2691       5     432     429     435    2694       5
     432     429     438    2697       5     432     429     438    2700       5
     432     429     438    2703       5     426     423     420    2670       1
     426     423     441    2706       1     426     429     432    2679       5
     426     429     432    2682       5     426     429     432    2685       5
     426     429     435    2688       5     426     429     435    2691       5
     426     429     435    2694       5     426     429     438    2697       5
     426     429     438    2700       5     426     429     438    2703       5
     423     420     417    2667       1     423     441     444    2709       1
     420     423     426    2673       4     420     423     426    2676       4
     420     423     441    2706       1     417     414     156    2295       3
     417     414    -156    2295       4     417     414     444    2709       1
     414     156     153    2289       5     414     156     153    2292       5
     414     156     159    2298       5     414     156     159    2301       5
     414     417     420    2670       1     414     444     441    2706       1
     411     381     165    2310       3     411     381    -165    2310       4
     411     381     384    2622       1     408     390     387    2625       1
     408     390     393    2628       4     408     390     393    2631       4
     405     396     393    2628       5     405     396     393    2631       5
     405     396     399    2634       5     405     396     399    2637       5
     405     396     399    2640       5     405     396     402    2643       5
     405     396     402    2646       5     405     396     402    2649       5
     402     396     393    2628       5     402     396     393    2631       5
     402     396     399    2634       5     402     396     399    2637       5
     402     396     399    2640       5     402     396     405    2652       5
     402     396     405    2655       5     402     396     405    2658       5
     399     396     393    2628       5     399     396     393    2631       5
     399     396     402    2643       5     399     396     402    2646       5
     399     396     402    2649       5     399     396     405    2652       5
     399     396     405    2655       5     399     396     405    2658       5
     393     390     387    2625       1     393     390     408    2661       1
     393     396     399    2634       5     393     396     399    2637       5
     393     396     399    2640       5     393     396     402    2643       5
     393     396     402    2646       5     393     396     402    2649       5
     393     396     405    2652       5     393     396     405    2655       5
     393     396     405    2658       5     390     387     384    2622       1
     390     408     411    2664       1     387     390     393    2628       4
     387     390     393    2631       4     387     390     408    2661       1
     384     381     165    2310       3     384     381    -165    2310       4
     384     381     411    2664       1     381     165     162    2304       5
     381     165     162    2307       5     381     165     168    2313       5
     381     165     168    2316       5     381     384     387    2625       1
     381     411     408    2661       1     378     348     174    2325       3
     378     348    -174    2325       4     378     348     351    2577       1
     375     357     354    2580       1     375     357     360    2583       4
     375     357     360    2586       4     372     363     360    2583       5
     372     363     360    2586       5     372     363     366    2589       5
     372     363     366    2592       5     372     363     366    2595       5
     372     363     369    2598       5     372     363     369    2601       5
     372     363     369    2604       5     369     363     360    2583       5
     369     363     360    2586       5     369     363     366    2589       5
     369     363     366    2592       5     369     363     366    2595       5
     369     363     372    2607       5     369     363     372    2610       5
     369     363     372    2613       5     366     363     360    2583       5
     366     363     360    2586       5     366     363     369    2598       5
     366     363     369    2601       5     366     363     369    2604       5
     366     363     372    2607       5     366     363     372    2610       5
     366     363     372    2613       5     360     357     354    2580       1
     360     357     375    2616       1     360     363     366    2589       5
     360     363     366    2592       5     360     363     366    2595       5
     360     363     369    2598       5     360     363     369    2601       5
     360     363     369    2604       5     360     363     372    2607       5
     360     363     372    2610       5     360     363     372    2613       5
     357     354     351    2577       1     357     375     378    2619       1
     354     357     360    2583       4     354     357     360    2586       4
     354     357     375    2616       1     351     348     174    2325       3
     351     348    -174    2325       4     351     348     378    2619       1
     348     174     171    2319       5     348     174     171    2322       5
     348     174     177    2328       5     348     174     177    2331       5
     348     351     354    2580       1     348     378     375    2616       1
     345     315     183    2340       3     345     315    -183    2340       4
     345     315     318    2532       1     342     324     321    2535       1
     342     324     327    2538       4     342     324     327    2541       4
     339     330     327    2538       5     339     330     327    2541       5
     339     330     333    2544       5     339     330     333    2547       5
     339     330     333    2550       5     339     330     336    2553       5
     339     330     336    2556       5     339     330     336    2559       5
     336     330     327    2538       5     336     330     327    2541       5
     336     330     333    2544       5     336     330     333    2547       5
     336     330     333    2550       5     336     330     339    2562       5
     336     330     339    2565       5     336     330     339    2568       5
     333     330     327    2538       5     333     330     327    2541       5
     333     330     336    2553       5     333     330     336    2556       5
     333     330     336    2559       5     333     330     339    2562       5
     333     330     339    2565       5     333     330     339    2568       5
     327     324     321    2535       1     327     324     342    2571       1
     327     330     333    2544       5     327     330     333    2547       5
     327     330     333    2550       5     327     330     336    2553       5
     327     330     336    2556       5     327     330     336    2559       5
     327     330     339    2562       5     327     330     339    2565       5
     327     330     339    2568       5     324     321     318    2532       1
     324     342     345    2574       1     321     324     327    2538       4
     321     324     327    2541       4     321     324     342    2571       1
     318     315     183    2340       3     318     315    -183    2340       4
     318     315     345    2574       1     315     183     180    2334       5
     315     183     180    2337       5     315     183     186    2343       5
     315     183     186    2346       5     315     318     321    2535       1
     315     345     342    2571       1     312     282     192    2355       3
     312     282    -192    2355       4     312     282     285    2487       1
     309     291     288    2490       1     309     291     294    2493       4
     309     291     294    2496       4     306     297     294    2493       5
     306     297     294    2496       5     306     297     300    2499       5
     306     297     300    2502       5     306     297     300    2505       5
     306     297     303    2508       5     306     297     303    2511       5
     306     297     303    2514       5     303     297     294    2493       5
     303     297     294    2496       5     303     297     300    2499       5
     303     297     300    2502       5     303     297     300    2505       5
     303     297     306    2517       5     303     297     306    2520       5
     303     297     306    2523       5     300     297     294    2493       5
     300     297     294    2496       5     300     297     303    2508       5
     300     297     303    2511       5     300     297     303    2514       5
     300     297     306    2517       5     300     297     306    2520       5
     300     297     306    2523       5     294     291     288    2490       1
     294     291     309    2526       1     294     297     300    2499       5
     294     297     300    2502       5     294     297     300    2505       5
     294     297     303    2508       5     294     297     303    2511       5
     294     297     303    2514       5     294     297     306    2517       5
     294     297     306    2520       5     294     297     306    2523       5
     291     288     285    2487       1     291     309     312    2529       1
     288     291     294    2493       4     288     291     294    2496       4
     288     291     309    2526       1     285     282     192    2355       3
     285     282    -192    2355       4     285     282     312    2529       1
     282     192     189    2349       5     282     192     189    2352       5
     282     192     195    2358       5     282     192     195    2361       5
     282     285     288    2490       1     282     312     309    2526       1
     279     249     201    2370       3     279     249    -201    2370       4
     279     249     252    2442       1     276     258     255    2445       1
     276     258     261    2448       4     276     258     261    2451       4
     273     264     261    2448       5     273     264     261    2451       5
     273     264     267    2454       5     273     264     267    2457       5
     273     264     267    2460       5     273     264     270    2463       5
     273     264     270    2466       5     273     264     270    2469       5
     270     264     261    2448       5     270     264     261    2451       5
     270     264     267    2454       5     270     264     267    2457       5
     270     264     267    2460       5     270     264     273    2472       5
     270     264     273    2475       5     270     264     273    2478       5
     267     264     261    2448       5     267     264     261    2451       5
     267     264     270    2463       5     267     264     270    2466       5
     267     264     270    2469       5     267     264     273    2472       5
     267     264     273    2475       5     267     264     273    2478       5
     261     258     255    2445       1     261     258     276    2481       1
     261     264     267    2454       5     261     264     267    2457       5
     261     264     267    2460       5     261     264     270    2463       5
     261     264     270    2466       5     261     264     270    2469       5
     261     264     273    2472       5     261     264     273    2475       5
     261     264     273    2478       5     258     255     252    2442       1
     258     276     279    2484       1     255     258     261    2448       4
     255     258     261    2451       4     255     258     276    2481       1
     252     249     201    2370       3     252     249    -201    2370       4
     252     249     279    2484       1     249     201     198    2364       5
     249     201     198    2367       5     249     201     204    2373       5
     249     201     204    2376       5     249     252     255    2445       1
     249     279     276    2481       1     246     216     210    2385       3
     246     216    -210    2385       4     246     216     219    2397       1
     243     225     222    2400       1     243     225     228    2403       4
     243     225     228    2406       4     240     231     228    2403       5
     240     231     228    2406       5     240     231     234    2409       5
     240     231     234    2412       5     240     231     234    2415       5
     240     231     237    2418       5     240     231     237    2421       5
     240     231     237    2424       5     237     231     228    2403       5
     237     231     228    2406       5     237     231     234    2409       5
     237     231     234    2412       5     237     231     234    2415       5
     237     231     240    2427       5     237     231     240    2430       5
     237     231     240    2433       5     234     231     228    2403       5
     234     231     228    2406       5     234     231     237    2418       5
     234     231     237    2421       5     234     231     237    2424       5
     234     231     240    2427       5     234     231     240    2430       5
     234     231     240    2433       5     228     225     222    2400       1
     228     225     243    2436       1     228     231     234    2409       5
     228     231     234    2412       5     228     231     234    2415       5
     228     231     237    2418       5     228     231     237    2421       5
     228     231     237    2424       5     228     231     240    2427       5
     228     231     240    2430       5     228     231     240    2433       5
     225     222     219    2397       1     225     243     246    2439       1
     222     225     228    2403       4     222     225     228    2406       4
     222     225     243    2436       1     219     216     210    2385       3
     219     216    -210    2385       4     219     216     246    2439       1
     216     210     207    2379       5     216     210     207    2382       5
     216     210     213    2388       5     216     210     213    2391       5
     216     210     213    2394       5     216     219     222    2400       1
     216     246     243    2436       1     213     210     207    2379       9
     213     210     207    2382       9     210     207     204    2373       9
     210     207     204    2376       9     210     216     219    2397       1
     210     216     246    2439       1     207     204     201    2370       9
     207     210     213    2388       9     207     210     213    2391       9
     207     210     213    2394       9     204     201     198    2364       9
     204     201     198    2367       9     204     207     210    2385       9
     201     198     195    2358       9     201     198     195    2361       9
     201     204     207    2379       9     201     204     207    2382       9
     201     249     252    2442       1     201     249     279    2484       1
     198     195     192    2355       9     198     201     204    2373       9
     198     201     204    2376       9     195     192     189    2349       9
     195     192     189    2352       9     195     198     201    2370       9
     192     189     186    2343       9     192     189     186    2346       9
     192     195     198    2364       9     192     195     198    2367       9
     192     282     285    2487       1     192     282     312    2529       1
     189     186     183    2340       9     189     192     195    2358       9
     189     192     195    2361       9     186     183     180    2334       9
     186     183     180    2337       9     186     189     192    2355       9
     183     180     177    2328       9     183     180     177    2331       9
     183     186     189    2349       9     183     186     189    2352       9
     183     315     318    2532       1     183     315     345    2574       1
     180     177     174    2325       9     180     183     186    2343       9
     180     183     186    2346       9     177     174     171    2319       9
     177     174     171    2322       9     177     180     183    2340       9
     174     171     168    2313       9     174     171     168    2316       9
     174     177     180    2334       9     174     177     180    2337       9
     174     348     351    2577       1     174     348     378    2619       1
     171     168     165    2310       9     171     174     177    2328       9
     171     174     177    2331       9     168     165     162    2304       9
     168     165     162    2307       9     168     171     174    2325       9
     165     162     159    2298       9     165     162     159    2301       9
     165     168     171    2319       9     165     168     171    2322       9
     165     381     384    2622       1     165     381     411    2664       1
     162     159     156    2295       9     162     165     168    2313       9
     162     165     168    2316       9     159     156     153    2289       9
     159     156     153    2292       9     159     162     165    2310       9
     156     153     150    2283       9     156     153     150    2286       9
     156     159     162    2304       9     156     159     162    2307       9
     156     414     417    2667       1     156     414     444    2709       1
     153     150     147    2280       9     153     156     159    2298       9
     153     156     159    2301       9     150     147     144    2274       9
     150     147     144    2277       9     150     153     156    2295       9
     147     144     141    2268       9     147     144     141    2271       9
     147     150     153    2289       9     147     150     153    2292       9
     147     447     450    2712       1     147     447     477    2754       1
     144     141     138    2265       9     144     147     150    2283       9
     144     147     150    2286       9     141     138     135    2259       9
     141     138     135    2262       9     141     144     147    2280       9
     138     135     132    2253       9     138     135     132    2256       9
     138     141     144    2274       9     138     141     144    2277       9
     138     480     483    2757       1     138     480     510    2799       1
     135     132     129    2250       9     135     138     141    2268       9
     135     138     141    2271       9     132     129     126    2244       9
     132     129     126    2247       9     132     135     138    2265       9
     129     126     123    2238       9     129     126     123    2241       9
     129     132     135    2259       9     129     132     135    2262       9
     129     513     516    2802       1     129     513     543    2844       1
     126     123     120    2235       9     126     129     132    2253       9
     126     129     132    2256       9     123     120     117    2229       9
     123     120     117    2232       9     123     126     129    2250       9
     120     117     114    2223       9     120     117     114    2226       9
     120     123     126    2244       9     120     123     126    2247       9
     120     546     549    2847       1     120     546     576    2889       1
     117     120     123    2238       9     117     120     123    2241       9
     114     111     108    2217       9     114     111     108    2220       9
     114     117     120    2235       9     111     108     105    2211       9
     111     108     105    2214       9     111     114     117    2229       9
     111     114     117    2232       9     111     579     582    2892       1
     111     579     609    2934       1     111     612     615    2937       1
     111     612    1635    4389       1     108     105     102    2208       9
     108     111     114    2223       9     108     111     114    2226       9
     105     102      99    2202       9     105     102      99    2205       9
     102      99      96    2196       9     102      99      96    2199       9
     102     105     108    2217       9     102     105     108    2220       9
     102    1638    1641    4392       1     102    1638    1668    4434       1
      99      96      93    2193       9      99     102     105    2211       9
      99     102     105    2214       9      96      93      90    2187       9
      96      93      90    2190       9      96      99     102    2208       9
      93      90      87    2181       9      93      90      87    2184       9
      93      96      99    2202       9      93      96      99    2205       9
      93    1671    1674    4437       1      93    1671    1701    4479       1
      90      87      84    2178       9      90      93      96    2196       9
      90      93      96    2199       9      87      84      81    2172       9
      87      84      81    2175       9      87      90      93    2193       9
      84      81      78    2166       9      84      81      78    2169       9
      84      87      90    2187       9      84      87      90    2190       9
      84    1704    1707    4482       1      84    1704    1734    4524       1
      81      78      75    2163       9      81      84      87    2181       9
      81      84      87    2184       9      78      75      72    2157       9
      78      75      72    2160       9      78      81      84    2178       9
      75      72      69    2151       9      75      72      69    2154       9
      75      78      81    2172       9      75      78      81    2175       9
      75    1737    1740    4527       1      75    1737    1767    4569       1
      72      69      66    2148       9      72      75      78    2166       9
      72      75      78    2169       9      69      66      63    2142       9
      69      66      63    2145       9      69      72      75    2163       9
      66      63      60    2136       9      66      63      60    2139       9
      66      69      72    2157       9      66      69      72    2160       9
      66    1770    1773    4572       1      66    1770    1800    4614       1
      63      60      57    2133       9      63      66      69    2151       9
      63      66      69    2154       9      60      57      54    2127       9
      60      57      54    2130       9      60      63      66    2148       9
      57      54      51    2121       9      57      54      51    2124       9
      57      60      63    2142       9      57      60      63    2145       9
      57    1803    1806    4617       1      57    1803    1833    4659       1
      54      51      48    2118       9      54      57      60    2136       9
      54      57      60    2139       9      51      48      45    2112       9
      51      48      45    2115       9      51      54      57    2133       9
      48      45      42    2106       9      48      45      42    2109       9
      48      51      54    2127       9      48      51      54    2130       9
      48    1836    1839    4662       1      48    1836    1866    4704       1
      45      42      39    2103       9      45      48      51    2121       9
      45      48      51    2124       9      42      39      36    2097       9
      42      39      36    2100       9      42      45      48    2118       9
      39      36      33    2091       9      39      36      33    2094       9
      39      42      45    2112       9      39      42      45    2115       9
      39    1869    1872    4707       1      39    1869    1899    4749       1
      36      33      30    2088       9      36      39      42    2106       9
      36      39      42    2109       9      33      30      27    2082       9
      33      30      27    2085       9      33      36      39    2103       9
      30      27      24    2076       9      30      27      24    2079       9
      30      33      36    2097       9      30      33      36    2100       9
      30    1902    1905    4752       1      30    1902    1932    4794       1
      27      24      21    2073       9      27      30      33    2091       9
      27      30      33    2094       9      24      21      18    2067       9
      24      21      18    2070       9      24      27      30    2088       9
      21      18      15    2061       9      21      18      15    2064       9
      21      24      27    2082       9      21      24      27    2085       9
      21    1935    1938    4797       1      21    1935    1965    4839       1
      18      15      12    2058       9      18      21      24    2076       9
      18      21      24    2079       9      15      12       9    2052       9
      15      12       9    2055       9      15      18      21    2073       9
      12       9       6    2046       9      12       9       6    2049       9
      12      15      18    2067       9      12      15      18    2070       9
      12    1968    1971    4842       1      12    1968    1998    4884       1
       9       6       3    2043       9       9      12      15    2061       9
       9      12      15    2064       9    2034       0       3       6       9
    2037       0       3       6       9    2040       0       3       6       9
       6       9      12    2058       9       3       6       9    2052       9
       3       6       9    2055       9       3    2001    2004    4887       1
       3    2001    2031    4929       1       0       3       6    2046       9
       0       3       6    2049       9    2001    2028   -2031   -4929      14
    2010    2031   -2028   -4926      14    2004    2010   -2007   -4890      14
    2001    2007   -2004   -4887      14    1968    1995   -1998   -4884      14
    1977    1998   -1995   -4881      14    1971    1977   -1974   -4845      14
    1968    1974   -1971   -4842      14    1935    1962   -1965   -4839      14
    1944    1965   -1962   -4836      14    1938    1944   -1941   -4800      14
    1935    1941   -1938   -4797      14    1902    1929   -1932   -4794      14
    1911    1932   -1929   -4791      14    1905    1911   -1908   -4755      14
    1902    1908   -1905   -4752      14    1869    1896   -1899   -4749      14
    1878    1899   -1896   -4746      14    1872    1878   -1875   -4710      14
    1869    1875   -1872   -4707      14    1836    1863   -1866   -4704      14
    1845    1866   -1863   -4701      14    1839    1845   -1842   -4665      14
    1836    1842   -1839   -4662      14    1803    1830   -1833   -4659      14
    1812    1833   -1830   -4656      14    1806    1812   -1809   -4620      14
    1803    1809   -1806   -4617      14    1770    1797   -1800   -4614      14
    1779    1800   -1797   -4611      14    1773    1779   -1776   -4575      14
    1770    1776   -1773   -4572      14    1737    1764   -1767   -4569      14
    1746    1767   -1764   -4566      14    1740    1746   -1743   -4530      14
    1737    1743   -1740   -4527      14    1704    1731   -1734   -4524      14
    1713    1734   -1731   -4521      14    1707    1713   -1710   -4485      14
    1704    1710   -1707   -4482      14    1671    1698   -1701   -4479      14
    1680    1701   -1698   -4476      14    1674    1680   -1677   -4440      14
    1671    1677   -1674   -4437      14    1638    1665   -1668   -4434      14
    1647    1668   -1665   -4431      14    1641    1647   -1644   -4395      14
    1638    1644   -1641   -4392      14     612    1632   -1635   -4389      14
     621    1635   -1632   -4386      14    1599    1626   -1629   -4383      14
    1608    1629   -1626   -4380      14    1602    1608   -1605   -4344      14
    1599    1605   -1602   -4341      14    1566    1593   -1596   -4338      14
    1575    1596   -1593   -4335      14    1569    1575   -1572   -4299      14
    1566    1572   -1569   -4296      14    1533    1560   -1563   -4293      14
    1542    1563   -1560   -4290      14    1536    1542   -1539   -4254      14
    1533    1539   -1536   -4251      14    1500    1527   -1530   -4248      14
    1509    1530   -1527   -4245      14    1503    1509   -1506   -4209      14
    1500    1506   -1503   -4206      14    1467    1494   -1497   -4203      14
    1476    1497   -1494   -4200      14    1470    1476   -1473   -4164      14
    1467    1473   -1470   -4161      14    1434    1461   -1464   -4158      14
    1443    1464   -1461   -4155      14    1437    1443   -1440   -4119      14
    1434    1440   -1437   -4116      14    1401    1428   -1431   -4113      14
    1410    1431   -1428   -4110      14    1404    1410   -1407   -4074      14
    1401    1407   -1404   -4071      14    1368    1395   -1398   -4068      14
    1377    1398   -1395   -4065      14    1371    1377   -1374   -4029      14
    1368    1374   -1371   -4026      14    1335    1362   -1365   -4023      14
    1344    1365   -1362   -4020      14    1338    1344   -1341   -3984      14
    1335    1341   -1338   -3981      14    1302    1329   -1332   -3978      14
    1311    1332   -1329   -3975      14    1305    1311   -1308   -3939      14
    1302    1308   -1305   -3936      14    1269    1296   -1299   -3933      14
    1278    1299   -1296   -3930      14    1272    1278   -1275   -3894      14
    1269    1275   -1272   -3891      14    1236    1263   -1266   -3888      14
    1245    1266   -1263   -3885      14    1239    1245   -1242   -3849      14
    1236    1242   -1239   -3846      14    1203    1230   -1233   -3843      14
    1212    1233   -1230   -3840      14    1206    1212   -1209   -3804      14
    1203    1209   -1206   -3801      14    1059    1086   -1089   -3609      14
    1068    1089   -1086   -3606      14    1062    1068   -1065   -3570      14
    1059    1065   -1062   -3567      14    1026    1053   -1056   -3564      14
    1035    1056   -1053   -3561      14    1029    1035   -1032   -3525      14
    1026    1032   -1029   -3522      14     993    1020   -1023   -3519      14
    1002    1023   -1020   -3516      14     996    1002    -999   -3480      14
     993     999    -996   -3477      14     960     987    -990   -3474      14
     969     990    -987   -3471      14     963     969    -966   -3435      14
     960     966    -963   -3432      14     927     954    -957   -3429      14
     936     957    -954   -3426      14     930     936    -933   -3390      14
     927     933    -930   -3387      14     894     921    -924   -3384      14
     903     924    -921   -3381      14     897     903    -900   -3345      14
     894     900    -897   -3342      14     861     888    -891   -3339      14
     870     891    -888   -3336      14     864     870    -867   -3300      14
     861     867    -864   -3297      14     828     855    -858   -3294      14
     837     858    -855   -3291      14     831     837    -834   -3255      14
     828     834    -831   -3252      14     795     822    -825   -3249      14
     804     825    -822   -3246      14     798     804    -801   -3210      14
     795     801    -798   -3207      14     762     789    -792   -3204      14
     771     792    -789   -3201      14     765     771    -768   -3165      14
     762     768    -765   -3162      14     729     756    -759   -3159      14
     738     759    -756   -3156      14     732     738    -735   -3120      14
     729     735    -732   -3117      14     615     621    -618   -2940      14
     612     618    -615   -2937      14     579     606    -609   -2934      14
     588     609    -606   -2931      14     582     588    -585   -2895      14
     579     585    -582   -2892      14     546     573    -576   -2889      14
     555     576    -573   -2886      14     549     555    -552   -2850      14
     546     552    -549   -2847      14     513     540    -543   -2844      14
     522     543    -540   -2841      14     516     522    -519   -2805      14
     513     519    -516   -2802      14     480     507    -510   -2799      14
     489     510    -507   -2796      14     483     489    -486   -2760      14
     480     486    -483   -2757      14     447     474    -477   -2754      14
     456     477    -474   -2751      14     450     456    -453   -2715      14
     447     453    -450   -2712      14     414     441    -444   -2709      14
     423     444    -441   -2706      14     417     423    -420   -2670      14
     414     420    -417   -2667      14     381     408    -411   -2664      14
     390     411    -408   -2661      14     384     390    -387   -2625      14
     381     387    -384   -2622      14     348     375    -378   -2619      14
     357     378    -375   -2616      14     351     357    -354   -2580      14
     348     354    -351   -2577      14     315     342    -345   -2574      14
     324     345    -342   -2571      14     318     324    -321   -2535      14
     315     321    -318   -2532      14     282     309    -312   -2529      14
     291     312    -309   -2526      14     285     291    -288   -2490      14
     282     288    -285   -2487      14     249     276    -279   -2484      14
     258     279    -276   -2481      14     252     258    -255   -2445      14
     249     255    -252   -2442      14     216     243    -246   -2439      14
     225     246    -243   -2436      14     219     225    -222   -2400      14
     216     222    -219   -2397      14
%FLAG DIHEDRALS_WITHOUT_HYDROGEN                                                
%FORMAT(10I8)                                                                   
    2016    2013    2010    2028       4    2013    2010    2028    2031       1
    2010    2013    2016    2019       6    2010    2013   -2016    2019       7
    2010    2013    2016    2022       6    2010    2013   -2016    2022       7
    2010    2013    2016    2025       6    2010    2013   -2016    2025       7
    2007    2004    2001    2031       1    2007    2010    2013    2016       4
    2007    2010   -2028    2031       1    2004    2001    2031    2028       1
    2004    2007    2010    2013       1    2004    2007   -2010    2028       1
    2001    2004    2007    2010       1    2001    2031   -2028    2010       1
    1983    1980    1977    1995       4    1980    1977    1995    1998       1
    1977    1980    1983    1986       6    1977    1980   -1983    1986       7
    1977    1980    1983    1989       6    1977    1980   -1983    1989       7
    1977    1980    1983    1992       6    1977    1980   -1983    1992       7
    1974    1971    1968    1998       1    1974    1977    1980    1983       4
    1974    1977   -1995    1998       1    1971    1968    1998    1995       1
    1971    1974    1977    1980       1    1971    1974   -1977    1995       1
    1968    1971    1974    1977       1    1968    1998   -1995    1977       1
    1950    1947    1944    1962       4    1947    1944    1962    1965       1
    1944    1947    1950    1953       6    1944    1947   -1950    1953       7
    1944    1947    1950    1956       6    1944    1947   -1950    1956       7
    1944    1947    1950    1959       6    1944    1947   -1950    1959       7
    1941    1938    1935    1965       1    1941    1944    1947    1950       4
    1941    1944   -1962    1965       1    1938    1935    1965    1962       1
    1938    1941    1944    1947       1    1938    1941   -1944    1962       1
    1935    1938    1941    1944       1    1935    1965   -1962    1944       1
    1917    1914    1911    1929       4    1914    1911    1929    1932       1
    1911    1914    1917    1920       6    1911    1914   -1917    1920       7
    1911    1914    1917    1923       6    1911    1914   -1917    1923       7
    1911    1914    1917    1926       6    1911    1914   -1917    1926       7
    1908    1905    1902    1932       1    1908    1911    1914    1917       4
    1908    1911   -1929    1932       1    1905    1902    1932    1929       1
    1905    1908    1911    1914       1    1905    1908   -1911    1929       1
    1902    1905    1908    1911       1    1902    1932   -1929    1911       1
    1884    1881    1878    1896       4    1881    1878    1896    1899       1
    1878    1881    1884    1887       6    1878    1881   -1884    1887       7
    1878    1881    1884    1890       6    1878    1881   -1884    1890       7
    1878    1881    1884    1893       6    1878    1881   -1884    1893       7
    1875    1872    1869    1899       1    1875    1878    1881    1884       4
    1875    1878   -1896    1899       1    1872    1869    1899    1896       1
    1872    1875    1878    1881       1    1872    1875   -1878    1896       1
    1869    1872    1875    1878       1    1869    1899   -1896    1878       1
    1851    1848    1845    1863       4    1848    1845    1863    1866       1
    1845    1848    1851    1854       6    1845    1848   -1851    1854       7
    1845    1848    1851    1857       6    1845    1848   -1851    1857       7
    1845    1848    1851    1860       6    1845    1848   -1851    1860       7
    1842    1839    1836    1866       1    1842    1845    1848    1851       4
    1842    1845   -1863    1866       1    1839    1836    1866    1863       1
    1839    1842    1845    1848       1    1839    1842   -1845    1863       1
    1836    1839    1842    1845       1    1836    1866   -1863    1845       1
    1818    1815    1812    1830       4    1815    1812    1830    1833       1
    1812    1815    1818    1821       6    1812    1815   -1818    1821       7
    1812    1815    1818    1824       6    1812    1815   -1818    1824       7
    1812    1815    1818    1827       6    1812    1815   -1818    1827       7
    1809    1806    1803    1833       1    1809    1812    1815    1818       4
    1809    1812   -1830    1833       1    1806    1803    1833    1830       1
    1806    1809    1812    1815       1    1806    1809   -1812    1830       1
    1803    1806    1809    1812       1    1803    1833   -1830    1812       1
    1785    1782    1779    1797       4    1782    1779    1797    1800       1
    1779    1782    1785    1788       6    1779    1782   -1785    1788       7
    1779    1782    1785    1791       6    1779    1782   -1785    1791       7
    1779    1782    1785    1794       6    1779    1782   -1785    1794       7
    1776    1773    1770    1800       1    1776    1779    1782    1785       4
    1776    1779   -1797    1800       1    1773    1770    1800    1797       1
    1773    1776    1779    1782       1    1773    1776   -1779    1797       1
    1770    1773    1776    1779       1    1770    1800   -1797    1779       1
    1752    1749    1746    1764       4    1749    1746    1764    1767       1
    1746    1749    1752    1755       6    1746    1749   -1752    1755       7
    1746    1749    1752    1758       6    1746    1749   -1752    1758       7
    1746    1749    1752    1761       6    1746    1749   -1752    1761       7
    1743    1740    1737    1767       1    1743    1746    1749    1752       4
    1743    1746   -1764    1767       1    1740    1737    1767    1764       1
    1740    1743    1746    1749       1    1740    1743   -1746    1764       1
    1737    1740    1743    1746       1    1737    1767   -1764    1746       1
    1719    1716    1713    1731       4    1716    1713    1731    1734       1
    1713    1716    1719    1722       6    1713    1716   -1719    1722       7
    1713    1716    1719    1725       6    1713    1716   -1719    1725       7
    1713    1716    1719    1728       6    1713    1716   -1719    1728       7
    1710    1707    1704    1734       1    1710    1713    1716    1719       4
    1710    1713   -1731    1734       1    1707    1704    1734    1731       1
    1707    1710    1713    1716       1    1707    1710   -1713    1731       1
    1704    1707    1710    1713       1    1704    1734   -1731    1713       1
    1686    1683    1680    1698       4    1683    1680    1698    1701       1
    1680    1683    1686    1689       6    1680    1683   -1686    1689       7
    1680    1683    1686    1692       6    1680    1683   -1686    1692       7
    1680    1683    1686    1695       6    1680    1683   -1686    1695       7
    1677    1674    1671    1701       1    1677    1680    1683    1686       4
    1677    1680   -1698    1701       1    1674    1671    1701    1698       1
    1674    1677    1680    1683       1    1674    1677   -1680    1698       1
    1671    1674    1677    1680       1    1671    1701   -1698    1680       1
    1653    1650    1647    1665       4    1650    1647    1665    1668       1
    1647    1650    1653    1656       6    1647    1650   -1653    1656       7
    1647    1650    1653    1659       6    1647    1650   -1653    1659       7
    1647    1650    1653    1662       6    1647    1650   -1653    1662       7
    1644    1641    1638    1668       1    1644    1647    1650    1653       4
    1644    1647   -1665    1668       1    1641    1638    1668    1665       1
    1641    1644    1647    1650       1    1641    1644   -1647    1665       1
    1638    1641    1644    1647       1    1638    1668   -1665    1647       1
    1614    1611    1608    1626       4    1611    1608    1626    1629       1
    1608    1611    1614    1617       6    1608    1611   -1614    1617       7
    1608    1611    1614    1620       6    1608    1611   -1614    1620       7
    1608    1611    1614    1623       6    1608    1611   -1614    1623       7
    1605    1602    1599    1629       1    1605    1608    1611    1614       4
    1605    1608   -1626    1629       1    1602    1599    1629    1626       1
    1602    1605    1608    1611       1    1602    1605   -1608    1626       1
    1599     624     621    1632       8    1599    1602    1605    1608       1
    1599    1629   -1626    1608       1    1581    1578    1575    1593       4
    1578    1575    1593    1596       1    1575    1578    1581    1584       6
    1575    1578   -1581    1584       7    1575    1578    1581    1587       6
    1575    1578   -1581    1587       7    1575    1578    1581    1590       6
    1575    1578   -1581    1590       7    1572    1569    1566    1596       1
    1572    1575    1578    1581       4    1572    1575   -1593    1596       1
    1569    1566    1596    1593       1    1569    1572    1575    1578       1
    1569    1572   -1575    1593       1    1566    1569    1572    1575       1
    1566    1596   -1593    1575       1    1548    1545    1542    1560       4
    1545    1542    1560    1563       1    1542    1545    1548    1551       6
    1542    1545   -1548    1551       7    1542    1545    1548    1554       6
    1542    1545   -1548    1554       7    1542    1545    1548    1557       6
    1542    1545   -1548    1557       7    1539    1536    1533    1563       1
    1539    1542    1545    1548       4    1539    1542   -1560    1563       1
    1536    1533    1563    1560       1    1536    1539    1542    1545       1
    1536    1539   -1542    1560       1    1533    1536    1539    1542       1
    1533    1563   -1560    1542       1    1515    1512    1509    1527       4
    1512    1509    1527    1530       1    1509    1512    1515    1518       6
    1509    1512   -1515    1518       7    1509    1512    1515    1521       6
    1509    1512   -1515    1521       7    1509    1512    1515    1524       6
    1509    1512   -1515    1524       7    1506    1503    1500    1530       1
    1506    1509    1512    1515       4    1506    1509   -1527    1530       1
    1503    1500    1530    1527       1    1503    1506    1509    1512       1
    1503    1506   -1509    1527       1    1500    1503    1506    1509       1
    1500    1530   -1527    1509       1    1482    1479    1476    1494       4
    1479    1476    1494    1497       1    1476    1479    1482    1485       6
    1476    1479   -1482    1485       7    1476    1479    1482    1488       6
    1476    1479   -1482    1488       7    1476    1479    1482    1491       6
    1476    1479   -1482    1491       7    1473    1470    1467    1497       1
    1473    1476    1479    1482       4    1473    1476   -1494    1497       1
    1470    1467    1497    1494       1    1470    1473    1476    1479       1
    1470    1473   -1476    1494       1    1467    1470    1473    1476       1
    1467    1497   -1494    1476       1    1449    1446    1443    1461       4
    1446    1443    1461    1464       1    1443    1446    1449    1452       6
    1443    1446   -1449    1452       7    1443    1446    1449    1455       6
    1443    1446   -1449    1455       7    1443    1446    1449    1458       6
    1443    1446   -1449    1458       7    1440    1437    1434    1464       1
    1440    1443    1446    1449       4    1440    1443   -1461    1464       1
    1437    1434    1464    1461       1    1437    1440    1443    1446       1
    1437    1440   -1443    1461       1    1434    1437    1440    1443       1
    1434    1464   -1461    1443       1    1416    1413    1410    1428       4
    1413    1410    1428    1431       1    1410    1413    1416    1419       6
    1410    1413   -1416    1419       7    1410    1413    1416    1422       6
    1410    1413   -1416    1422       7    1410    1413    1416    1425       6
    1410    1413   -1416    1425       7    1407    1404    1401    1431       1
    1407    1410    1413    1416       4    1407    1410   -1428    1431       1
    1404    1401    1431    1428       1    1404    1407    1410    1413       1
    1404    1407   -1410    1428       1    1401    1404    1407    1410       1
    1401    1431   -1428    1410       1    1383    1380    1377    1395       4
    1380    1377    1395    1398       1    1377    1380    1383    1386       6
    1377    1380   -1383    1386       7    1377    1380    1383    1389       6
    1377    1380   -1383    1389       7    1377    1380    1383    1392       6
    1377    1380   -1383    1392       7    1374    1371    1368    1398       1
    1374    1377    1380    1383       4    1374    1377   -1395    1398       1
    1371    1368    1398    1395       1    1371    1374    1377    1380       1
    1371    1374   -1377    1395       1    1368    1371    1374    1377       1
    1368    1398   -1395    1377       1    1350    1347    1344    1362       4
    1347    1344    1362    1365       1    1344    1347    1350    1353       6
    1344    1347   -1350    1353       7    1344    1347    1350    1356       6
    1344    1347   -1350    1356       7    1344    1347    1350    1359       6
    1344    1347   -1350    1359       7    1341    1338    1335    1365       1
    1341    1344    1347    1350       4    1341    1344   -1362    1365       1
    1338    1335    1365    1362       1    1338    1341    1344    1347       1
    1338    1341   -1344    1362       1    1335    1338    1341    1344       1
    1335    1365   -1362    1344       1    1317    1314    1311    1329       4
    1314    1311    1329    1332       1    1311    1314    1317    1320       6
    1311    1314   -1317    1320       7    1311    1314    1317    1323       6
    1311    1314   -1317    1323       7    1311    1314    1317    1326       6
    1311    1314   -1317    1326       7    1308    1305    1302    1332       1
    1308    1311    1314    1317       4    1308    1311   -1329    1332       1
    1305    1302    1332    1329       1    1305    1308    1311    1314       1
    1305    1308   -1311    1329       1    1302    1305    1308    1311       1
    1302    1332   -1329    1311       1    1284    1281    1278    1296       4
    1281    1278    1296    1299       1    1278    1281    1284    1287       6
    1278    1281   -1284    1287       7    1278    1281    1284    1290       6
    1278    1281   -1284    1290       7    1278    1281    1284    1293       6
    1278    1281   -1284    1293       7    1275    1272    1269    1299       1
    1275    1278    1281    1284       4    1275    1278   -1296    1299       1
    1272    1269    1299    1296       1    1272    1275    1278    1281       1
    1272    1275   -1278    1296       1    1269    1272    1275    1278       1
    1269    1299   -1296    1278       1    1251    1248    1245    1263       4
    1248    1245    1263    1266       1    1245    1248    1251    1254       6
    1245    1248   -1251    1254       7    1245    1248    1251    1257       6
    1245    1248   -1251    1257       7    1245    1248    1251    1260       6
    1245    1248   -1251    1260       7    1242    1239    1236    1266       1
    1242    1245    1248    1251       4    1242    1245   -1263    1266       1
    1239    1236    1266    1263       1    1239    1242    1245    1248       1
    1239    1242   -1245    1263       1    1236    1239    1242    1245       1
    1236    1266   -1263    1245       1    1218    1215    1212    1230       4
    1215    1212    1230    1233       1    1212    1215    1218    1221       6
    1212    1215   -1218    1221       7    1212    1215    1218    1224       6
    1212    1215   -1218    1224       7    1212    1215    1218    1227       6
    1212    1215   -1218    1227       7    1209    1206    1203    1233       1
    1209    1212    1215    1218       4    1209    1212   -1230    1233       1
    1206    1203    1233    1230       1    1206    1209    1212    1215       1
    1206    1209   -1212    1230       1    1203    1206    1209    1212       1
    1203    1233   -1230    1212       1    1200    1197    1203    1206      10
    1200    1197    1203    1233      10    1197    1203    1206    1209       1
    1197    1203    1233    1230       1    1194    1191    1188    1236       5
    1194    1197    1203    1206      10    1194    1197    1203    1233      10
    1191    1188    1236    1239      10    1191    1188    1236    1266      10
    1191    1194    1197    1200      11    1191    1194    1197    1203       5
    1188    1191    1194    1197      11    1188    1236    1239    1242       1
    1188    1236    1266    1263       1    1185    1182    1179    1269       5
    1185    1188    1191    1194      11    1185    1188    1236    1239      10
    1185    1188    1236    1266      10    1182    1179    1269    1272      10
    1182    1179    1269    1299      10    1182    1185    1188    1191      11
    1182    1185    1188    1236       5    1179    1182    1185    1188      11
    1179    1269    1272    1275       1    1179    1269    1299    1296       1
    1176    1173    1170    1302       5    1176    1179    1182    1185      11
    1176    1179    1269    1272      10    1176    1179    1269    1299      10
    1173    1170    1302    1305      10    1173    1170    1302    1332      10
    1173    1176    1179    1182      11    1173    1176    1179    1269       5
    1170    1173    1176    1179      11    1170    1302    1305    1308       1
    1170    1302    1332    1329       1    1167    1164    1161    1335       5
    1167    1170    1173    1176      11    1167    1170    1302    1305      10
    1167    1170    1302    1332      10    1164    1161    1335    1338      10
    1164    1161    1335    1365      10    1164    1167    1170    1173      11
    1164    1167    1170    1302       5    1161    1164    1167    1170      11
    1161    1335    1338    1341       1    1161    1335    1365    1362       1
    1158    1155    1152    1368       5    1158    1161    1164    1167      11
    1158    1161    1335    1338      10    1158    1161    1335    1365      10
    1155    1152    1368    1371      10    1155    1152    1368    1398      10
    1155    1158    1161    1164      11    1155    1158    1161    1335       5
    1152    1155    1158    1161      11    1152    1368    1371    1374       1
    1152    1368    1398    1395       1    1149    1146    1143    1401       5
    1149    1152    1155    1158      11    1149    1152    1368    1371      10
    1149    1152    1368    1398      10    1146    1143    1401    1404      10
    1146    1143    1401    1431      10    1146    1149    1152    1155      11
    1146    1149    1152    1368       5    1143    1146    1149    1152      11
    1143    1401    1404    1407       1    1143    1401    1431    1428       1
    1140    1137    1134    1434       5    1140    1143    1146    1149      11
    1140    1143    1401    1404      10    1140    1143    1401    1431      10
    1137    1134    1434    1437      10    1137    1134    1434    1464      10
    1137    1140    1143    1146      11    1137    1140    1143    1401       5
    1134    1137    1140    1143      11    1134    1434    1437    1440       1
    1134    1434    1464    1461       1    1131    1128    1125    1467       5
    1131    1134    1137    1140      11    1131    1134    1434    1437      10
    1131    1134    1434    1464      10    1128    1125    1467    1470      10
    1128    1125    1467    1497      10    1128    1131    1134    1137      11
    1128    1131    1134    1434       5    1125    1128    1131    1134      11
    1125    1467    1470    1473       1    1125    1467    1497    1494       1
    1122    1119    1116    1500       5    1122    1125    1128    1131      11
    1122    1125    1467    1470      10    1122    1125    1467    1497      10
    1119    1116    1500    1503      10    1119    1116    1500    1530      10
    1119    1122    1125    1128      11    1119    1122    1125    1467       5
    1116    1119    1122    1125      11    1116    1500    1503    1506       1
    1116    1500    1530    1527       1    1113    1110    1107    1533       5
    1113    1116    1119    1122      11    1113    1116    1500    1503      10
    1113    1116    1500    1530      10    1110    1107    1533    1536      10
    1110    1107    1533    1563      10    1110    1113    1116    1119      11
    1110    1113    1116    1500       5    1107    1110    1113    1116      11
    1107    1533    1536    1539       1    1107    1533    1563    1560       1
    1104    1101    1098    1566       5    1104    1107    1110    1113      11
    1104    1107    1533    1536      10    1104    1107    1533    1563      10
    1101    1098    1566    1569      10    1101    1098    1566    1596      10
    1101    1104    1107    1110      11    1101    1104    1107    1533       5
    1098    1101    1104    1107      11    1098    1566    1569    1572       1
    1098    1566    1596    1593       1    1095    1092     624    1599       5
    1095    1098    1101    1104      11    1095    1098    1566    1569      10
    1095    1098    1566    1596      10    1092     624     621    1632      10
    1092     624    1599    1602      10    1092     624    1599    1629      10
    1092    1095    1098    1101      11    1092    1095    1098    1566       5
    1074    1071    1068    1086       4    1071    1068    1086    1089       1
    1068    1071    1074    1077       6    1068    1071   -1074    1077       7
    1068    1071    1074    1080       6    1068    1071   -1074    1080       7
    1068    1071    1074    1083       6    1068    1071   -1074    1083       7
    1065    1062    1059    1089       1    1065    1068    1071    1074       4
    1065    1068   -1086    1089       1    1062    1059    1089    1086       1
    1062    1065    1068    1071       1    1062    1065   -1068    1086       1
    1059    1062    1065    1068       1    1059    1089   -1086    1068       1
    1041    1038    1035    1053       4    1038    1035    1053    1056       1
    1035    1038    1041    1044       6    1035    1038   -1041    1044       7
    1035    1038    1041    1047       6    1035    1038   -1041    1047       7
    1035    1038    1041    1050       6    1035    1038   -1041    1050       7
    1032    1029    1026    1056       1    1032    1035    1038    1041       4
    1032    1035   -1053    1056       1    1029    1026    1056    1053       1
    1029    1032    1035    1038       1    1029    1032   -1035    1053       1
    1026    1029    1032    1035       1    1026    1056   -1053    1035       1
    1008    1005    1002    1020       4    1005    1002    1020    1023       1
    1002    1005    1008    1011       6    1002    1005   -1008    1011       7
    1002    1005    1008    1014       6    1002    1005   -1008    1014       7
    1002    1005    1008    1017       6    1002    1005   -1008    1017       7
     999     996     993    1023       1     999    1002    1005    1008       4
     999    1002   -1020    1023       1     996     993    1023    1020       1
     996     999    1002    1005       1     996     999   -1002    1020       1
     993     996     999    1002       1     993    1023   -1020    1002       1
     975     972     969     987       4     972     969     987     990       1
     969     972     975     978       6     969     972    -975     978       7
     969     972     975     981       6     969     972    -975     981       7
     969     972     975     984       6     969     972    -975     984       7
     966     963     960     990       1     966     969     972     975       4
     966     969    -987     990       1     963     960     990     987       1
     963     966     969     972       1     963     966    -969     987       1
     960     963     966     969       1     960     990    -987     969       1
     942     939     936     954       4     939     936     954     957       1
     936     939     942     945       6     936     939    -942     945       7
     936     939     942     948       6     936     939    -942     948       7
     936     939     942     951       6     936     939    -942     951       7
     933     930     927     957       1     933     936     939     942       4
     933     936    -954     957       1     930     927     957     954       1
     930     933     936     939       1     930     933    -936     954       1
     927     930     933     936       1     927     957    -954     936       1
     909     906     903     921       4     906     903     921     924       1
     903     906     909     912       6     903     906    -909     912       7
     903     906     909     915       6     903     906    -909     915       7
     903     906     909     918       6     903     906    -909     918       7
     900     897     894     924       1     900     903     906     909       4
     900     903    -921     924       1     897     894     924     921       1
     897     900     903     906       1     897     900    -903     921       1
     894     897     900     903       1     894     924    -921     903       1
     876     873     870     888       4     873     870     888     891       1
     870     873     876     879       6     870     873    -876     879       7
     870     873     876     882       6     870     873    -876     882       7
     870     873     876     885       6     870     873    -876     885       7
     867     864     861     891       1     867     870     873     876       4
     867     870    -888     891       1     864     861     891     888       1
     864     867     870     873       1     864     867    -870     888       1
     861     864     867     870       1     861     891    -888     870       1
     843     840     837     855       4     840     837     855     858       1
     837     840     843     846       6     837     840    -843     846       7
     837     840     843     849       6     837     840    -843     849       7
     837     840     843     852       6     837     840    -843     852       7
     834     831     828     858       1     834     837     840     843       4
     834     837    -855     858       1     831     828     858     855       1
     831     834     837     840       1     831     834    -837     855       1
     828     831     834     837       1     828     858    -855     837       1
     810     807     804     822       4     807     804     822     825       1
     804     807     810     813       6     804     807    -810     813       7
     804     807     810     816       6     804     807    -810     816       7
     804     807     810     819       6     804     807    -810     819       7
     801     798     795     825       1     801     804     807     810       4
     801     804    -822     825       1     798     795     825     822       1
     798     801     804     807       1     798     801    -804     822       1
     795     798     801     804       1     795     825    -822     804       1
     777     774     771     789       4     774     771     789     792       1
     771     774     777     780       6     771     774    -777     780       7
     771     774     777     783       6     771     774    -777     783       7
     771     774     777     786       6     771     774    -777     786       7
     768     765     762     792       1     768     771     774     777       4
     768     771    -789     792       1     765     762     792     789       1
     765     768     771     774       1     765     768    -771     789       1
     762     765     768     771       1     762     792    -789     771       1
     744     741     738     756       4     741     738     756     759       1
     738     741     744     747       6     738     741    -744     747       7
     738     741     744     750       6     738     741    -744     750       7
     738     741     744     753       6     738     741    -744     753       7
     735     732     729     759       1     735     738     741     744       4
     735     738    -756     759       1     732     729     759     756       1
     732     735     738     741       1     732     735    -738     756       1
     729     732     735     738       1     729     759    -756     738       1
     726     723     729     732      10     726     723     729     759      10
     723     729     732     735       1     723     729     759     756       1
     720     717     714     762       5     720     723     729     732      10
     720     723     729     759      10     717     714     762     765      10
     717     714     762     792      10     717     720     723     726      11
     717     720     723     729       5     714     717     720     723      11
     714     762     765     768       1     714     762     792     789       1
     711     708     705     795       5     711     714     717     720      11
     711     714     762     765      10     711     714     762     792      10
     708     705     795     798      10     708     705     795     825      10
     708     711     714     717      11     708     711     714     762       5
     705     708     711     714      11     705     795     798     801       1
     705     795     825     822       1     702     699     696     828       5
     702     705     708     711      11     702     705     795     798      10
     702     705     795     825      10     699     696     828     831      10
     699     696     828     858      10     699     702     705     708      11
     699     702     705     795       5     696     699     702     705      11
     696     828     831     834       1     696     828     858     855       1
     693     690     687     861       5     693     696     699     702      11
     693     696     828     831      10     693     696     828     858      10
     690     687     861     864      10     690     687     861     891      10
     690     693     696     699      11     690     693     696     828       5
     687     690     693     696      11     687     861     864     867       1
     687     861     891     888       1     684     681     678     894       5
     684     687     690     693      11     684     687     861     864      10
     684     687     861     891      10     681     678     894     897      10
     681     678     894     924      10     681     684     687     690      11
     681     684     687     861       5     678     681     684     687      11
     678     894     897     900       1     678     894     924     921       1
     675     672     669     927       5     675     678     681     684      11
     675     678     894     897      10     675     678     894     924      10
     672     669     927     930      10     672     669     927     957      10
     672     675     678     681      11     672     675     678     894       5
     669     672     675     678      11     669     927     930     933       1
     669     927     957     954       1     666     663     660     960       5
     666     669     672     675      11     666     669     927     930      10
     666     669     927     957      10     663     660     960     963      10
     663     660     960     990      10     663     666     669     672      11
     663     666     669     927       5     660     663     666     669      11
     660     960     963     966       1     660     960     990     987       1
     657     654     651     993       5     657     660     663     666      11
     657     660     960     963      10     657     660     960     990      10
     654     651     993     996      10     654     651     993    1023      10
     654     657     660     663      11     654     657     660     960       5
     651     654     657     660      11     651     993     996     999       1
     651     993    1023    1020       1     648     645     642    1026       5
     648     651     654     657      11     648     651     993     996      10
     648     651     993    1023      10     645     642    1026    1029      10
     645     642    1026    1056      10     645     648     651     654      11
     645     648     651     993       5     642     645     648     651      11
     642    1026    1029    1032       1     642    1026    1056    1053       1
     639     636     633    1059       5     639     642     645     648      11
     639     642    1026    1029      10     639     642    1026    1056      10
     636     633    1059    1062      10     636     633    1059    1089      10
     636     639     642     645      11     636     639     642    1026       5
     633     636     639     642      11     633    1059    1062    1065       1
     633    1059    1089    1086       1     630     627     624    1092      11
     630     627     624    1599       5     630     633     636     639      11
     630     633    1059    1062      10     630     633    1059    1089      10
     627     624     621    1632      10     627     624    1092    1095      11
     627     624    1599    1602      10     627     624    1599    1629      10
     627     630     633     636      11     627     630     633    1059       5
     624     621    1632    1635       1     624     627     630     633      11
     624    1092    1095    1098      11     624    1599    1602    1605       1
     624    1599    1629    1626       1     621     624     627     630       5
     621     624    1092    1095       5     621     624    1599    1602       8
     621     624    1599    1629       8     618     615     612    1635       1
     618     621     624     627      10     618     621     624    1092      10
     618     621     624    1599       8     618     621   -1632    1635       1
     615     612    1635    1632       1     615     618     621     624       1
     615     618    -621    1632       1     612     615     618     621       1
     612    1635   -1632     621       1     609     579     111     612       8
     594     591     588     606       4     591     588     606     609       1
     588     591     594     597       6     588     591    -594     597       7
     588     591     594     600       6     588     591    -594     600       7
     588     591     594     603       6     588     591    -594     603       7
     585     582     579     609       1     585     588     591     594       4
     585     588    -606     609       1     582     579     111     612       8
     582     579     609     606       1     582     585     588     591       1
     582     585    -588     606       1     579     111     612     615       8
     579     111     612    1635       8     579     582     585     588       1
     579     609    -606     588       1     561     558     555     573       4
     558     555     573     576       1     555     558     561     564       6
     555     558    -561     564       7     555     558     561     567       6
     555     558    -561     567       7     555     558     561     570       6
     555     558    -561     570       7     552     549     546     576       1
     552     555     558     561       4     552     555    -573     576       1
     549     546     576     573       1     549     552     555     558       1
     549     552    -555     573       1     546     549     552     555       1
     546     576    -573     555       1     528     525     522     540       4
     525     522     540     543       1     522     525     528     531       6
     522     525    -528     531       7     522     525     528     534       6
     522     525    -528     534       7     522     525     528     537       6
     522     525    -528     537       7     519     516     513     543       1
     519     522     525     528       4     519     522    -540     543       1
     516     513     543     540       1     516     519     522     525       1
     516     519    -522     540       1     513     516     519     522       1
     513     543    -540     522       1     495     492     489     507       4
     492     489     507     510       1     489     492     495     498       6
     489     492    -495     498       7     489     492     495     501       6
     489     492    -495     501       7     489     492     495     504       6
     489     492    -495     504       7     486     483     480     510       1
     486     489     492     495       4     486     489    -507     510       1
     483     480     510     507       1     483     486     489     492       1
     483     486    -489     507       1     480     483     486     489       1
     480     510    -507     489       1     462     459     456     474       4
     459     456     474     477       1     456     459     462     465       6
     456     459    -462     465       7     456     459     462     468       6
     456     459    -462     468       7     456     459     462     471       6
     456     459    -462     471       7     453     450     447     477       1
     453     456     459     462       4     453     456    -474     477       1
     450     447     477     474       1     450     453     456     459       1
     450     453    -456     474       1     447     450     453     456       1
     447     477    -474     456       1     429     426     423     441       4
     426     423     441     444       1     423     426     429     432       6
     423     426    -429     432       7     423     426     429     435       6
     423     426    -429     435       7     423     426     429     438       6
     423     426    -429     438       7     420     417     414     444       1
     420     423     426     429       4     420     423    -441     444       1
     417     414     444     441       1     417     420     423     426       1
     417     420    -423     441       1     414     417     420     423       1
     414     444    -441     423       1     396     393     390     408       4
     393     390     408     411       1     390     393     396     399       6
     390     393    -396     399       7     390     393     396     402       6
     390     393    -396     402       7     390     393     396     405       6
     390     393    -396     405       7     387     384     381     411       1
     387     390     393     396       4     387     390    -408     411       1
     384     381     411     408       1     384     387     390     393       1
     384     387    -390     408       1     381     384     387     390       1
     381     411    -408     390       1     363     360     357     375       4
     360     357     375     378       1     357     360     363     366       6
     357     360    -363     366       7     357     360     363     369       6
     357     360    -363     369       7     357     360     363     372       6
     357     360    -363     372       7     354     351     348     378       1
     354     357     360     363       4     354     357    -375     378       1
     351     348     378     375       1     351     354     357     360       1
     351     354    -357     375       1     348     351     354     357       1
     348     378    -375     357       1     330     327     324     342       4
     327     324     342     345       1     324     327     330     333       6
     324     327    -330     333       7     324     327     330     336       6
     324     327    -330     336       7     324     327     330     339       6
     324     327    -330     339       7     321     318     315     345       1
     321     324     327     330       4     321     324    -342     345       1
     318     315     345     342       1     318     321     324     327       1
     318     321    -324     342       1     315     318     321     324       1
     315     345    -342     324       1     297     294     291     309       4
     294     291     309     312       1     291     294     297     300       6
     291     294    -297     300       7     291     294     297     303       6
     291     294    -297     303       7     291     294     297     306       6
     291     294    -297     306       7     288     285     282     312       1
     288     291     294     297       4     288     291    -309     312       1
     285     282     312     309       1     285     288     291     294       1
     285     288    -291     309       1     282     285     288     291       1
     282     312    -309     291       1     264     261     258     276       4
     261     258     276     279       1     258     261     264     267       6
     258     261    -264     267       7     258     261     264     270       6
     258     261    -264     270       7     258     261     264     273       6
     258     261    -264     273       7     255     252     249     279       1
     255     258     261     264       4     255     258    -276     279       1
     252     249     279     276       1     252     255     258     261       1
     252     255    -258     276       1     249     252     255     258       1
     249     279    -276     258       1     231     228     225     243       4
     228     225     243     246       1     225     228     231     234       6
     225     228    -231     234       7     225     228     231     237       6
     225     228    -231     237       7     225     228     231     240       6
     225     228    -231     240       7     222     219     216     246       1
     222     225     228     231       4     222     225    -243     246       1
     219     216     246     243       1     219     222     225     228       1
     219     222    -225     243       1     216     219     222     225       1
     216     246    -243     225       1     213     210     216     219      10
     213     210     216     246      10     210     216     219     222       1
     210     216     246     243       1     207     204     201     249       5
     207     210     216     219      10     207     210     216     246      10
     204     201     249     252      10     204     201     249     279      10
     204     207     210     213      11     204     207     210     216       5
     201     204     207     210      11     201     249     252     255       1
     201     249     279     276       1     198     195     192     282       5
     198     201     204     207      11     198     201     249     252      10
     198     201     249     279      10     195     192     282     285      10
     195     192     282     312      10     195     198     201     204      11
     195     198     201     249       5     192     195     198     201      11
     192     282     285     288       1     192     282     312     309       1
     189     186     183     315       5     189     192     195     198      11
     189     192     282     285      10     189     192     282     312      10
     186     183     315     318      10     186     183     315     345      10
     186     189     192     195      11     186     189     192     282       5
     183     186     189     192      11     183     315     318     321       1
     183     315     345     342       1     180     177     174     348       5
     180     183     186     189      11     180     183     315     318      10
     180     183     315     345      10     177     174     348     351      10
     177     174     348     378      10     177     180     183     186      11
     177     180     183     315       5     174     177     180     183      11
     174     348     351     354       1     174     348     378     375       1
     171     168     165     381       5     171     174     177     180      11
     171     174     348     351      10     171     174     348     378      10
     168     165     381     384      10     168     165     381     411      10
     168     171     174     177      11     168     171     174     348       5
     165     168     171     174      11     165     381     384     387       1
     165     381     411     408       1     162     159     156     414       5
     162     165     168     171      11     162     165     381     384      10
     162     165     381     411      10     159     156     414     417      10
     159     156     414     444      10     159     162     165     168      11
     159     162     165     381       5     156     159     162     165      11
     156     414     417     420       1     156     414     444     441       1
     153     150     147     447       5     153     156     159     162      11
     153     156     414     417      10     153     156     414     444      10
     150     147     447     450      10     150     147     447     477      10
     150     153     156     159      11     150     153     156     414       5
     147     150     153     156      11     147     447     450     453       1
     147     447     477     474       1     144     141     138     480       5
     144     147     150     153      11     144     147     447     450      10
     144     147     447     477      10     141     138     480     483      10
     141     138     480     510      10     141     144     147     150      11
     141     144     147     447       5     138     141     144     147      11
     138     480     483     486       1     138     480     510     507       1
     135     132     129     513       5     135     138     141     144      11
     135     138     480     483      10     135     138     480     510      10
     132     129     513     516      10     132     129     513     543      10
     132     135     138     141      11     132     135     138     480       5
     129     132     135     138      11     129     513     516     519       1
     129     513     543     540       1     126     123     120     546       5
     126     129     132     135      11     126     129     513     516      10
     126     129     513     543      10     123     120     546     549      10
     123     120     546     576      10     123     126     129     132      11
     123     126     129     513       5     120     123     126     129      11
     120     546     549     552       1     120     546     576     573       1
     117     114     111     579       5     117     114     111     612       5
     117     120     123     126      11     117     120     546     549      10
     117     120     546     576      10     114     111     579     582      10
     114     111     579     609      10     114     111     612     615      10
     114     111     612    1635      10     114     117     120     123      11
     114     117     120     546       5     111     114     117     120      11
     111     579     582     585       1     111     579     609     606       1
     111     612     615     618       1     111     612    1635    1632       1
     108     105     102    1638       5     108     111     114     117      11
     108     111     579     582      10     108     111     579     609      10
     108     111     612     615      10     108     111     612    1635      10
     105     102    1638    1641      10     105     102    1638    1668      10
     105     108     111     114      11     105     108     111     579       5
     105     108     111     612       5     102     105     108     111      11
     102    1638    1641    1644       1     102    1638    1668    1665       1
      99      96      93    1671       5      99     102     105     108      11
      99     102    1638    1641      10      99     102    1638    1668      10
      96      93    1671    1674      10      96      93    1671    1701      10
      96      99     102     105      11      96      99     102    1638       5
      93      96      99     102      11      93    1671    1674    1677       1
      93    1671    1701    1698       1      90      87      84    1704       5
      90      93      96      99      11      90      93    1671    1674      10
      90      93    1671    1701      10      87      84    1704    1707      10
      87      84    1704    1734      10      87      90      93      96      11
      87      90      93    1671       5      84      87      90      93      11
      84    1704    1707    1710       1      84    1704    1734    1731       1
      81      78      75    1737       5      81      84      87      90      11
      81      84    1704    1707      10      81      84    1704    1734      10
      78      75    1737    1740      10      78      75    1737    1767      10
      78      81      84      87      11      78      81      84    1704       5
      75      78      81      84      11      75    1737    1740    1743       1
      75    1737    1767    1764       1      72      69      66    1770       5
      72      75      78      81      11      72      75    1737    1740      10
      72      75    1737    1767      10      69      66    1770    1773      10
      69      66    1770    1800      10      69      72      75      78      11
      69      72      75    1737       5      66      69      72      75      11
      66    1770    1773    1776       1      66    1770    1800    1797       1
      63      60      57    1803       5      63      66      69      72      11
      63      66    1770    1773      10      63      66    1770    1800      10
      60      57    1803    1806      10      60      57    1803    1833      10
      60      63      66      69      11      60      63      66    1770       5
      57      60      63      66      11      57    1803    1806    1809       1
      57    1803    1833    1830       1      54      51      48    1836       5
      54      57      60      63      11      54      57    1803    1806      10
      54      57    1803    1833      10      51      48    1836    1839      10
      51      48    1836    1866      10      51      54      57      60      11
      51      54      57    1803       5      48      51      54      57      11
      48    1836    1839    1842       1      48    1836    1866    1863       1
      45      42      39    1869       5      45      48      51      54      11
      45      48    1836    1839      10      45      48    1836    1866      10
      42      39    1869    1872      10      42      39    1869    1899      10
      42      45      48      51      11      42      45      48    1836       5
      39      42      45      48      11      39    1869    1872    1875       1
      39    1869    1899    1896       1      36      33      30    1902       5
      36      39      42      45      11      36      39    1869    1872      10
      36      39    1869    1899      10      33      30    1902    1905      10
      33      30    1902    1932      10      33      36      39      42      11
      33      36      39    1869       5      30      33      36      39      11
      30    1902    1905    1908       1      30    1902    1932    1929       1
      27      24      21    1935       5      27      30      33      36      11
      27      30    1902    1905      10      27      30    1902    1932      10
      24      21    1935    1938      10      24      21    1935    1965      10
      24      27      30      33      11      24      27      30    1902       5
      21      24      27      30      11      21    1935    1938    1941       1
      21    1935    1965    1962       1      18      15      12    1968       5
      18      21      24      27      11      18      21    1935    1938      10
      18      21    1935    1965      10      15      12    1968    1971      10
      15      12    1968    1998      10      15      18      21      24      11
      15      18      21    1935       5      12      15      18      21      11
      12    1968    1971    1974       1      12    1968    1998    1995       1
       9       6       3    2001       5       9      12      15      18      11
       9      12    1968    1971      10       9      12    1968    1998      10
       6       3    2001    2004      10       6       3    2001    2031      10
       6       9      12      15      11       6       9      12    1968       5
       3       6       9      12      11       3    2001    2004    2007       1
       3    2001    2031    2028       1       0       3       6       9      11
       0       3    2001    2004      10       0       3    2001    2031      10
    5001    4995    4998    5004      11    5001    5007    5013    5016      11
    4998    4995    5001    5007      11    4995    4998    5004    5010      11
    4995    5001    5007    5013      11    4992    4932    5010    5004      12
    4989    4932    5010    5004      12    4986    4932    5010    5004      12
    4983    5016    5013    5007       5    4980    5016    5013    5007       5
    4977    5016    5013    5007       5    4974    5013    5007    5001       5
    4974    5013    5016    4977      13    4974    5013    5016    4980      13
    4974    5013    5016    4983      13    4971    5013    5007    5001       5
    4971    5013    5016    4977      13    4971    5013    5016    4980      13
    4971    5013    5016    4983      13    4968    5010    4932    4986      12
    4968    5010    4932    4989      12    4968    5010    4932    4992      12
    4968    5010    5004    4998       5    4965    5010    4932    4986      12
    4965    5010    4932    4989      12    4965    5010    4932    4992      12
    4965    5010    5004    4998       5    4962    5007    5001    4995       5
    4962    5007    5013    4971      13    4962    5007    5013    4974      13
    4962    5007    5013    5016       5    4959    5007    5001    4995       5
    4959    5007    5013    4971      13    4959    5007    5013    4974      13
    4959    5007    5013    5016       5    4956    5004    4998    4995       5
    4956    5004    5010    4965      13    4956    5004    5010    4968      13
    4953    5004    4998    4995       5    4953    5004    5010    4965      13
    4953    5004    5010    4968      13    4950    5001    4995    4998       5
    4950    5001    5007    4959      13    4950    5001    5007    4962      13
    4950    5001    5007    5013       5    4947    5001    4995    4998       5
    4947    5001    5007    4959      13    4947    5001    5007    4962      13
    4947    5001    5007    5013       5    4944    4998    4995    5001       5
    4944    4998    5004    4953      13    4944    4998    5004    4956      13
    4944    4998    5004    5010       5    4941    4998    4995    5001       5
    4941    4998    5004    4953      13    4941    4998    5004    4956      13
    4941    4998    5004    5010       5    4938    4995    4998    4941      13
    4938    4995    4998    4944      13    4938    4995    4998    5004       5
    4938    4995    5001    4947      13    4938    4995    5001    4950      13
    4938    4995    5001    5007       5    4935    4995    4998    4941      13
    4935    4995    4998    4944      13    4935    4995    4998    5004       5
    4935    4995    5001    4947      13    4935    4995    5001    4950      13
    4935    4995    5001    5007       5    4932    5010    5004    4953       5
    4932    5010    5004    4956       5    4932    5010    5004    4998       5
    2007    2028   -2010   -2013      14       3    2004   -2001   -2031      14
    1980    1974   -1977   -1995      14      12    1971   -1968   -1998      14
    1947    1941   -1944   -1962      14      21    1938   -1935   -1965      14
    1914    1908   -1911   -1929      14      30    1905   -1902   -1932      14
    1881    1875   -1878   -1896      14      39    1872   -1869   -1899      14
    1848    1842   -1845   -1863      14      48    1839   -1836   -1866      14
    1815    1809   -1812   -1830      14      57    1806   -1803   -1833      14
    1782    1776   -1779   -1797      14      66    1773   -1770   -1800      14
    1749    1743   -1746   -1764      14      75    1740   -1737   -1767      14
    1716    1710   -1713   -1731      14      84    1707   -1704   -1734      14
    1683    1677   -1680   -1698      14      93    1674   -1671   -1701      14
    1650    1644   -1647   -1665      14     102    1641   -1638   -1668      14
    1611    1605   -1608   -1626      14     624    1602   -1599   -1629      14
    1578    1572   -1575   -1593      14    1098    1569   -1566   -1596      14
    1545    1539   -1542   -1560      14    1107    1536   -1533   -1563      14
    1512    1506   -1509   -1527      14    1116    1503   -1500   -1530      14
    1479    1473   -1476   -1494      14    1125    1470   -1467   -1497      14
    1446    1440   -1443   -1461      14    1134    1437   -1434   -1464      14
    1413    1407   -1410   -1428      14    1143    1404   -1401   -1431      14
    1380    1374   -1377   -1395      14    1152    1371   -1368   -1398      14
    1347    1341   -1344   -1362      14    1161    1338   -1335   -1365      14
    1314    1308   -1311   -1329      14    1170    1305   -1302   -1332      14
    1281    1275   -1278   -1296      14    1179    1272   -1269   -1299      14
    1248    1242   -1245   -1263      14    1188    1239   -1236   -1266      14
    1215    1209   -1212   -1230      14    1197    1206   -1203   -1233      14
    1071    1065   -1068   -1086      14     633    1062   -1059   -1089      14
    1038    1032   -1035   -1053      14     642    1029   -1026   -1056      14
    1005     999   -1002   -1020      14     651     996    -993   -1023      14
     972     966    -969    -987      14     660     963    -960    -990      14
     939     933    -936    -954      14     669     930    -927    -957      14
     906     900    -903    -921      14     678     897    -894    -924      14
     873     867    -870    -888      14     687     864    -861    -891      14
     840     834    -837    -855      14     696     831    -828    -858      14
     807     801    -804    -822      14     705     798    -795    -825      14
     774     768    -771    -789      14     714     765    -762    -792      14
     741     735    -738    -756      14     723     732    -729    -759      14
     624     618    -621   -1632      14     111     615    -612   -1635      14
     591     585    -588    -606      14     111     582    -579    -609      14
     558     552    -555    -573      14     120     549    -546    -576      14
     525     519    -522    -540      14     129     516    -513    -543      14
     492     486    -489    -507      14     138     483    -480    -510      14
     459     453    -456    -474      14     147     450    -447    -477      14
     426     420    -423    -441      14     156     417    -414    -444      14
     393     387    -390    -408      14     165     384    -381    -411      14
     360     354    -357    -375      14     174     351    -348    -378      14
     327     321    -324    -342      14     183     318    -315    -345      14
     294     288    -291    -309      14     192     285    -282    -312      14
     261     255    -258    -276      14     201     252    -249    -279      14
     228     222    -225    -243      14     210     219    -216    -246      14
%FLAG EXCLUDED_ATOMS_LIST                                                       
%FORMAT(10I8)                                                                   
       2       3       4     668     669     678     679     680     681     682
     683     684       3       4       5     668     669     670     677     678
     679     680     681     682     683     684     685     686    1630    1644
       4       5       6     657     668     669     678     679     680     681
     682     683     684     685     686     687       5       6       7     657
     658     667     668     682     683     684     685     686     687     688
     689       6       7       8     657     658     659     666     667     683
     684     685     686     687     688     689     690     691    1615    1629
       7       8       9     646     657     658     667     685     686     687
     688     689     690     691     692       8       9      10     646     647
     656     657     687     688     689     690     691     692     693     694
       9      10      11     646     647     648     655     656     688     689
     690     691     692     693     694     695     696    1600    1614      10
      11      12     635     646     647     656     690     691     692     693
     694     695     696     697      11      12      13     635     636     645
     646     692     693     694     695     696     697     698     699      12
      13      14     635     636     637     644     645     693     694     695
     696     697     698     699     700     701    1585    1599      13      14
      15     624     635     636     645     695     696     697     698     699
     700     701     702      14      15      16     624     625     634     635
     697     698     699     700     701     702     703     704      15      16
      17     624     625     626     633     634     698     699     700     701
     702     703     704     705     706    1570    1584      16      17      18
     613     624     625     634     700     701     702     703     704     705
     706     707      17      18      19     613     614     623     624     702
     703     704     705     706     707     708     709      18      19      20
     613     614     615     622     623     703     704     705     706     707
     708     709     710     711    1555    1569      19      20      21     602
     613     614     623     705     706     707     708     709     710     711
     712      20      21      22     602     603     612     613     707     708
     709     710     711     712     713     714      21      22      23     602
     603     604     611     612     708     709     710     711     712     713
     714     715     716    1540    1554      22      23      24     591     602
     603     612     710     711     712     713     714     715     716     717
      23      24      25     591     592     601     602     712     713     714
     715     716     717     718     719      24      25      26     591     592
     593     600     601     713     714     715     716     717     718     719
     720     721    1525    1539      25      26      27     580     591     592
     601     715     716     717     718     719     720     721     722      26
      27      28     580     581     590     591     717     718     719     720
     721     722     723     724      27      28      29     580     581     582
     589     590     718     719     720     721     722     723     724     725
     726    1510    1524      28      29      30     569     580     581     590
     720     721     722     723     724     725     726     727      29      30
      31     569     570     579     580     722     723     724     725     726
     727     728     729      30      31      32     569     570     571     578
     579     723     724     725     726     727     728     729     730     731
    1495    1509      31      32      33     558     569     570     579     725
     726     727     728     729     730     731     732      32      33      34
     558     559     568     569     727     728     729     730     731     732
     733     734      33      34      35     558     559     560     567     568
     728     729     730     731     732     733     734     735     736    1480
    1494      34      35      36     547     558     559     568     730     731
     732     733     734     735     736     737      35      36      37     547
     548     557     558     732     733     734     735     736     737     738
     739      36      37      38     547     548     549     556     557     733
     734     735     736     737     738     739     740     741    1465    1479
      37      38      39     194     205     547     548     557     735     736
     737     738     739     740     741      38      39      40     194     195
     204     205     206     546     547     737     738     739     740     741
     742     743      39      40      41     194     195     196     203     204
     205     206     207     545     546     738     739     740     741     742
     743     744     745     965     979     980    1464      40      41      42
     183     194     195     204     205     206     546     740     741     742
     743     744     745     746      41      42      43     183     184     193
     194     205     742     743     744     745     746     747     748      42
      43      44     183     184     185     192     193     742     743     744
     745     746     747     748     749     750     950     964      43      44
      45     172     183     184     193     744     745     746     747     748
     749     750     751      44      45      46     172     173     182     183
     746     747     748     749     750     751     752     753      45      46
      47     172     173     174     181     182     747     748     749     750
     751     752     753     754     755     935     949      46      47      48
     161     172     173     182     749     750     751     752     753     754
     755     756      47      48      49     161     162     171     172     751
     752     753     754     755     756     757     758      48      49      50
     161     162     163     170     171     752     753     754     755     756
     757     758     759     760     920     934      49      50      51     150
     161     162     171     754     755     756     757     758     759     760
     761      50      51      52     150     151     160     161     756     757
     758     759     760     761     762     763      51      52      53     150
     151     152     159     160     757     758     759     760     761     762
     763     764     765     905     919      52      53      54     139     150
     151     160     759     760     761     762     763     764     765     766
      53      54      55     139     140     149     150     761     762     763
     764     765     766     767     768      54      55      56     139     140
     141     148     149     762     763     764     765     766     767     768
     769     770     890     904      55      56      57     128     139     140
     149     764     765     766     767     768     769     770     771      56
      57      58     128     129     138     139     766     767     768     769
     770     771     772     773      57      58      59     128     129     130
     137     138     767     768     769     770     771     772     773     774
     775     875     889      58      59      60     117     128     129     138
     769     770     771     772     773     774     775     776      59      60
      61     117     118     127     128     771     772     773     774     775
     776     777     778      60      61      62     117     118     119     126
     127     772     773     774     775     776     777     778     779     780
     860     874      61      62      63     106     117     118     127     774
     775     776     777     778     779     780     781      62      63      64
     106     107     116     117     776     777     778     779     780     781
     782     783      63      64      65     106     107     108     115     116
     777     778     779     780     781     782     783     784     785     845
     859      64      65      66      95     106     107     116     779     780
     781     782     783     784     785     786      65      66      67      95
      96     105     106     781     782     783     784     785     786     787
     788      66      67      68      95      96      97     104     105     782
     783     784     785     786     787     788     789     790     830     844
      67      68      69      84      95      96     105     784     785     786
     787     788     789     790     791      68      69      70      84      85
      94      95     786     787     788     789     790     791     792     793
      69      70      71      84      85      86      93      94     787     788
     789     790     791     792     793     794     795     815     829      70
      71      72      73      84      85      94     789     790     791     792
     793     794     795     796      71      72      73      74      83      84
     791     792     793     794     795     796     797     798     799      72
      73      74      75      82      83     792     793     794     795     796
     797     798     799     800     814      73      74      83     794     795
     796     797     798     799      74      75      76      82      83     794
     795     796     797     798     799     800     801     813     814      75
      76      77      82      83     796     800     801     814      76      77
      78      82      83     800     801     802     803     813      77      78
      79      80      81      82      83     800     801     802     803     813
     814      78      79      80      81      82      83     801     802     803
     804     805     806     807     808     809     810     811     812     813
      79      80      81      82     802     803     804     805     806     807
     808     809     810     811     812      80      81     802     803     804
     805     806     807     808     809     810     811     812      81     802
     803     804     805     806     807     808     809     810     811     812
     802     803     804     805     806     807     808     809     810     811
     812      83     801     802     803     813     814     796     800     813
     814      85      86      87      93      94     789     790     791     792
     793     815     816     828     829      86      87      88      93      94
     791     815     816     829      87      88      89      93      94     815
     816     817     818     828      88      89      90      91      92      93
      94     815     816     817     818     828     829      89      90      91
      92      93      94     816     817     818     819     820     821     822
     823     824     825     826     827     828      90      91      92      93
     817     818     819     820     821     822     823     824     825     826
     827      91      92     817     818     819     820     821     822     823
     824     825     826     827      92     817     818     819     820     821
     822     823     824     825     826     827     817     818     819     820
     821     822     823     824     825     826     827      94     816     817
     818     828     829     791     815     828     829      96      97      98
     104     105     784     785     786     787     788     830     831     843
     844      97      98      99     104     105     786     830     831     844
      98      99     100     104     105     830     831     832     833     843
      99     100     101     102     103     104     105     830     831     832
     833     843     844     100     101     102     103     104     105     831
     832     833     834     835     836     837     838     839     840     841
     842     843     101     102     103     104     832     833     834     835
     836     837     838     839     840     841     842     102     103     832
     833     834     835     836     837     838     839     840     841     842
     103     832     833     834     835     836     837     838     839     840
     841     842     832     833     834     835     836     837     838     839
     840     841     842     105     831     832     833     843     844     786
     830     843     844     107     108     109     115     116     779     780
     781     782     783     845     846     858     859     108     109     110
     115     116     781     845     846     859     109     110     111     115
     116     845     846     847     848     858     110     111     112     113
     114     115     116     845     846     847     848     858     859     111
     112     113     114     115     116     846     847     848     849     850
     851     852     853     854     855     856     857     858     112     113
     114     115     847     848     849     850     851     852     853     854
     855     856     857     113     114     847     848     849     850     851
     852     853     854     855     856     857     114     847     848     849
     850     851     852     853     854     855     856     857     847     848
     849     850     851     852     853     854     855     856     857     116
     846     847     848     858     859     781     845     858     859     118
     119     120     126     127     774     775     776     777     778     860
     861     873     874     119     120     121     126     127     776     860
     861     874     120     121     122     126     127     860     861     862
     863     873     121     122     123     124     125     126     127     860
     861     862     863     873     874     122     123     124     125     126
     127     861     862     863     864     865     866     867     868     869
     870     871     872     873     123     124     125     126     862     863
     864     865     866     867     868     869     870     871     872     124
     125     862     863     864     865     866     867     868     869     870
     871     872     125     862     863     864     865     866     867     868
     869     870     871     872     862     863     864     865     866     867
     868     869     870     871     872     127     861     862     863     873
     874     776     860     873     874     129     130     131     137     138
     769     770     771     772     773     875     876     888     889     130
     131     132     137     138     771     875     876     889     131     132
     133     137     138     875     876     877     878     888     132     133
     134     135     136     137     138     875     876     877     878     888
     889     133     134     135     136     137     138     876     877     878
     879     880     881     882     883     884     885     886     887     888
     134     135     136     137     877     878     879     880     881     882
     883     884     885     886     887     135     136     877     878     879
     880     881     882     883     884     885     886     887     136     877
     878     879     880     881     882     883     884     885     886     887
     877     878     879     880     881     882     883     884     885     886
     887     138     876     877     878     888     889     771     875     888
     889     140     141     142     148     149     764     765     766     767
     768     890     891     903     904     141     142     143     148     149
     766     890     891     904     142     143     144     148     149     890
     891     892     893     903     143     144     145     146     147     148
     149     890     891     892     893     903     904     144     145     146
     147     148     149     891     892     893     894     895     896     897
     898     899     900     901     902     903     145     146     147     148
     892     893     894     895     896     897     898     899     900     901
     902     146     147     892     893     894     895     896     897     898
     899     900     901     902     147     892     893     894     895     896
     897     898     899     900     901     902     892     893     894     895
     896     897     898     899     900     901     902     149     891     892
     893     903     904     766     890     903     904     151     152     153
     159     160     759     760     761     762     763     905     906     918
     919     152     153     154     159     160     761     905     906     919
     153     154     155     159     160     905     906     907     908     918
     154     155     156     157     158     159     160     905     906     907
     908     918     919     155     156     157     158     159     160     906
     907     908     909     910     911     912     913     914     915     916
     917     918     156     157     158     159     907     908     909     910
     911     912     913     914     915     916     917     157     158     907
     908     909     910     911     912     913     914     915     916     917
     158     907     908     909     910     911     912     913     914     915
     916     917     907     908     909     910     911     912     913     914
     915     916     917     160     906     907     908     918     919     761
     905     918     919     162     163     164     170     171     754     755
     756     757     758     920     921     933     934     163     164     165
     170     171     756     920     921     934     164     165     166     170
     171     920     921     922     923     933     165     166     167     168
     169     170     171     920     921     922     923     933     934     166
     167     168     169     170     171     921     922     923     924     925
     926     927     928     929     930     931     932     933     167     168
     169     170     922     923     924     925     926     927     928     929
     930     931     932     168     169     922     923     924     925     926
     927     928     929     930     931     932     169     922     923     924
     925     926     927     928     929     930     931     932     922     923
     924     925     926     927     928     929     930     931     932     171
     921     922     923     933     934     756     920     933     934     173
     174     175     181     182     749     750     751     752     753     935
     936     948     949     174     175     176     181     182     751     935
     936     949     175     176     177     181     182     935     936     937
     938     948     176     177     178     179     180     181     182     935
     936     937     938     948     949     177     178     179     180     181
     182     936     937     938     939     940     941     942     943     944
     945     946     947     948     178     179     180     181     937     938
     939     940     941     942     943     944     945     946     947     179
     180     937     938     939     940     941     942     943     944     945
     946     947     180     937     938     939     940     941     942     943
     944     945     946     947     937     938     939     940     941     942
     943     944     945     946     947     182     936     937     938     948
     949     751     935     948     949     184     185     186     192     193
     744     745     746     747     748     950     951     963     964     185
     186     187     192     193     746     950     951     964     186     187
     188     192     193     950     951     952     953     963     187     188
     189     190     191     192     193     950     951     952     953     963
     964     188     189     190     191     192     193     951     952     953
     954     955     956     957     958     959     960     961     962     963
     189     190     191     192     952     953     954     955     956     957
     958     959     960     961     962     190     191     952     953     954
     955     956     957     958     959     960     961     962     191     952
     953     954     955     956     957     958     959     960     961     962
     952     953     954     955     956     957     958     959     960     961
     962     193     951     952     953     963     964     746     950     963
     964     195     196     197     203     204     205     206     546     740
     741     742     743     965     966     978     979     196     197     198
     203     204     205     965     966     979     197     198     199     203
     204     965     966     967     968     978     198     199     200     201
     202     203     204     965     966     967     968     978     979     199
     200     201     202     203     204     966     967     968     969     970
     971     972     973     974     975     976     977     978     200     201
     202     203     967     968     969     970     971     972     973     974
     975     976     977     201     202     967     968     969     970     971
     972     973     974     975     976     977     202     967     968     969
     970     971     972     973     974     975     976     977     967     968
     969     970     971     972     973     974     975     976     977     204
     966     967     968     978     979     205     965     978     979     206
     207     208     545     546     740     741     742     743     980     981
    1463    1464     207     208     209     545     546     980     981    1464
     208     209     210     365     534     545     546     980     981    1463
     209     210     211     365     366     534     535     544     545     546
     980     981     982     983    1205    1206    1463    1464     210     211
     212     365     366     367     534     535     536     543     544     545
     546     981     982     983     984     985    1205    1206    1207    1208
    1448    1462    1463     211     212     213     354     365     366     534
     535     544     545     982     983     984     985     986    1205    1206
     212     213     214     354     355     364     365     534     982     983
     984     985     986     987     988     213     214     215     354     355
     356     363     364     982     983     984     985     986     987     988
     989     990    1190    1204     214     215     216     343     354     355
     364     984     985     986     987     988     989     990     991     215
     216     217     343     344     353     354     986     987     988     989
     990     991     992     993     216     217     218     343     344     345
     352     353     987     988     989     990     991     992     993     994
     995    1175    1189     217     218     219     332     343     344     353
     989     990     991     992     993     994     995     996     218     219
     220     332     333     342     343     991     992     993     994     995
     996     997     998     219     220     221     332     333     334     341
     342     992     993     994     995     996     997     998     999    1000
    1160    1174     220     221     222     321     332     333     342     994
     995     996     997     998     999    1000    1001     221     222     223
     321     322     331     332     996     997     998     999    1000    1001
    1002    1003     222     223     224     321     322     323     330     331
     997     998     999    1000    1001    1002    1003    1004    1005    1145
    1159     223     224     225     310     321     322     331     999    1000
    1001    1002    1003    1004    1005    1006     224     225     226     310
     311     320     321    1001    1002    1003    1004    1005    1006    1007
    1008     225     226     227     310     311     312     319     320    1002
    1003    1004    1005    1006    1007    1008    1009    1010    1130    1144
     226     227     228     299     310     311     320    1004    1005    1006
    1007    1008    1009    1010    1011     227     228     229     299     300
     309     310    1006    1007    1008    1009    1010    1011    1012    1013
     228     229     230     299     300     301     308     309    1007    1008
    1009    1010    1011    1012    1013    1014    1015    1115    1129     229
     230     231     288     299     300     309    1009    1010    1011    1012
    1013    1014    1015    1016     230     231     232     288     289     298
     299    1011    1012    1013    1014    1015    1016    1017    1018     231
     232     233     288     289     290     297     298    1012    1013    1014
    1015    1016    1017    1018    1019    1020    1100    1114     232     233
     234     277     288     289     298    1014    1015    1016    1017    1018
    1019    1020    1021     233     234     235     277     278     287     288
    1016    1017    1018    1019    1020    1021    1022    1023     234     235
     236     277     278     279     286     287    1017    1018    1019    1020
    1021    1022    1023    1024    1025    1085    1099     235     236     237
     266     277     278     287    1019    1020    1021    1022    1023    1024
    1025    1026     236     237     238     266     267     276     277    1021
    1022    1023    1024    1025    1026    1027    1028     237     238     239
     266     267     268     275     276    1022    1023    1024    1025    1026
    1027    1028    1029    1030    1070    1084     238     239     240     255
     266     267     276    1024    1025    1026    1027    1028    1029    1030
    1031     239     240     241     255     256     265     266    1026    1027
    1028    1029    1030    1031    1032    1033     240     241     242     255
     256     257     264     265    1027    1028    1029    1030    1031    1032
    1033    1034    1035    1055    1069     241     242     243     244     255
     256     265    1029    1030    1031    1032    1033    1034    1035    1036
     242     243     244     245     254     255    1031    1032    1033    1034
    1035    1036    1037    1038    1039     243     244     245     246     253
     254    1032    1033    1034    1035    1036    1037    1038    1039    1040
    1054     244     245     254    1034    1035    1036    1037    1038    1039
     245     246     247     253     254    1034    1035    1036    1037    1038
    1039    1040    1041    1053    1054     246     247     248     253     254
    1036    1040    1041    1054     247     248     249     253     254    1040
    1041    1042    1043    1053     248     249     250     251     252     253
     254    1040    1041    1042    1043    1053    1054     249     250     251
     252     253     254    1041    1042    1043    1044    1045    1046    1047
    1048    1049    1050    1051    1052    1053     250     251     252     253
    1042    1043    1044    1045    1046    1047    1048    1049    1050    1051
    1052     251     252    1042    1043    1044    1045    1046    1047    1048
    1049    1050    1051    1052     252    1042    1043    1044    1045    1046
    1047    1048    1049    1050    1051    1052    1042    1043    1044    1045
    1046    1047    1048    1049    1050    1051    1052     254    1041    1042
    1043    1053    1054    1036    1040    1053    1054     256     257     258
     264     265    1029    1030    1031    1032    1033    1055    1056    1068
    1069     257     258     259     264     265    1031    1055    1056    1069
     258     259     260     264     265    1055    1056    1057    1058    1068
     259     260     261     262     263     264     265    1055    1056    1057
    1058    1068    1069     260     261     262     263     264     265    1056
    1057    1058    1059    1060    1061    1062    1063    1064    1065    1066
    1067    1068     261     262     263     264    1057    1058    1059    1060
    1061    1062    1063    1064    1065    1066    1067     262     263    1057
    1058    1059    1060    1061    1062    1063    1064    1065    1066    1067
     263    1057    1058    1059    1060    1061    1062    1063    1064    1065
    1066    1067    1057    1058    1059    1060    1061    1062    1063    1064
    1065    1066    1067     265    1056    1057    1058    1068    1069    1031
    1055    1068    1069     267     268     269     275     276    1024    1025
    1026    1027    1028    1070    1071    1083    1084     268     269     270
     275     276    1026    1070    1071    1084     269     270     271     275
     276    1070    1071    1072    1073    1083     270     271     272     273
     274     275     276    1070    1071    1072    1073    1083    1084     271
     272     273     274     275     276    1071    1072    1073    1074    1075
    1076    1077    1078    1079    1080    1081    1082    1083     272     273
     274     275    1072    1073    1074    1075    1076    1077    1078    1079
    1080    1081    1082     273     274    1072    1073    1074    1075    1076
    1077    1078    1079    1080    1081    1082     274    1072    1073    1074
    1075    1076    1077    1078    1079    1080    1081    1082    1072    1073
    1074    1075    1076    1077    1078    1079    1080    1081    1082     276
    1071    1072    1073    1083    1084    1026    1070    1083    1084     278
     279     280     286     287    1019    1020    1021    1022    1023    1085
    1086    1098    1099     279     280     281     286     287    1021    1085
    1086    1099     280     281     282     286     287    1085    1086    1087
    1088    1098     281     282     283     284     285     286     287    1085
    1086    1087    1088    1098    1099     282     283     284     285     286
     287    1086    1087    1088    1089    1090    1091    1092    1093    1094
    1095    1096    1097    1098     283     284     285     286    1087    1088
    1089    1090    1091    1092    1093    1094    1095    1096    1097     284
     285    1087    1088    1089    1090    1091    1092    1093    1094    1095
    1096    1097     285    1087    1088    1089    1090    1091    1092    1093
    1094    1095    1096    1097    1087    1088    1089    1090    1091    1092
    1093    1094    1095    1096    1097     287    1086    1087    1088    1098
    1099    1021    1085    1098    1099     289     290     291     297     298
    1014    1015    1016    1017    1018    1100    1101    1113    1114     290
     291     292     297     298    1016    1100    1101    1114     291     292
     293     297     298    1100    1101    1102    1103    1113     292     293
     294     295     296     297     298    1100    1101    1102    1103    1113
    1114     293     294     295     296     297     298    1101    1102    1103
    1104    1105    1106    1107    1108    1109    1110    1111    1112    1113
     294     295     296     297    1102    1103    1104    1105    1106    1107
    1108    1109    1110    1111    1112     295     296    1102    1103    1104
    1105    1106    1107    1108    1109    1110    1111    1112     296    1102
    1103    1104    1105    1106    1107    1108    1109    1110    1111    1112
    1102    1103    1104    1105    1106    1107    1108    1109    1110    1111
    1112     298    1101    1102    1103    1113    1114    1016    1100    1113
    1114     300     301     302     308     309    1009    1010    1011    1012
    1013    1115    1116    1128    1129     301     302     303     308     309
    1011    1115    1116    1129     302     303     304     308     309    1115
    1116    1117    1118    1128     303     304     305     306     307     308
     309    1115    1116    1117    1118    1128    1129     304     305     306
     307     308     309    1116    1117    1118    1119    1120    1121    1122
    1123    1124    1125    1126    1127    1128     305     306     307     308
    1117    1118    1119    1120    1121    1122    1123    1124    1125    1126
    1127     306     307    1117    1118    1119    1120    1121    1122    1123
    1124    1125    1126    1127     307    1117    1118    1119    1120    1121
    1122    1123    1124    1125    1126    1127    1117    1118    1119    1120
    1121    1122    1123    1124    1125    1126    1127     309    1116    1117
    1118    1128    1129    1011    1115    1128    1129     311     312     313
     319     320    1004    1005    1006    1007    1008    1130    1131    1143
    1144     312     313     314     319     320    1006    1130    1131    1144
     313     314     315     319     320    1130    1131    1132    1133    1143
     314     315     316     317     318     319     320    1130    1131    1132
    1133    1143    1144     315     316     317     318     319     320    1131
    1132    1133    1134    1135    1136    1137    1138    1139    1140    1141
    1142    1143     316     317     318     319    1132    1133    1134    1135
    1136    1137    1138    1139    1140    1141    1142     317     318    1132
    1133    1134    1135    1136    1137    1138    1139    1140    1141    1142
     318    1132    1133    1134    1135    1136    1137    1138    1139    1140
    1141    1142    1132    1133    1134    1135    1136    1137    1138    1139
    1140    1141    1142     320    1131    1132    1133    1143    1144    1006
    1130    1143    1144     322     323     324     330     331     999    1000
    1001    1002    1003    1145    1146    1158    1159     323     324     325
     330     331    1001    1145    1146    1159     324     325     326     330
     331    1145    1146    1147    1148    1158     325     326     327     328
     329     330     331    1145    1146    1147    1148    1158    1159     326
     327     328     329     330     331    1146    1147    1148    1149    1150
    1151    1152    1153    1154    1155    1156    1157    1158     327     328
     329     330    1147    1148    1149    1150    1151    1152    1153    1154
    1155    1156    1157     328     329    1147    1148    1149    1150    1151
    1152    1153    1154    1155    1156    1157     329    1147    1148    1149
    1150    1151    1152    1153    1154    1155    1156    1157    1147    1148
    1149    1150    1151    1152    1153    1154    1155    1156    1157     331
    1146    1147    1148    1158    1159    1001    1145    1158    1159     333
     334     335     341     342     994     995     996     997     998    1160
    1161    1173    1174     334     335     336     341     342     996    1160
    1161    1174     335     336     337     341     342    1160    1161    1162
    1163    1173     336     337     338     339     340     341     342    1160
    1161    1162    1163    1173    1174     337     338     339     340     341
     342    1161    1162    1163    1164    1165    1166    1167    1168    1169
    1170    1171    1172    1173     338     339     340     341    1162    1163
    1164    1165    1166    1167    1168    1169    1170    1171    1172     339
     340    1162    1163    1164    1165    1166    1167    1168    1169    1170
    1171    1172     340    1162    1163    1164    1165    1166    1167    1168
    1169    1170    1171    1172    1162    1163    1164    1165    1166    1167
    1168    1169    1170    1171    1172     342    1161    1162    1163    1173
    1174     996    1160    1173    1174     344     345     346     352     353
     989     990     991     992     993    1175    1176    1188    1189     345
     346     347     352     353     991    1175    1176    1189     346     347
     348     352     353    1175    1176    1177    1178    1188     347     348
     349     350     351     352     353    1175    1176    1177    1178    1188
    1189     348     349     350     351     352     353    1176    1177    1178
    1179    1180    1181    1182    1183    1184    1185    1186    1187    1188
     349     350     351     352    1177    1178    1179    1180    1181    1182
    1183    1184    1185    1186    1187     350     351    1177    1178    1179
    1180    1181    1182    1183    1184    1185    1186    1187     351    1177
    1178    1179    1180    1181    1182    1183    1184    1185    1186    1187
    1177    1178    1179    1180    1181    1182    1183    1184    1185    1186
    1187     353    1176    1177    1178    1188    1189     991    1175    1188
    1189     355     356     357     363     364     984     985     986     987
     988    1190    1191    1203    1204     356     357     358     363     364
     986    1190    1191    1204     357     358     359     363     364    1190
    1191    1192    1193    1203     358     359     360     361     362     363
     364    1190    1191    1192    1193    1203    1204     359     360     361
     362     363     364    1191    1192    1193    1194    1195    1196    1197
    1198    1199    1200    1201    1202    1203     360     361     362     363
    1192    1193    1194    1195    1196    1197    1198    1199    1200    1201
    1202     361     362    1192    1193    1194    1195    1196    1197    1198
    1199    1200    1201    1202     362    1192    1193    1194    1195    1196
    1197    1198    1199    1200    1201    1202    1192    1193    1194    1195
    1196    1197    1198    1199    1200    1201    1202     364    1191    1192
    1193    1203    1204     986    1190    1203    1204     366     367     368
     523     534     535     544     545     982     983    1205    1206    1207
    1208    1209     367     368     369     523     524     533     534    1205
    1206    1207    1208    1209    1210    1211     368     369     370     523
     524     525     532     533    1205    1206    1207    1208    1209    1210
    1211    1212    1213    1433    1447     369     370     371     512     523
     524     533    1207    1208    1209    1210    1211    1212    1213    1214
     370     371     372     512     513     522     523    1209    1210    1211
    1212    1213    1214    1215    1216     371     372     373     512     513
     514     521     522    1210    1211    1212    1213    1214    1215    1216
    1217    1218    1418    1432     372     373     374     501     512     513
     522    1212    1213    1214    1215    1216    1217    1218    1219     373
     374     375     501     502     511     512    1214    1215    1216    1217
    1218    1219    1220    1221     374     375     376     501     502     503
     510     511    1215    1216    1217    1218    1219    1220    1221    1222
    1223    1403    1417     375     376     377     490     501     502     511
    1217    1218    1219    1220    1221    1222    1223    1224     376     377
     378     490     491     500     501    1219    1220    1221    1222    1223
    1224    1225    1226     377     378     379     490     491     492     499
     500    1220    1221    1222    1223    1224    1225    1226    1227    1228
    1388    1402     378     379     380     479     490     491     500    1222
    1223    1224    1225    1226    1227    1228    1229     379     380     381
     479     480     489     490    1224    1225    1226    1227    1228    1229
    1230    1231     380     381     382     479     480     481     488     489
    1225    1226    1227    1228    1229    1230    1231    1232    1233    1373
    1387     381     382     383     468     479     480     489    1227    1228
    1229    1230    1231    1232    1233    1234     382     383     384     468
     469     478     479    1229    1230    1231    1232    1233    1234    1235
    1236     383     384     385     468     469     470     477     478    1230
    1231    1232    1233    1234    1235    1236    1237    1238    1358    1372
     384     385     386     457     468     469     478    1232    1233    1234
    1235    1236    1237    1238    1239     385     386     387     457     458
     467     468    1234    1235    1236    1237    1238    1239    1240    1241
     386     387     388     457     458     459     466     467    1235    1236
    1237    1238    1239    1240    1241    1242    1243    1343    1357     387
     388     389     446     457     458     467    1237    1238    1239    1240
    1241    1242    1243    1244     388     389     390     446     447     456
     457    1239    1240    1241    1242    1243    1244    1245    1246     389
     390     391     446     447     448     455     456    1240    1241    1242
    1243    1244    1245    1246    1247    1248    1328    1342     390     391
     392     435     446     447     456    1242    1243    1244    1245    1246
    1247    1248    1249     391     392     393     435     436     445     446
    1244    1245    1246    1247    1248    1249    1250    1251     392     393
     394     435     436     437     444     445    1245    1246    1247    1248
    1249    1250    1251    1252    1253    1313    1327     393     394     395
     424     435     436     445    1247    1248    1249    1250    1251    1252
    1253    1254     394     395     396     424     425     434     435    1249
    1250    1251    1252    1253    1254    1255    1256     395     396     397
     424     425     426     433     434    1250    1251    1252    1253    1254
    1255    1256    1257    1258    1298    1312     396     397     398     413
     424     425     434    1252    1253    1254    1255    1256    1257    1258
    1259     397     398     399     413     414     423     424    1254    1255
    1256    1257    1258    1259    1260    1261     398     399     400     413
     414     415     422     423    1255    1256    1257    1258    1259    1260
    1261    1262    1263    1283    1297     399     400     401     402     413
     414     423    1257    1258    1259    1260    1261    1262    1263    1264
     400     401     402     403     412     413    1259    1260    1261    1262
    1263    1264    1265    1266    1267     401     402     403     404     411
     412    1260    1261    1262    1263    1264    1265    1266    1267    1268
    1282     402     403     412    1262    1263    1264    1265    1266    1267
     403     404     405     411     412    1262    1263    1264    1265    1266
    1267    1268    1269    1281    1282     404     405     406     411     412
    1264    1268    1269    1282     405     406     407     411     412    1268
    1269    1270    1271    1281     406     407     408     409     410     411
     412    1268    1269    1270    1271    1281    1282     407     408     409
     410     411     412    1269    1270    1271    1272    1273    1274    1275
    1276    1277    1278    1279    1280    1281     408     409     410     411
    1270    1271    1272    1273    1274    1275    1276    1277    1278    1279
    1280     409     410    1270    1271    1272    1273    1274    1275    1276
    1277    1278    1279    1280     410    1270    1271    1272    1273    1274
    1275    1276    1277    1278    1279    1280    1270    1271    1272    1273
    1274    1275    1276    1277    1278    1279    1280     412    1269    1270
    1271    1281    1282    1264    1268    1281    1282     414     415     416
     422     423    1257    1258    1259    1260    1261    1283    1284    1296
    1297     415     416     417     422     423    1259    1283    1284    1297
     416     417     418     422     423    1283    1284    1285    1286    1296
     417     418     419     420     421     422     423    1283    1284    1285
    1286    1296    1297     418     419     420     421     422     423    1284
    1285    1286    1287    1288    1289    1290    1291    1292    1293    1294
    1295    1296     419     420     421     422    1285    1286    1287    1288
    1289    1290    1291    1292    1293    1294    1295     420     421    1285
    1286    1287    1288    1289    1290    1291    1292    1293    1294    1295
     421    1285    1286    1287    1288    1289    1290    1291    1292    1293
    1294    1295    1285    1286    1287    1288    1289    1290    1291    1292
    1293    1294    1295     423    1284    1285    1286    1296    1297    1259
    1283    1296    1297     425     426     427     433     434    1252    1253
    1254    1255    1256    1298    1299    1311    1312     426     427     428
     433     434    1254    1298    1299    1312     427     428     429     433
     434    1298    1299    1300    1301    1311     428     429     430     431
     432     433     434    1298    1299    1300    1301    1311    1312     429
     430     431     432     433     434    1299    1300    1301    1302    1303
    1304    1305    1306    1307    1308    1309    1310    1311     430     431
     432     433    1300    1301    1302    1303    1304    1305    1306    1307
    1308    1309    1310     431     432    1300    1301    1302    1303    1304
    1305    1306    1307    1308    1309    1310     432    1300    1301    1302
    1303    1304    1305    1306    1307    1308    1309    1310    1300    1301
    1302    1303    1304    1305    1306    1307    1308    1309    1310     434
    1299    1300    1301    1311    1312    1254    1298    1311    1312     436
     437     438     444     445    1247    1248    1249    1250    1251    1313
    1314    1326    1327     437     438     439     444     445    1249    1313
    1314    1327     438     439     440     444     445    1313    1314    1315
    1316    1326     439     440     441     442     443     444     445    1313
    1314    1315    1316    1326    1327     440     441     442     443     444
     445    1314    1315    1316    1317    1318    1319    1320    1321    1322
    1323    1324    1325    1326     441     442     443     444    1315    1316
    1317    1318    1319    1320    1321    1322    1323    1324    1325     442
     443    1315    1316    1317    1318    1319    1320    1321    1322    1323
    1324    1325     443    1315    1316    1317    1318    1319    1320    1321
    1322    1323    1324    1325    1315    1316    1317    1318    1319    1320
    1321    1322    1323    1324    1325     445    1314    1315    1316    1326
    1327    1249    1313    1326    1327     447     448     449     455     456
    1242    1243    1244    1245    1246    1328    1329    1341    1342     448
     449     450     455     456    1244    1328    1329    1342     449     450
     451     455     456    1328    1329    1330    1331    1341     450     451
     452     453     454     455     456    1328    1329    1330    1331    1341
    1342     451     452     453     454     455     456    1329    1330    1331
    1332    1333    1334    1335    1336    1337    1338    1339    1340    1341
     452     453     454     455    1330    1331    1332    1333    1334    1335
    1336    1337    1338    1339    1340     453     454    1330    1331    1332
    1333    1334    1335    1336    1337    1338    1339    1340     454    1330
    1331    1332    1333    1334    1335    1336    1337    1338    1339    1340
    1330    1331    1332    1333    1334    1335    1336    1337    1338    1339
    1340     456    1329    1330    1331    1341    1342    1244    1328    1341
    1342     458     459     460     466     467    1237    1238    1239    1240
    1241    1343    1344    1356    1357     459     460     461     466     467
    1239    1343    1344    1357     460     461     462     466     467    1343
    1344    1345    1346    1356     461     462     463     464     465     466
     467    1343    1344    1345    1346    1356    1357     462     463     464
     465     466     467    1344    1345    1346    1347    1348    1349    1350
    1351    1352    1353    1354    1355    1356     463     464     465     466
    1345    1346    1347    1348    1349    1350    1351    1352    1353    1354
    1355     464     465    1345    1346    1347    1348    1349    1350    1351
    1352    1353    1354    1355     465    1345    1346    1347    1348    1349
    1350    1351    1352    1353    1354    1355    1345    1346    1347    1348
    1349    1350    1351    1352    1353    1354    1355     467    1344    1345
    1346    1356    1357    1239    1343    1356    1357     469     470     471
     477     478    1232    1233    1234    1235    1236    1358    1359    1371
    1372     470     471     472     477     478    1234    1358    1359    1372
     471     472     473     477     478    1358    1359    1360    1361    1371
     472     473     474     475     476     477     478    1358    1359    1360
    1361    1371    1372     473     474     475     476     477     478    1359
    1360    1361    1362    1363    1364    1365    1366    1367    1368    1369
    1370    1371     474     475     476     477    1360    1361    1362    1363
    1364    1365    1366    1367    1368    1369    1370     475     476    1360
    1361    1362    1363    1364    1365    1366    1367    1368    1369    1370
     476    1360    1361    1362    1363    1364    1365    1366    1367    1368
    1369    1370    1360    1361    1362    1363    1364    1365    1366    1367
    1368    1369    1370     478    1359    1360    1361    1371    1372    1234
    1358    1371    1372     480     481     482     488     489    1227    1228
    1229    1230    1231    1373    1374    1386    1387     481     482     483
     488     489    1229    1373    1374    1387     482     483     484     488
     489    1373    1374    1375    1376    1386     483     484     485     486
     487     488     489    1373    1374    1375    1376    1386    1387     484
     485     486     487     488     489    1374    1375    1376    1377    1378
    1379    1380    1381    1382    1383    1384    1385    1386     485     486
     487     488    1375    1376    1377    1378    1379    1380    1381    1382
    1383    1384    1385     486     487    1375    1376    1377    1378    1379
    1380    1381    1382    1383    1384    1385     487    1375    1376    1377
    1378    1379    1380    1381    1382    1383    1384    1385    1375    1376
    1377    1378    1379    1380    1381    1382    1383    1384    1385     489
    1374    1375    1376    1386    1387    1229    1373    1386    1387     491
     492     493     499     500    1222    1223    1224    1225    1226    1388
    1389    1401    1402     492     493     494     499     500    1224    1388
    1389    1402     493     494     495     499     500    1388    1389    1390
    1391    1401     494     495     496     497     498     499     500    1388
    1389    1390    1391    1401    1402     495     496     497     498     499
     500    1389    1390    1391    1392    1393    1394    1395    1396    1397
    1398    1399    1400    1401     496     497     498     499    1390    1391
    1392    1393    1394    1395    1396    1397    1398    1399    1400     497
     498    1390    1391    1392    1393    1394    1395    1396    1397    1398
    1399    1400     498    1390    1391    1392    1393    1394    1395    1396
    1397    1398    1399    1400    1390    1391    1392    1393    1394    1395
    1396    1397    1398    1399    1400     500    1389    1390    1391    1401
    1402    1224    1388    1401    1402     502     503     504     510     511
    1217    1218    1219    1220    1221    1403    1404    1416    1417     503
     504     505     510     511    1219    1403    1404    1417     504     505
     506     510     511    1403    1404    1405    1406    1416     505     506
     507     508     509     510     511    1403    1404    1405    1406    1416
    1417     506     507     508     509     510     511    1404    1405    1406
    1407    1408    1409    1410    1411    1412    1413    1414    1415    1416
     507     508     509     510    1405    1406    1407    1408    1409    1410
    1411    1412    1413    1414    1415     508     509    1405    1406    1407
    1408    1409    1410    1411    1412    1413    1414    1415     509    1405
    1406    1407    1408    1409    1410    1411    1412    1413    1414    1415
    1405    1406    1407    1408    1409    1410    1411    1412    1413    1414
    1415     511    1404    1405    1406    1416    1417    1219    1403    1416
    1417     513     514     515     521     522    1212    1213    1214    1215
    1216    1418    1419    1431    1432     514     515     516     521     522
    1214    1418    1419    1432     515     516     517     521     522    1418
    1419    1420    1421    1431     516     517     518     519     520     521
     522    1418    1419    1420    1421    1431    1432     517     518     519
     520     521     522    1419    1420    1421    1422    1423    1424    1425
    1426    1427    1428    1429    1430    1431     518     519     520     521
    1420    1421    1422    1423    1424    1425    1426    1427    1428    1429
    1430     519     520    1420    1421    1422    1423    1424    1425    1426
    1427    1428    1429    1430     520    1420    1421    1422    1423    1424
    1425    1426    1427    1428    1429    1430    1420    1421    1422    1423
    1424    1425    1426    1427    1428    1429    1430     522    1419    1420
    1421    1431    1432    1214    1418    1431    1432     524     525     526
     532     533    1207    1208    1209    1210    1211    1433    1434    1446
    1447     525     526     527     532     533    1209    1433    1434    1447
     526     527     528     532     533    1433    1434    1435    1436    1446
     527     528     529     530     531     532     533    1433    1434    1435
    1436    1446    1447     528     529     530     531     532     533    1434
    1435    1436    1437    1438    1439    1440    1441    1442    1443    1444
    1445    1446     529     530     531     532    1435    1436    1437    1438
    1439    1440    1441    1442    1443    1444    1445     530     531    1435
    1436    1437    1438    1439    1440    1441    1442    1443    1444    1445
     531    1435    1436    1437    1438    1439    1440    1441    1442    1443
    1444    1445    1435    1436    1437    1438    1439    1440    1441    1442
    1443    1444    1445     533    1434    1435    1436    1446    1447    1209
    1433    1446    1447     535     536     537     543     544     545     982
     983    1205    1206    1448    1449    1461    1462     536     537     538
     543     544    1448    1449    1462     537     538     539     543     544
    1448    1449    1450    1451    1461     538     539     540     541     542
     543     544    1448    1449    1450    1451    1461    1462     539     540
     541     542     543     544    1449    1450    1451    1452    1453    1454
    1455    1456    1457    1458    1459    1460    1461     540     541     542
     543    1450    1451    1452    1453    1454    1455    1456    1457    1458
    1459    1460     541     542    1450    1451    1452    1453    1454    1455
    1456    1457    1458    1459    1460     542    1450    1451    1452    1453
    1454    1455    1456    1457    1458    1459    1460    1450    1451    1452
    1453    1454    1455    1456    1457    1458    1459    1460     544    1449
    1450    1451    1461    1462    1448    1461    1462     546     981    1463
    1464     980    1463    1464     548     549     550     556     557     735
     736     737     738     739    1465    1466    1478    1479     549     550
     551     556     557     737    1465    1466    1479     550     551     552
     556     557    1465    1466    1467    1468    1478     551     552     553
     554     555     556     557    1465    1466    1467    1468    1478    1479
     552     553     554     555     556     557    1466    1467    1468    1469
    1470    1471    1472    1473    1474    1475    1476    1477    1478     553
     554     555     556    1467    1468    1469    1470    1471    1472    1473
    1474    1475    1476    1477     554     555    1467    1468    1469    1470
    1471    1472    1473    1474    1475    1476    1477     555    1467    1468
    1469    1470    1471    1472    1473    1474    1475    1476    1477    1467
    1468    1469    1470    1471    1472    1473    1474    1475    1476    1477
     557    1466    1467    1468    1478    1479     737    1465    1478    1479
     559     560     561     567     568     730     731     732     733     734
    1480    1481    1493    1494     560     561     562     567     568     732
    1480    1481    1494     561     562     563     567     568    1480    1481
    1482    1483    1493     562     563     564     565     566     567     568
    1480    1481    1482    1483    1493    1494     563     564     565     566
     567     568    1481    1482    1483    1484    1485    1486    1487    1488
    1489    1490    1491    1492    1493     564     565     566     567    1482
    1483    1484    1485    1486    1487    1488    1489    1490    1491    1492
     565     566    1482    1483    1484    1485    1486    1487    1488    1489
    1490    1491    1492     566    1482    1483    1484    1485    1486    1487
    1488    1489    1490    1491    1492    1482    1483    1484    1485    1486
    1487    1488    1489    1490    1491    1492     568    1481    1482    1483
    1493    1494     732    1480    1493    1494     570     571     572     578
     579     725     726     727     728     729    1495    1496    1508    1509
     571     572     573     578     579     727    1495    1496    1509     572
     573     574     578     579    1495    1496    1497    1498    1508     573
     574     575     576     577     578     579    1495    1496    1497    1498
    1508    1509     574     575     576     577     578     579    1496    1497
    1498    1499    1500    1501    1502    1503    1504    1505    1506    1507
    1508     575     576     577     578    1497    1498    1499    1500    1501
    1502    1503    1504    1505    1506    1507     576     577    1497    1498
    1499    1500    1501    1502    1503    1504    1505    1506    1507     577
    1497    1498    1499    1500    1501    1502    1503    1504    1505    1506
    1507    1497    1498    1499    1500    1501    1502    1503    1504    1505
    1506    1507     579    1496    1497    1498    1508    1509     727    1495
    1508    1509     581     582     583     589     590     720     721     722
     723     724    1510    1511    1523    1524     582     583     584     589
     590     722    1510    1511    1524     583     584     585     589     590
    1510    1511    1512    1513    1523     584     585     586     587     588
     589     590    1510    1511    1512    1513    1523    1524     585     586
     587     588     589     590    1511    1512    1513    1514    1515    1516
    1517    1518    1519    1520    1521    1522    1523     586     587     588
     589    1512    1513    1514    1515    1516    1517    1518    1519    1520
    1521    1522     587     588    1512    1513    1514    1515    1516    1517
    1518    1519    1520    1521    1522     588    1512    1513    1514    1515
    1516    1517    1518    1519    1520    1521    1522    1512    1513    1514
    1515    1516    1517    1518    1519    1520    1521    1522     590    1511
    1512    1513    1523    1524     722    1510    1523    1524     592     593
     594     600     601     715     716     717     718     719    1525    1526
    1538    1539     593     594     595     600     601     717    1525    1526
    1539     594     595     596     600     601    1525    1526    1527    1528
    1538     595     596     597     598     599     600     601    1525    1526
    1527    1528    1538    1539     596     597     598     599     600     601
    1526    1527    1528    1529    1530    1531    1532    1533    1534    1535
    1536    1537    1538     597     598     599     600    1527    1528    1529
    1530    1531    1532    1533    1534    1535    1536    1537     598     599
    1527    1528    1529    1530    1531    1532    1533    1534    1535    1536
    1537     599    1527    1528    1529    1530    1531    1532    1533    1534
    1535    1536    1537    1527    1528    1529    1530    1531    1532    1533
    1534    1535    1536    1537     601    1526    1527    1528    1538    1539
     717    1525    1538    1539     603     604     605     611     612     710
     711     712     713     714    1540    1541    1553    1554     604     605
     606     611     612     712    1540    1541    1554     605     606     607
     611     612    1540    1541    1542    1543    1553     606     607     608
     609     610     611     612    1540    1541    1542    1543    1553    1554
     607     608     609     610     611     612    1541    1542    1543    1544
    1545    1546    1547    1548    1549    1550    1551    1552    1553     608
     609     610     611    1542    1543    1544    1545    1546    1547    1548
    1549    1550    1551    1552     609     610    1542    1543    1544    1545
    1546    1547    1548    1549    1550    1551    1552     610    1542    1543
    1544    1545    1546    1547    1548    1549    1550    1551    1552    1542
    1543    1544    1545    1546    1547    1548    1549    1550    1551    1552
     612    1541    1542    1543    1553    1554     712    1540    1553    1554
     614     615     616     622     623     705     706     707     708     709
    1555    1556    1568    1569     615     616     617     622     623     707
    1555    1556    1569     616     617     618     622     623    1555    1556
    1557    1558    1568     617     618     619     620     621     622     623
    1555    1556    1557    1558    1568    1569     618     619     620     621
     622     623    1556    1557    1558    1559    1560    1561    1562    1563
    1564    1565    1566    1567    1568     619     620     621     622    1557
    1558    1559    1560    1561    1562    1563    1564    1565    1566    1567
     620     621    1557    1558    1559    1560    1561    1562    1563    1564
    1565    1566    1567     621    1557    1558    1559    1560    1561    1562
    1563    1564    1565    1566    1567    1557    1558    1559    1560    1561
    1562    1563    1564    1565    1566    1567     623    1556    1557    1558
    1568    1569     707    1555    1568    1569     625     626     627     633
     634     700     701     702     703     704    1570    1571    1583    1584
     626     627     628     633     634     702    1570    1571    1584     627
     628     629     633     634    1570    1571    1572    1573    1583     628
     629     630     631     632     633     634    1570    1571    1572    1573
    1583    1584     629     630     631     632     633     634    1571    1572
    1573    1574    1575    1576    1577    1578    1579    1580    1581    1582
    1583     630     631     632     633    1572    1573    1574    1575    1576
    1577    1578    1579    1580    1581    1582     631     632    1572    1573
    1574    1575    1576    1577    1578    1579    1580    1581    1582     632
    1572    1573    1574    1575    1576    1577    1578    1579    1580    1581
    1582    1572    1573    1574    1575    1576    1577    1578    1579    1580
    1581    1582     634    1571    1572    1573    1583    1584     702    1570
    1583    1584     636     637     638     644     645     695     696     697
     698     699    1585    1586    1598    1599     637     638     639     644
     645     697    1585    1586    1599     638     639     640     644     645
    1585    1586    1587    1588    1598     639     640     641     642     643
     644     645    1585    1586    1587    1588    1598    1599     640     641
     642     643     644     645    1586    1587    1588    1589    1590    1591
    1592    1593    1594    1595    1596    1597    1598     641     642     643
     644    1587    1588    1589    1590    1591    1592    1593    1594    1595
    1596    1597     642     643    1587    1588    1589    1590    1591    1592
    1593    1594    1595    1596    1597     643    1587    1588    1589    1590
    1591    1592    1593    1594    1595    1596    1597    1587    1588    1589
    1590    1591    1592    1593    1594    1595    1596    1597     645    1586
    1587    1588    1598    1599     697    1585    1598    1599     647     648
     649     655     656     690     691     692     693     694    1600    1601
    1613    1614     648     649     650     655     656     692    1600    1601
    1614     649     650     651     655     656    1600    1601    1602    1603
    1613     650     651     652     653     654     655     656    1600    1601
    1602    1603    1613    1614     651     652     653     654     655     656
    1601    1602    1603    1604    1605    1606    1607    1608    1609    1610
    1611    1612    1613     652     653     654     655    1602    1603    1604
    1605    1606    1607    1608    1609    1610    1611    1612     653     654
    1602    1603    1604    1605    1606    1607    1608    1609    1610    1611
    1612     654    1602    1603    1604    1605    1606    1607    1608    1609
    1610    1611    1612    1602    1603    1604    1605    1606    1607    1608
    1609    1610    1611    1612     656    1601    1602    1603    1613    1614
     692    1600    1613    1614     658     659     660     666     667     685
     686     687     688     689    1615    1616    1628    1629     659     660
     661     666     667     687    1615    1616    1629     660     661     662
     666     667    1615    1616    1617    1618    1628     661     662     663
     664     665     666     667    1615    1616    1617    1618    1628    1629
     662     663     664     665     666     667    1616    1617    1618    1619
    1620    1621    1622    1623    1624    1625    1626    1627    1628     663
     664     665     666    1617    1618    1619    1620    1621    1622    1623
    1624    1625    1626    1627     664     665    1617    1618    1619    1620
    1621    1622    1623    1624    1625    1626    1627     665    1617    1618
    1619    1620    1621    1622    1623    1624    1625    1626    1627    1617
    1618    1619    1620    1621    1622    1623    1624    1625    1626    1627
     667    1616    1617    1618    1628    1629     687    1615    1628    1629
     669     670     671     677     678     679     680     681     682     683
     684    1630    1631    1643    1644     670     671     672     677     678
     682    1630    1631    1644     671     672     673     677     678    1630
    1631    1632    1633    1643     672     673     674     675     676     677
     678    1630    1631    1632    1633    1643    1644     673     674     675
     676     677     678    1631    1632    1633    1634    1635    1636    1637
    1638    1639    1640    1641    1642    1643     674     675     676     677
    1632    1633    1634    1635    1636    1637    1638    1639    1640    1641
    1642     675     676    1632    1633    1634    1635    1636    1637    1638
    1639    1640    1641    1642     676    1632    1633    1634    1635    1636
    1637    1638    1639    1640    1641    1642    1632    1633    1634    1635
    1636    1637    1638    1639    1640    1641    1642     678    1631    1632
    1633    1643    1644     682    1630    1643    1644     680     681     682
     681     682     682     683     684     684     685     686     685     686
     686     687     687     688     689     689     690     691     690     691
     691     692     692     693     694     694     695     696     695     696
     696     697     697     698     699     699     700     701     700     701
     701     702     702     703     704     704     705     706     705     706
     706     707     707     708     709     709     710     711     710     711
     711     712     712     713     714     714     715     716     715     716
     716     717     717     718     719     719     720     721     720     721
     721     722     722     723     724     724     725     726     725     726
     726     727     727     728     729     729     730     731     730     731
     731     732     732     733     734     734     735     736     735     736
     736     737     737     738     739     739     740     741     740     741
     741       0     743     744     745     744     745     745     746     746
     747     748     748     749     750     749     750     750     751     751
     752     753     753     754     755     754     755     755     756     756
     757     758     758     759     760     759     760     760     761     761
     762     763     763     764     765     764     765     765     766     766
     767     768     768     769     770     769     770     770     771     771
     772     773     773     774     775     774     775     775     776     776
     777     778     778     779     780     779     780     780     781     781
     782     783     783     784     785     784     785     785     786     786
     787     788     788     789     790     789     790     790     791     791
     792     793     793     794     795     794     795     795     796     796
     797     798     799     798     799     799       0     801       0     803
       0     805     806     806       0     808     809     809       0     811
     812     812       0     814       0     816       0     818       0     820
     821     821       0     823     824     824       0     826     827     827
       0     829       0     831       0     833       0     835     836     836
       0     838     839     839       0     841     842     842       0     844
       0     846       0     848       0     850     851     851       0     853
     854     854       0     856     857     857       0     859       0     861
       0     863       0     865     866     866       0     868     869     869
       0     871     872     872       0     874       0     876       0     878
       0     880     881     881       0     883     884     884       0     886
     887     887       0     889       0     891       0     893       0     895
     896     896       0     898     899     899       0     901     902     902
       0     904       0     906       0     908       0     910     911     911
       0     913     914     914       0     916     917     917       0     919
       0     921       0     923       0     925     926     926       0     928
     929     929       0     931     932     932       0     934       0     936
       0     938       0     940     941     941       0     943     944     944
       0     946     947     947       0     949       0     951       0     953
       0     955     956     956       0     958     959     959       0     961
     962     962       0     964       0     966       0     968       0     970
     971     971       0     973     974     974       0     976     977     977
       0     979       0     981       0     983     984     985     984     985
     985     986     986     987     988     988     989     990     989     990
     990     991     991     992     993     993     994     995     994     995
     995     996     996     997     998     998     999    1000     999    1000
    1000    1001    1001    1002    1003    1003    1004    1005    1004    1005
    1005    1006    1006    1007    1008    1008    1009    1010    1009    1010
    1010    1011    1011    1012    1013    1013    1014    1015    1014    1015
    1015    1016    1016    1017    1018    1018    1019    1020    1019    1020
    1020    1021    1021    1022    1023    1023    1024    1025    1024    1025
    1025    1026    1026    1027    1028    1028    1029    1030    1029    1030
    1030    1031    1031    1032    1033    1033    1034    1035    1034    1035
    1035    1036    1036    1037    1038    1039    1038    1039    1039       0
    1041       0    1043       0    1045    1046    1046       0    1048    1049
    1049       0    1051    1052    1052       0    1054       0    1056       0
    1058       0    1060    1061    1061       0    1063    1064    1064       0
    1066    1067    1067       0    1069       0    1071       0    1073       0
    1075    1076    1076       0    1078    1079    1079       0    1081    1082
    1082       0    1084       0    1086       0    1088       0    1090    1091
    1091       0    1093    1094    1094       0    1096    1097    1097       0
    1099       0    1101       0    1103       0    1105    1106    1106       0
    1108    1109    1109       0    1111    1112    1112       0    1114       0
    1116       0    1118       0    1120    1121    1121       0    1123    1124
    1124       0    1126    1127    1127       0    1129       0    1131       0
    1133       0    1135    1136    1136       0    1138    1139    1139       0
    1141    1142    1142       0    1144       0    1146       0    1148       0
    1150    1151    1151       0    1153    1154    1154       0    1156    1157
    1157       0    1159       0    1161       0    1163       0    1165    1166
    1166       0    1168    1169    1169       0    1171    1172    1172       0
    1174       0    1176       0    1178       0    1180    1181    1181       0
    1183    1184    1184       0    1186    1187    1187       0    1189       0
    1191       0    1193       0    1195    1196    1196       0    1198    1199
    1199       0    1201    1202    1202       0    1204       0    1206    1207
    1208    1207    1208    1208    1209    1209    1210    1211    1211    1212
    1213    1212    1213    1213    1214    1214    1215    1216    1216    1217
    1218    1217    1218    1218    1219    1219    1220    1221    1221    1222
    1223    1222    1223    1223    1224    1224    1225    1226    1226    1227
    1228    1227    1228    1228    1229    1229    1230    1231    1231    1232
    1233    1232    1233    1233    1234    1234    1235    1236    1236    1237
    1238    1237    1238    1238    1239    1239    1240    1241    1241    1242
    1243    1242    1243    1243    1244    1244    1245    1246    1246    1247
    1248    1247    1248    1248    1249    1249    1250    1251    1251    1252
    1253    1252    1253    1253    1254    1254    1255    1256    1256    1257
    1258    1257    1258    1258    1259    1259    1260    1261    1261    1262
    1263    1262    1263    1263    1264    1264    1265    1266    1267    1266
    1267    1267       0    1269       0    1271       0    1273    1274    1274
       0    1276    1277    1277       0    1279    1280    1280       0    1282
       0    1284       0    1286       0    1288    1289    1289       0    1291
    1292    1292       0    1294    1295    1295       0    1297       0    1299
       0    1301       0    1303    1304    1304       0    1306    1307    1307
       0    1309    1310    1310       0    1312       0    1314       0    1316
       0    1318    1319    1319       0    1321    1322    1322       0    1324
    1325    1325       0    1327       0    1329       0    1331       0    1333
    1334    1334       0    1336    1337    1337       0    1339    1340    1340
       0    1342       0    1344       0    1346       0    1348    1349    1349
       0    1351    1352    1352       0    1354    1355    1355       0    1357
       0    1359       0    1361       0    1363    1364    1364       0    1366
    1367    1367       0    1369    1370    1370       0    1372       0    1374
       0    1376       0    1378    1379    1379       0    1381    1382    1382
       0    1384    1385    1385       0    1387       0    1389       0    1391
       0    1393    1394    1394       0    1396    1397    1397       0    1399
    1400    1400       0    1402       0    1404       0    1406       0    1408
    1409    1409       0    1411    1412    1412       0    1414    1415    1415
       0    1417       0    1419       0    1421       0    1423    1424    1424
       0    1426    1427    1427       0    1429    1430    1430       0    1432
       0    1434       0    1436       0    1438    1439    1439       0    1441
    1442    1442       0    1444    1445    1445       0    1447       0    1449
       0    1451       0    1453    1454    1454       0    1456    1457    1457
       0    1459    1460    1460       0    1462       0    1464       0    1466
       0    1468       0    1470    1471    1471       0    1473    1474    1474
       0    1476    1477    1477       0    1479       0    1481       0    1483
       0    1485    1486    1486       0    1488    1489    1489       0    1491
    1492    1492       0    1494       0    1496       0    1498       0    1500
    1501    1501       0    1503    1504    1504       0    1506    1507    1507
       0    1509       0    1511       0    1513       0    1515    1516    1516
       0    1518    1519    1519       0    1521    1522    1522       0    1524
       0    1526       0    1528       0    1530    1531    1531       0    1533
    1534    1534       0    1536    1537    1537       0    1539       0    1541
       0    1543       0    1545    1546    1546       0    1548    1549    1549
       0    1551    1552    1552       0    1554       0    1556       0    1558
       0    1560    1561    1561       0    1563    1564    1564       0    1566
    1567    1567       0    1569       0    1571       0    1573       0    1575
    1576    1576       0    1578    1579    1579       0    1581    1582    1582
       0    1584       0    1586       0    1588       0    1590    1591    1591
       0    1593    1594    1594       0    1596    1597    1597       0    1599
       0    1601       0    1603       0    1605    1606    1606       0    1608
    1609    1609       0    1611    1612    1612       0    1614       0    1616
       0    1618       0    1620    1621    1621       0    1623    1624    1624
       0    1626    1627    1627       0    1629       0    1631       0    1633
       0    1635    1636    1636       0    1638    1639    1639       0    1641
    1642    1642       0    1644       0    1652    1653    1656    1657    1663
    1664    1665    1667    1669    1671    1647    1648    1649    1650    1651
    1666    1667    1668    1669    1670    1648    1649    1650    1651    1666
    1667    1668    1669    1670    1649    1652    1653    1666    1667    1668
    1669    1671    1652    1653    1666    1667    1668    1669    1671    1651
    1654    1655    1666    1667    1668    1670    1672    1654    1655    1666
    1667    1668    1670    1672    1653    1656    1657    1666    1667    1669
    1671    1656    1657    1666    1667    1669    1671    1655    1658    1659
    1666    1668    1670    1672    1673    1658    1659    1666    1668    1670
    1672    1673    1657    1663    1664    1665    1667    1669    1671    1663
    1664    1665    1667    1669    1671    1659    1660    1661    1662    1668
    1670    1672    1673    1660    1661    1662    1668    1670    1672    1673
    1661    1662    1670    1672    1673    1662    1670    1672    1673    1670
    1672    1673    1664    1665    1669    1671    1665    1669    1671    1669
    1671    1667    1668    1669    1670    1671    1672    1668    1669    1670
    1671    1669    1670    1672    1673    1671    1672    1673       0    1673
       0       0       0       0       0       0       0       0       0       0
       0       0       0       0       0       0       0       0       0       0
       0       0       0       0       0       0       0       0       0       0
       0       0       0       0       0       0       0       0       0       0
       0       0       0       0       0       0       0       0
%FLAG HBOND_ACOEF                                                               
%FORMAT(5E16.8)                                                                 

%FLAG HBOND_BCOEF                                                               
%FORMAT(5E16.8)                                                                 

%FLAG HBCUT                                                                     
%FORMAT(5E16.8)                                                                 

%FLAG AMBER_ATOM_TYPE                                                           
%FORMAT(20a4)                                                                   
c3  c3  c3  c3  c3  c3  c3  c3  c3  c3  c3  c3  c3  c3  c3  c3  c3  c3  c3  c3  
c3  c3  c3  c3  c3  c3  c3  c3  c3  c3  c3  c3  c3  c3  c3  c3  c3  c3  c3  c3  
c3  c3  c3  c3  c3  c3  c3  c3  c3  c3  c3  c3  c3  c3  c3  c3  c3  c3  c3  c3  
c3  c3  c3  c3  c3  c3  c3  c3  c3  c3  c3  c3  ca  ca  ca  ca  c3  n4  c3  c3  
c3  ca  ca  ca  ca  ca  ca  c3  n4  c3  c3  c3  ca  ca  ca  ca  ca  ca  c3  n4  
c3  c3  c3  ca  ca  ca  ca  ca  ca  c3  n4  c3  c3  c3  ca  ca  ca  ca  ca  ca  
c3  n4  c3  c3  c3  ca  ca  ca  ca  ca  ca  c3  n4  c3  c3  c3  ca  ca  ca  ca  
ca  ca  c3  n4  c3  c3  c3  ca  ca  ca  ca  ca  ca  c3  n4  c3  c3  c3  ca  ca  
ca  ca  ca  ca  c3  n4  c3  c3  c3  ca  ca  ca  ca  ca  ca  c3  n4  c3  c3  c3  
ca  ca  ca  ca  ca  ca  c3  n4  c3  c3  c3  ca  ca  ca  ca  ca  ca  c3  n4  c3  
c3  c3  ca  ca  ca  ca  ca  ca  c3  c3  c3  c3  c3  c3  c3  c3  c3  c3  c3  c3  
c3  c3  c3  c3  c3  c3  c3  c3  c3  c3  c3  c3  c3  c3  c3  c3  c3  c3  c3  c3  
c3  c3  c3  ca  ca  ca  ca  c3  n4  c3  c3  c3  ca  ca  ca  ca  ca  ca  c3  n4  
c3  c3  c3  ca  ca  ca  ca  ca  ca  c3  n4  c3  c3  c3  ca  ca  ca  ca  ca  ca  
c3  n4  c3  c3  c3  ca  ca  ca  ca  ca  ca  c3  n4  c3  c3  c3  ca  ca  ca  ca  
ca  ca  c3  n4  c3  c3  c3  ca  ca  ca  ca  ca  ca  c3  n4  c3  c3  c3  ca  ca  
ca  ca  ca  ca  c3  n4  c3  c3  c3  ca  ca  ca  ca  ca  ca  c3  n4  c3  c3  c3  
ca  ca  ca  ca  ca  ca  c3  n4  c3  c3  c3  ca  ca  ca  ca  ca  ca  c3  n4  c3  
c3  c3  ca  ca  c3  c3  c3  c3  c3  c3  c3  c3  c3  c3  c3  c3  c3  c3  c3  c3  
c3  c3  c3  c3  c3  c3  c3  c3  c3  c3  c3  c3  c3  c3  c3  c3  c3  c3  c3  c3  
c3  ca  ca  ca  ca  c3  n4  c3  c3  c3  ca  ca  ca  ca  ca  ca  c3  n4  c3  c3  
c3  ca  ca  ca  ca  ca  ca  c3  n4  c3  c3  c3  ca  ca  ca  ca  ca  ca  c3  n4  
c3  c3  c3  ca  ca  ca  ca  ca  ca  c3  n4  c3  c3  c3  ca  ca  ca  ca  ca  ca  
c3  n4  c3  c3  c3  ca  ca  ca  ca  ca  ca  c3  n4  c3  c3  c3  ca  ca  ca  ca  
ca  ca  c3  n4  c3  c3  c3  ca  ca  ca  ca  ca  ca  c3  n4  c3  c3  c3  ca  ca  
ca  ca  ca  ca  c3  n4  c3  c3  c3  ca  ca  ca  ca  ca  ca  c3  n4  c3  c3  c3  
ca  ca  ca  ca  ca  ca  c3  n4  c3  c3  c3  ca  ca  ca  ca  ca  ca  c3  n4  c3  
c3  c3  ca  ca  ca  ca  ca  ca  ca  ca  c3  n4  c3  c3  c3  ca  ca  ca  ca  ca  
ca  c3  n4  c3  c3  c3  ca  ca  ca  ca  ca  ca  c3  n4  c3  c3  c3  ca  ca  ca  
ca  ca  ca  c3  n4  c3  c3  c3  ca  ca  ca  ca  ca  ca  c3  n4  c3  c3  c3  ca  
ca  ca  ca  ca  ca  c3  n4  c3  c3  c3  ca  ca  ca  ca  ca  ca  c3  n4  c3  c3  
c3  ca  ca  ca  ca  ca  ca  c3  n4  c3  c3  c3  ca  ca  ca  ca  ca  ca  c3  n4  
c3  c3  c3  ca  ca  ca  ca  ca  ca  c3  n4  c3  c3  c3  ca  ca  ca  ca  ca  ca  
c3  n4  c3  c3  c3  ca  ca  ca  ca  ca  ca  c3  n4  c3  c3  c3  ca  ca  hc  hc  
hc  hc  hc  hc  hc  hc  hc  hc  hc  hc  hc  hc  hc  hc  hc  hc  hc  hc  hc  hc  
hc  hc  hc  hc  hc  hc  hc  hc  hc  hc  hc  hc  hc  hc  hc  hc  hc  hc  hc  hc  
hc  hc  hc  hc  hc  hc  hc  hc  hc  hc  hc  hc  hc  hc  hc  hc  hc  hc  hc  hc  
hc  hc  hc  hc  hc  hc  hc  hc  hc  hc  hc  hc  hc  hc  hc  hc  hc  hc  hc  hc  
hc  hc  hc  hc  hc  hc  hc  hc  hc  hc  hc  hc  hc  hc  hc  hc  hc  hc  hc  hc  
hc  hc  hc  hc  hc  hc  hc  hc  hc  hc  hc  hc  hc  hc  hc  hc  hc  hc  hc  ha  
ha  hx  hx  hx  hx  hx  hx  hx  hx  hx  hx  hx  ha  ha  ha  ha  hx  hx  hx  hx  
hx  hx  hx  hx  hx  hx  hx  ha  ha  ha  ha  hx  hx  hx  hx  hx  hx  hx  hx  hx  
hx  hx  ha  ha  ha  ha  hx  hx  hx  hx  hx  hx  hx  hx  hx  hx  hx  ha  ha  ha  
ha  hx  hx  hx  hx  hx  hx  hx  hx  hx  hx  hx  ha  ha  ha  ha  hx  hx  hx  hx  
hx  hx  hx  hx  hx  hx  hx  ha  ha  ha  ha  hx  hx  hx  hx  hx  hx  hx  hx  hx  
hx  hx  ha  ha  ha  ha  hx  hx  hx  hx  hx  hx  hx  hx  hx  hx  hx  ha  ha  ha  
ha  hx  hx  hx  hx  hx  hx  hx  hx  hx  hx  hx  ha  ha  ha  ha  hx  hx  hx  hx  
hx  hx  hx  hx  hx  hx  hx  ha  ha  ha  ha  hx  hx  hx  hx  hx  hx  hx  hx  hx  
hx  hx  ha  ha  ha  ha  hx  hx  hx  hx  hx  hx  hx  hx  hx  hx  hx  ha  ha  ha  
ha  hc  hc  hc  hc  hc  hc  hc  hc  hc  hc  hc  hc  hc  hc  hc  hc  hc  hc  hc  
hc  hc  hc  hc  hc  hc  hc  hc  hc  hc  hc  hc  hc  hc  hc  hc  hc  hc  hc  hc  
hc  hc  hc  hc  hc  hc  hc  hc  hc  hc  hc  hc  hc  hc  hc  hc  hc  hc  hc  ha  
ha  hx  hx  hx  hx  hx  hx  hx  hx  hx  hx  hx  ha  ha  ha  ha  hx  hx  hx  hx  
hx  hx  hx  hx  hx  hx  hx  ha  ha  ha  ha  hx  hx  hx  hx  hx  hx  hx  hx  hx  
hx  hx  ha  ha  ha  ha  hx  hx  hx  hx  hx  hx  hx  hx  hx  hx  hx  ha  ha  ha  
ha  hx  hx  hx  hx  hx  hx  hx  hx  hx  hx  hx  ha  ha  ha  ha  hx  hx  hx  hx  
hx  hx  hx  hx  hx  hx  hx  ha  ha  ha  ha  hx  hx  hx  hx  hx  hx  hx  hx  hx  
hx  hx  ha  ha  ha  ha  hx  hx  hx  hx  hx  hx  hx  hx  hx  hx  hx  ha  ha  ha  
ha  hx  hx  hx  hx  hx  hx  hx  hx  hx  hx  hx  ha  ha  ha  ha  hx  hx  hx  hx  
hx  hx  hx  hx  hx  hx  hx  ha  ha  ha  ha  hx  hx  hx  hx  hx  hx  hx  hx  hx  
hx  hx  ha  ha  hc  hc  hc  hc  hc  hc  hc  hc  hc  hc  hc  hc  hc  hc  hc  hc  
hc  hc  hc  hc  hc  hc  hc  hc  hc  hc  hc  hc  hc  hc  hc  hc  hc  hc  hc  hc  
hc  hc  hc  hc  hc  hc  hc  hc  hc  hc  hc  hc  hc  hc  hc  hc  hc  hc  hc  hc  
hc  hc  hc  hc  hc  hc  hc  ha  ha  hx  hx  hx  hx  hx  hx  hx  hx  hx  hx  hx  
ha  ha  ha  ha  hx  hx  hx  hx  hx  hx  hx  hx  hx  hx  hx  ha  ha  ha  ha  hx  
hx  hx  hx  hx  hx  hx  hx  hx  hx  hx  ha  ha  ha  ha  hx  hx  hx  hx  hx  hx  
hx  hx  hx  hx  hx  ha  ha  ha  ha  hx  hx  hx  hx  hx  hx  hx  hx  hx  hx  hx  
ha  ha  ha  ha  hx  hx  hx  hx  hx  hx  hx  hx  hx  hx  hx  ha  ha  ha  ha  hx  
hx  hx  hx  hx  hx  hx  hx  hx  hx  hx  ha  ha  ha  ha  hx  hx  hx  hx  hx  hx  
hx  hx  hx  hx  hx  ha  ha  ha  ha  hx  hx  hx  hx  hx  hx  hx  hx  hx  hx  hx  
ha  ha  ha  ha  hx  hx  hx  hx  hx  hx  hx  hx  hx  hx  hx  ha  ha  ha  ha  hx  
hx  hx  hx  hx  hx  hx  hx  hx  hx  hx  ha  ha  ha  ha  hx  hx  hx  hx  hx  hx  
hx  hx  hx  hx  hx  ha  ha  ha  ha  hx  hx  hx  hx  hx  hx  hx  hx  hx  hx  hx  
ha  ha  ha  ha  ha  ha  hx  hx  hx  hx  hx  hx  hx  hx  hx  hx  hx  ha  ha  ha  
ha  hx  hx  hx  hx  hx  hx  hx  hx  hx  hx  hx  ha  ha  ha  ha  hx  hx  hx  hx  
hx  hx  hx  hx  hx  hx  hx  ha  ha  ha  ha  hx  hx  hx  hx  hx  hx  hx  hx  hx  
hx  hx  ha  ha  ha  ha  hx  hx  hx  hx  hx  hx  hx  hx  hx  hx  hx  ha  ha  ha  
ha  hx  hx  hx  hx  hx  hx  hx  hx  hx  hx  hx  ha  ha  ha  ha  hx  hx  hx  hx  
hx  hx  hx  hx  hx  hx  hx  ha  ha  ha  ha  hx  hx  hx  hx  hx  hx  hx  hx  hx  
hx  hx  ha  ha  ha  ha  hx  hx  hx  hx  hx  hx  hx  hx  hx  hx  hx  ha  ha  ha  
ha  hx  hx  hx  hx  hx  hx  hx  hx  hx  hx  hx  ha  ha  ha  ha  hx  hx  hx  hx  
hx  hx  hx  hx  hx  hx  hx  ha  ha  ha  ha  hx  hx  hx  hx  hx  hx  hx  hx  hx  
hx  hx  ha  ha  s6  f   f   f   f   f   f   f   f   f   f   f   f   f   f   f   
f   f   o   o   o   c3  c3  c3  c3  c3  c3  c3  c3  Cl- Cl- Cl- Cl- Cl- Cl- Cl- 
Cl- Cl- Cl- Cl- Cl- Cl- Cl- Cl- Cl- Cl- Cl- Cl- Cl- Cl- Cl- Cl- Cl- Cl- Cl- Cl- 
Cl- Cl- Cl- Cl- Cl- Cl- Cl- Cl- Cl- Cl- Cl- Cl- Cl- Cl- Cl- Cl- Cl- Cl- Cl- Cl- 
%FLAG TREE_CHAIN_CLASSIFICATION                                                 
%FORMAT(20a4)                                                                   
BLA BLA BLA BLA BLA BLA BLA BLA BLA BLA BLA BLA BLA BLA BLA BLA BLA BLA BLA BLA 
BLA BLA BLA BLA BLA BLA BLA BLA BLA BLA BLA BLA BLA BLA BLA BLA BLA BLA BLA BLA 
BLA BLA BLA BLA BLA BLA BLA BLA BLA BLA BLA BLA BLA BLA BLA BLA BLA BLA BLA BLA 
BLA BLA BLA BLA BLA BLA BLA BLA BLA BLA BLA BLA BLA BLA BLA BLA BLA BLA BLA BLA 
BLA BLA BLA BLA BLA BLA BLA BLA BLA BLA BLA BLA BLA BLA BLA BLA BLA BLA BLA BLA 
BLA BLA BLA BLA BLA BLA BLA BLA BLA BLA BLA BLA BLA BLA BLA BLA BLA BLA BLA BLA 
BLA BLA BLA BLA BLA BLA BLA BLA BLA BLA BLA BLA BLA BLA BLA BLA BLA BLA BLA BLA 
BLA BLA BLA BLA BLA BLA BLA BLA BLA BLA BLA BLA BLA BLA BLA BLA BLA BLA BLA BLA 
BLA BLA BLA BLA BLA BLA BLA BLA BLA BLA BLA BLA BLA BLA BLA BLA BLA BLA BLA BLA 
BLA BLA BLA BLA BLA BLA BLA BLA BLA BLA BLA BLA BLA BLA BLA BLA BLA BLA BLA BLA 
BLA BLA BLA BLA BLA BLA BLA BLA BLA BLA BLA BLA BLA BLA BLA BLA BLA BLA BLA BLA 
BLA BLA BLA BLA BLA BLA BLA BLA BLA BLA BLA BLA BLA BLA BLA BLA BLA BLA BLA BLA 
BLA BLA BLA BLA BLA BLA BLA BLA BLA BLA BLA BLA BLA BLA BLA BLA BLA BLA BLA BLA 
BLA BLA BLA BLA BLA BLA BLA BLA BLA BLA BLA BLA BLA BLA BLA BLA BLA BLA BLA BLA 
BLA BLA BLA BLA BLA BLA BLA BLA BLA BLA BLA BLA BLA BLA BLA BLA BLA BLA BLA BLA 
BLA BLA BLA BLA BLA BLA BLA BLA BLA BLA BLA BLA BLA BLA BLA BLA BLA BLA BLA BLA 
BLA BLA BLA BLA BLA BLA BLA BLA BLA BLA BLA BLA BLA BLA BLA BLA BLA BLA BLA BLA 
BLA BLA BLA BLA BLA BLA BLA BLA BLA BLA BLA BLA BLA BLA BLA BLA BLA BLA BLA BLA 
BLA BLA BLA BLA BLA BLA BLA BLA BLA BLA BLA BLA BLA BLA BLA BLA BLA BLA BLA BLA 
BLA BLA BLA BLA BLA BLA BLA BLA BLA BLA BLA BLA BLA BLA BLA BLA BLA BLA BLA BLA 
BLA BLA BLA BLA BLA BLA BLA BLA BLA BLA BLA BLA BLA BLA BLA BLA BLA BLA BLA BLA 
BLA BLA BLA BLA BLA BLA BLA BLA BLA BLA BLA BLA BLA BLA BLA BLA BLA BLA BLA BLA 
BLA BLA BLA BLA BLA BLA BLA BLA BLA BLA BLA BLA BLA BLA BLA BLA BLA BLA BLA BLA 
BLA BLA BLA BLA BLA BLA BLA BLA BLA BLA BLA BLA BLA BLA BLA BLA BLA BLA BLA BLA 
BLA BLA BLA BLA BLA BLA BLA BLA BLA BLA BLA BLA BLA BLA BLA BLA BLA BLA BLA BLA 
BLA BLA BLA BLA BLA BLA BLA BLA BLA BLA BLA BLA BLA BLA BLA BLA BLA BLA BLA BLA 
BLA BLA BLA BLA BLA BLA BLA BLA BLA BLA BLA BLA BLA BLA BLA BLA BLA BLA BLA BLA 
BLA BLA BLA BLA BLA BLA BLA BLA BLA BLA BLA BLA BLA BLA BLA BLA BLA BLA BLA BLA 
BLA BLA BLA BLA BLA BLA BLA BLA BLA BLA BLA BLA BLA BLA BLA BLA BLA BLA BLA BLA 
BLA BLA BLA BLA BLA BLA BLA BLA BLA BLA BLA BLA BLA BLA BLA BLA BLA BLA BLA BLA 
BLA BLA BLA BLA BLA BLA BLA BLA BLA BLA BLA BLA BLA BLA BLA BLA BLA BLA BLA BLA 
BLA BLA BLA BLA BLA BLA BLA BLA BLA BLA BLA BLA BLA BLA BLA BLA BLA BLA BLA BLA 
BLA BLA BLA BLA BLA BLA BLA BLA BLA BLA BLA BLA BLA BLA BLA BLA BLA BLA BLA BLA 
BLA BLA BLA BLA BLA BLA BLA BLA BLA BLA BLA BLA BLA BLA BLA BLA BLA BLA BLA BLA 
BLA BLA BLA BLA BLA BLA BLA BLA BLA BLA BLA BLA BLA BLA BLA BLA BLA BLA BLA BLA 
BLA BLA BLA BLA BLA BLA BLA BLA BLA BLA BLA BLA BLA BLA BLA BLA BLA BLA BLA BLA 
BLA BLA BLA BLA BLA BLA BLA BLA BLA BLA BLA BLA BLA BLA BLA BLA BLA BLA BLA BLA 
BLA BLA BLA BLA BLA BLA BLA BLA BLA BLA BLA BLA BLA BLA BLA BLA BLA BLA BLA BLA 
BLA BLA BLA BLA BLA BLA BLA BLA BLA BLA BLA BLA BLA BLA BLA BLA BLA BLA BLA BLA 
BLA BLA BLA BLA BLA BLA BLA BLA BLA BLA BLA BLA BLA BLA BLA BLA BLA BLA BLA BLA 
BLA BLA BLA BLA BLA BLA BLA BLA BLA BLA BLA BLA BLA BLA BLA BLA BLA BLA BLA BLA 
BLA BLA BLA BLA BLA BLA BLA BLA BLA BLA BLA BLA BLA BLA BLA BLA BLA BLA BLA BLA 
BLA BLA BLA BLA BLA BLA BLA BLA BLA BLA BLA BLA BLA BLA BLA BLA BLA BLA BLA BLA 
BLA BLA BLA BLA BLA BLA BLA BLA BLA BLA BLA BLA BLA BLA BLA BLA BLA BLA BLA BLA 
BLA BLA BLA BLA BLA BLA BLA BLA BLA BLA BLA BLA BLA BLA BLA BLA BLA BLA BLA BLA 
BLA BLA BLA BLA BLA BLA BLA BLA BLA BLA BLA BLA BLA BLA BLA BLA BLA BLA BLA BLA 
BLA BLA BLA BLA BLA BLA BLA BLA BLA BLA BLA BLA BLA BLA BLA BLA BLA BLA BLA BLA 
BLA BLA BLA BLA BLA BLA BLA BLA BLA BLA BLA BLA BLA BLA BLA BLA BLA BLA BLA BLA 
BLA BLA BLA BLA BLA BLA BLA BLA BLA BLA BLA BLA BLA BLA BLA BLA BLA BLA BLA BLA 
BLA BLA BLA BLA BLA BLA BLA BLA BLA BLA BLA BLA BLA BLA BLA BLA BLA BLA BLA BLA 
BLA BLA BLA BLA BLA BLA BLA BLA BLA BLA BLA BLA BLA BLA BLA BLA BLA BLA BLA BLA 
BLA BLA BLA BLA BLA BLA BLA BLA BLA BLA BLA BLA BLA BLA BLA BLA BLA BLA BLA BLA 
BLA BLA BLA BLA BLA BLA BLA BLA BLA BLA BLA BLA BLA BLA BLA BLA BLA BLA BLA BLA 
BLA BLA BLA BLA BLA BLA BLA BLA BLA BLA BLA BLA BLA BLA BLA BLA BLA BLA BLA BLA 
BLA BLA BLA BLA BLA BLA BLA BLA BLA BLA BLA BLA BLA BLA BLA BLA BLA BLA BLA BLA 
BLA BLA BLA BLA BLA BLA BLA BLA BLA BLA BLA BLA BLA BLA BLA BLA BLA BLA BLA BLA 
BLA BLA BLA BLA BLA BLA BLA BLA BLA BLA BLA BLA BLA BLA BLA BLA BLA BLA BLA BLA 
BLA BLA BLA BLA BLA BLA BLA BLA BLA BLA BLA BLA BLA BLA BLA BLA BLA BLA BLA BLA 
BLA BLA BLA BLA BLA BLA BLA BLA BLA BLA BLA BLA BLA BLA BLA BLA BLA BLA BLA BLA 
BLA BLA BLA BLA BLA BLA BLA BLA BLA BLA BLA BLA BLA BLA BLA BLA BLA BLA BLA BLA 
BLA BLA BLA BLA BLA BLA BLA BLA BLA BLA BLA BLA BLA BLA BLA BLA BLA BLA BLA BLA 
BLA BLA BLA BLA BLA BLA BLA BLA BLA BLA BLA BLA BLA BLA BLA BLA BLA BLA BLA BLA 
BLA BLA BLA BLA BLA BLA BLA BLA BLA BLA BLA BLA BLA BLA BLA BLA BLA BLA BLA BLA 
BLA BLA BLA BLA BLA BLA BLA BLA BLA BLA BLA BLA BLA BLA BLA BLA BLA BLA BLA BLA 
BLA BLA BLA BLA BLA BLA BLA BLA BLA BLA BLA BLA BLA BLA BLA BLA BLA BLA BLA BLA 
BLA BLA BLA BLA BLA BLA BLA BLA BLA BLA BLA BLA BLA BLA BLA BLA BLA BLA BLA BLA 
BLA BLA BLA BLA BLA BLA BLA BLA BLA BLA BLA BLA BLA BLA BLA BLA BLA BLA BLA BLA 
BLA BLA BLA BLA BLA BLA BLA BLA BLA BLA BLA BLA BLA BLA BLA BLA BLA BLA BLA BLA 
BLA BLA BLA BLA BLA BLA BLA BLA BLA BLA BLA BLA BLA BLA BLA BLA BLA BLA BLA BLA 
BLA BLA BLA BLA BLA BLA BLA BLA BLA BLA BLA BLA BLA BLA BLA BLA BLA BLA BLA BLA 
BLA BLA BLA BLA BLA BLA BLA BLA BLA BLA BLA BLA BLA BLA BLA BLA BLA BLA BLA BLA 
BLA BLA BLA BLA BLA BLA BLA BLA BLA BLA BLA BLA BLA BLA BLA BLA BLA BLA BLA BLA 
BLA BLA BLA BLA BLA BLA BLA BLA BLA BLA BLA BLA BLA BLA BLA BLA BLA BLA BLA BLA 
BLA BLA BLA BLA BLA BLA BLA BLA BLA BLA BLA BLA BLA BLA BLA BLA BLA BLA BLA BLA 
BLA BLA BLA BLA BLA BLA BLA BLA BLA BLA BLA BLA BLA BLA BLA BLA BLA BLA BLA BLA 
BLA BLA BLA BLA BLA BLA BLA BLA BLA BLA BLA BLA BLA BLA BLA BLA BLA BLA BLA BLA 
BLA BLA BLA BLA BLA BLA BLA BLA BLA BLA BLA BLA BLA BLA BLA BLA BLA BLA BLA BLA 
BLA BLA BLA BLA BLA BLA BLA BLA BLA BLA BLA BLA BLA BLA BLA BLA BLA BLA BLA BLA 
BLA BLA BLA BLA BLA BLA BLA BLA BLA BLA BLA BLA BLA BLA BLA BLA BLA BLA BLA BLA 
BLA BLA BLA BLA BLA BLA BLA BLA BLA BLA BLA BLA BLA BLA BLA BLA BLA BLA BLA BLA 
BLA BLA BLA BLA BLA BLA BLA BLA BLA BLA BLA BLA BLA BLA BLA BLA BLA BLA BLA BLA 
BLA BLA BLA BLA BLA BLA BLA BLA BLA BLA BLA BLA BLA BLA BLA BLA BLA BLA BLA BLA 
BLA BLA BLA BLA BLA BLA BLA BLA BLA BLA BLA BLA BLA BLA BLA BLA BLA BLA BLA BLA 
BLA BLA BLA BLA BLA BLA BLA BLA BLA BLA BLA BLA BLA M   M   M   M   M   M   M   
M   M   M   M   M   M   M   M   M   M   M   M   M   M   M   M   M   M   M   M   
M   M   M   M   M   M   M   M   M   M   M   M   M   M   M   M   M   M   M   M   
%FLAG JOIN_ARRAY                                                                
%FORMAT(10I8)                                                                   
       0       0       0       0       0       0       0       0       0       0
       0       0       0       0       0       0       0       0       0       0
       0       0       0       0       0       0       0       0       0       0
       0       0       0       0       0       0       0       0       0       0
       0       0       0       0       0       0       0       0       0       0
       0       0       0       0       0       0       0       0       0       0
       0       0       0       0       0       0       0       0       0       0
       0       0       0       0       0       0       0       0       0       0
       0       0       0       0       0       0       0       0       0       0
       0       0       0       0       0       0       0       0       0       0
       0       0       0       0       0       0       0       0       0       0
       0       0       0       0       0       0       0       0       0       0
       0       0       0       0       0       0       0       0       0       0
       0       0       0       0       0       0       0       0       0       0
       0       0       0       0       0       0       0       0       0       0
       0       0       0       0       0       0       0       0       0       0
       0       0       0       0       0       0       0       0       0       0
       0       0       0       0       0       0       0       0       0       0
       0       0       0       0       0       0       0       0       0       0
       0       0       0       0       0       0       0       0       0       0
       0       0       0       0       0       0       0       0       0       0
       0       0       0       0       0       0       0       0       0       0
       0       0       0       0       0       0       0       0       0       0
       0       0       0       0       0       0       0       0       0       0
       0       0       0       0       0       0       0       0       0       0
       0       0       0       0       0       0       0       0       0       0
       0       0       0       0       0       0       0       0       0       0
       0       0       0       0       0       0       0       0       0       0
       0       0       0       0       0       0       0       0       0       0
       0       0       0       0       0       0       0       0       0       0
       0       0       0       0       0       0       0       0       0       0
       0       0       0       0       0       0       0       0       0       0
       0       0       0       0       0       0       0       0       0       0
       0       0       0       0       0       0       0       0       0       0
       0       0       0       0       0       0       0       0       0       0
       0       0       0       0       0       0       0       0       0       0
       0       0       0       0       0       0       0       0       0       0
       0       0       0       0       0       0       0       0       0       0
       0       0       0       0       0       0       0       0       0       0
       0       0       0       0       0       0       0       0       0       0
       0       0       0       0       0       0       0       0       0       0
       0       0       0       0       0       0       0       0       0       0
       0       0       0       0       0       0       0       0       0       0
       0       0       0       0       0       0       0       0       0       0
       0       0       0       0       0       0       0       0       0       0
       0       0       0       0       0       0       0       0       0       0
       0       0       0       0       0       0       0       0       0       0
       0       0       0       0       0       0       0       0       0       0
       0       0       0       0       0       0       0       0       0       0
       0       0       0       0       0       0       0       0       0       0
       0       0       0       0       0       0       0       0       0       0
       0       0       0       0       0       0       0       0       0       0
       0       0       0       0       0       0       0       0       0       0
       0       0       0       0       0       0       0       0       0       0
       0       0       0       0       0       0       0       0       0       0
       0       0       0       0       0       0       0       0       0       0
       0       0       0       0       0       0       0       0       0       0
       0       0       0       0       0       0       0       0       0       0
       0       0       0       0       0       0       0       0       0       0
       0       0       0       0       0       0       0       0       0       0
       0       0       0       0       0       0       0       0       0       0
       0       0       0       0       0       0       0       0       0       0
       0       0       0       0       0       0       0       0       0       0
       0       0       0       0       0       0       0       0       0       0
       0       0       0       0       0       0       0       0       0       0
       0       0       0       0       0       0       0       0       0       0
       0       0       0       0       0       0       0       0       0       0
       0       0       0       0       0       0       0       0       0       0
       0       0       0       0       0       0       0       0       0       0
       0       0       0       0       0       0       0       0       0       0
       0       0       0       0       0       0       0       0       0       0
       0       0       0       0       0       0       0       0       0       0
       0       0       0       0       0       0       0       0       0       0
       0       0       0       0       0       0       0       0       0       0
       0       0       0       0       0       0       0       0       0       0
       0       0       0       0       0       0       0       0       0       0
       0       0       0       0       0       0       0       0       0       0
       0       0       0       0       0       0       0       0       0       0
       0       0       0       0       0       0       0       0       0       0
       0       0       0       0       0       0       0       0       0       0
       0       0       0       0       0       0       0       0       0       0
       0       0       0       0       0       0       0       0       0       0
       0       0       0       0       0       0       0       0       0       0
       0       0       0       0       0       0       0       0       0       0
       0       0       0       0       0       0       0       0       0       0
       0       0       0       0       0       0       0       0       0       0
       0       0       0       0       0       0       0       0       0       0
       0       0       0       0       0       0       0       0       0       0
       0       0       0       0       0       0       0       0       0       0
       0       0       0       0       0       0       0       0       0       0
       0       0       0       0       0       0       0       0       0       0
       0       0       0       0       0       0       0       0       0       0
       0       0       0       0       0       0       0       0       0       0
       0       0       0       0       0       0       0       0       0       0
       0       0       0       0       0       0       0       0       0       0
       0       0       0       0       0       0       0       0       0       0
       0       0       0       0       0       0       0       0       0       0
       0       0       0       0       0       0       0       0       0       0
       0       0       0       0       0       0       0       0       0       0
       0       0       0       0       0       0       0       0       0       0
       0       0       0       0       0       0       0       0       0       0
       0       0       0       0       0       0       0       0       0       0
       0       0       0       0       0       0       0       0       0       0
       0       0       0       0       0       0       0       0       0       0
       0       0       0       0       0       0       0       0       0       0
       0       0       0       0       0       0       0       0       0       0
       0       0       0       0       0       0       0       0       0       0
       0       0       0       0       0       0       0       0       0       0
       0       0       0       0       0       0       0       0       0       0
       0       0       0       0       0       0       0       0       0       0
       0       0       0       0       0       0       0       0       0       0
       0       0       0       0       0       0       0       0       0       0
       0       0       0       0       0       0       0       0       0       0
       0       0       0       0       0       0       0       0       0       0
       0       0       0       0       0       0       0       0       0       0
       0       0       0       0       0       0       0       0       0       0
       0       0       0       0       0       0       0       0       0       0
       0       0       0       0       0       0       0       0       0       0
       0       0       0       0       0       0       0       0       0       0
       0       0       0       0       0       0       0       0       0       0
       0       0       0       0       0       0       0       0       0       0
       0       0       0       0       0       0       0       0       0       0
       0       0       0       0       0       0       0       0       0       0
       0       0       0       0       0       0       0       0       0       0
       0       0       0       0       0       0       0       0       0       0
       0       0       0       0       0       0       0       0       0       0
       0       0       0       0       0       0       0       0       0       0
       0       0       0       0       0       0       0       0       0       0
       0       0       0       0       0       0       0       0       0       0
       0       0       0       0       0       0       0       0       0       0
       0       0       0       0       0       0       0       0       0       0
       0       0       0       0       0       0       0       0       0       0
       0       0       0       0       0       0       0       0       0       0
       0       0       0       0       0       0       0       0       0       0
       0       0       0       0       0       0       0       0       0       0
       0       0       0       0       0       0       0       0       0       0
       0       0       0       0       0       0       0       0       0       0
       0       0       0       0       0       0       0       0       0       0
       0       0       0       0       0       0       0       0       0       0
       0       0       0       0       0       0       0       0       0       0
       0       0       0       0       0       0       0       0       0       0
       0       0       0       0       0       0       0       0       0       0
       0       0       0       0       0       0       0       0       0       0
       0       0       0       0       0       0       0       0       0       0
       0       0       0       0       0       0       0       0       0       0
       0       0       0       0       0       0       0       0       0       0
       0       0       0       0       0       0       0       0       0       0
       0       0       0       0       0       0       0       0       0       0
       0       0       0       0       0       0       0       0       0       0
       0       0       0       0       0       0       0       0       0       0
       0       0       0       0       0       0       0       0       0       0
       0       0       0       0       0       0       0       0       0       0
       0       0       0       0       0       0       0       0       0       0
       0       0       0       0       0       0       0       0       0       0
       0       0       0       0       0       0       0       0       0       0
       0       0       0       0       0       0       0       0       0       0
       0       0       0       0       0       0       0       0       0       0
       0       0       0       0       0       0       0       0       0       0
       0       0       0       0       0       0       0       0       0       0
       0       0       0       0       0       0       0       0       0       0
       0       0       0       0       0       0       0       0       0       0
       0       0       0       0       0       0       0       0       0       0
       0       0       0       0       0       0       0       0       0       0
       0       0       0       0       0       0       0       0       0       0
       0       0       0       0       0       0       0       0       0       0
       0       0       0       0       0       0       0       0       0       0
       0       0       0       0       0       0       0       0       0       0
       0       0       0       0       0       0       0       0       0       0
       0       0       0       0       0       0       0       0       0       0
       0       0       0       0       0       0       0       0       0       0
       0       0       0       0       0       0       0       0       0       0
       0       0       0       0       0       0       0       0       0       0
%FLAG IROTAT                                                                    
%FORMAT(10I8)                                                                   
       0       0       0       0       0       0       0       0       0       0
       0       0       0       0       0       0       0       0       0       0
       0       0       0       0       0       0       0       0       0       0
       0       0       0       0       0       0       0       0       0       0
       0       0       0       0       0       0       0       0       0       0
       0       0       0       0       0       0       0       0       0       0
       0       0       0       0       0       0       0       0       0       0
       0       0       0       0       0       0       0       0       0       0
       0       0       0       0       0       0       0       0       0       0
       0       0       0       0       0       0       0       0       0       0
       0       0       0       0       0       0       0       0       0       0
       0       0       0       0       0       0       0       0       0       0
       0       0       0       0       0       0       0       0       0       0
       0       0       0       0       0       0       0       0       0       0
       0       0       0       0       0       0       0       0       0       0
       0       0       0       0       0       0       0       0       0       0
       0       0       0       0       0       0       0       0       0       0
       0       0       0       0       0       0       0       0       0       0
       0       0       0       0       0       0       0       0       0       0
       0       0       0       0       0       0       0       0       0       0
       0       0       0       0       0       0       0       0       0       0
       0       0       0       0       0       0       0       0       0       0
       0       0       0       0       0       0       0       0       0       0
       0       0       0       0       0       0       0       0       0       0
       0       0       0       0       0       0       0       0       0       0
       0       0       0       0       0       0       0       0       0       0
       0       0       0       0       0       0       0       0       0       0
       0       0       0       0       0       0       0       0       0       0
       0       0       0       0       0       0       0       0       0       0
       0       0       0       0       0       0       0       0       0       0
       0       0       0       0       0       0       0       0       0       0
       0       0       0       0       0       0       0       0       0       0
       0       0       0       0       0       0       0       0       0       0
       0       0       0       0       0       0       0       0       0       0
       0       0       0       0       0       0       0       0       0       0
       0       0       0       0       0       0       0       0       0       0
       0       0       0       0       0       0       0       0       0       0
       0       0       0       0       0       0       0       0       0       0
       0       0       0       0       0       0       0       0       0       0
       0       0       0       0       0       0       0       0       0       0
       0       0       0       0       0       0       0       0       0       0
       0       0       0       0       0       0       0       0       0       0
       0       0       0       0       0       0       0       0       0       0
       0       0       0       0       0       0       0       0       0       0
       0       0       0       0       0       0       0       0       0       0
       0       0       0       0       0       0       0       0       0       0
       0       0       0       0       0       0       0       0       0       0
       0       0       0       0       0       0       0       0       0       0
       0       0       0       0       0       0       0       0       0       0
       0       0       0       0       0       0       0       0       0       0
       0       0       0       0       0       0       0       0       0       0
       0       0       0       0       0       0       0       0       0       0
       0       0       0       0       0       0       0       0       0       0
       0       0       0       0       0       0       0       0       0       0
       0       0       0       0       0       0       0       0       0       0
       0       0       0       0       0       0       0       0       0       0
       0       0       0       0       0       0       0       0       0       0
       0       0       0       0       0       0       0       0       0       0
       0       0       0       0       0       0       0       0       0       0
       0       0       0       0       0       0       0       0       0       0
       0       0       0       0       0       0       0       0       0       0
       0       0       0       0       0       0       0       0       0       0
       0       0       0       0       0       0       0       0       0       0
       0       0       0       0       0       0       0       0       0       0
       0       0       0       0       0       0       0       0       0       0
       0       0       0       0       0       0       0       0       0       0
       0       0       0       0       0       0       0       0       0       0
       0       0       0       0       0       0       0       0       0       0
       0       0       0       0       0       0       0       0       0       0
       0       0       0       0       0       0       0       0       0       0
       0       0       0       0       0       0       0       0       0       0
       0       0       0       0       0       0       0       0       0       0
       0       0       0       0       0       0       0       0       0       0
       0       0       0       0       0       0       0       0       0       0
       0       0       0       0       0       0       0       0       0       0
       0       0       0       0       0       0       0       0       0       0
       0       0       0       0       0       0       0       0       0       0
       0       0       0       0       0       0       0       0       0       0
       0       0       0       0       0       0       0       0       0       0
       0       0       0       0       0       0       0       0       0       0
       0       0       0       0       0       0       0       0       0       0
       0       0       0       0       0       0       0       0       0       0
       0       0       0       0       0       0       0       0       0       0
       0       0       0       0       0       0       0       0       0       0
       0       0       0       0       0       0       0       0       0       0
       0       0       0       0       0       0       0       0       0       0
       0       0       0       0       0       0       0       0       0       0
       0       0       0       0       0       0       0       0       0       0
       0       0       0       0       0       0       0       0       0       0
       0       0       0       0       0       0       0       0       0       0
       0       0       0       0       0       0       0       0       0       0
       0       0       0       0       0       0       0       0       0       0
       0       0       0       0       0       0       0       0       0       0
       0       0       0       0       0       0       0       0       0       0
       0       0       0       0       0       0       0       0       0       0
       0       0       0       0       0       0       0       0       0       0
       0       0       0       0       0       0       0       0       0       0
       0       0       0       0       0       0       0       0       0       0
       0       0       0       0       0       0       0       0       0       0
       0       0       0       0       0       0       0       0       0       0
       0       0       0       0       0       0       0       0       0       0
       0       0       0       0       0       0       0       0       0       0
       0       0       0       0       0       0       0       0       0       0
       0       0       0       0       0       0       0       0       0       0
       0       0       0       0       0       0       0       0       0       0
       0       0       0       0       0       0       0       0       0       0
       0       0       0       0       0       0       0       0       0       0
       0       0       0       0       0       0       0       0       0       0
       0       0       0       0       0       0       0       0       0       0
       0       0       0       0       0       0       0       0       0       0
       0       0       0       0       0       0       0       0       0       0
       0       0       0       0       0       0       0       0       0       0
       0       0       0       0       0       0       0       0       0       0
       0       0       0       0       0       0       0       0       0       0
       0       0       0       0       0       0       0       0       0       0
       0       0       0       0       0       0       0       0       0       0
       0       0       0       0       0       0       0       0       0       0
       0       0       0       0       0       0       0       0       0       0
       0       0       0       0       0       0       0       0       0       0
       0       0       0       0       0       0       0       0       0       0
       0       0       0       0       0       0       0       0       0       0
       0       0       0       0       0       0       0       0       0       0
       0       0       0       0       0       0       0       0       0       0
       0       0       0       0       0       0       0       0       0       0
       0       0       0       0       0       0       0       0       0       0
       0       0       0       0       0       0       0       0       0       0
       0       0       0       0       0       0       0       0       0       0
       0       0       0       0       0       0       0       0       0       0
       0       0       0       0       0       0       0       0       0       0
       0       0       0       0       0       0       0       0       0       0
       0       0       0       0       0       0       0       0       0       0
       0       0       0       0       0       0       0       0       0       0
       0       0       0       0       0       0       0       0       0       0
       0       0       0       0       0       0       0       0       0       0
       0       0       0       0       0       0       0       0       0       0
       0       0       0       0       0       0       0       0       0       0
       0       0       0       0       0       0       0       0       0       0
       0       0       0       0       0       0       0       0       0       0
       0       0       0       0       0       0       0       0       0       0
       0       0       0       0       0       0       0       0       0       0
       0       0       0       0       0       0       0       0       0       0
       0       0       0       0       0       0       0       0       0       0
       0       0       0       0       0       0       0       0       0       0
       0       0       0       0       0       0       0       0       0       0
       0       0       0       0       0       0       0       0       0       0
       0       0       0       0       0       0       0       0       0       0
       0       0       0       0       0       0       0       0       0       0
       0       0       0       0       0       0       0       0       0       0
       0       0       0       0       0       0       0       0       0       0
       0       0       0       0       0       0       0       0       0       0
       0       0       0       0       0       0       0       0       0       0
       0       0       0       0       0       0       0       0       0       0
       0       0       0       0       0       0       0       0       0       0
       0       0       0       0       0       0       0       0       0       0
       0       0       0       0       0       0       0       0       0       0
       0       0       0       0       0       0       0       0       0       0
       0       0       0       0       0       0       0       0       0       0
       0       0       0       0       0       0       0       0       0       0
       0       0       0       0       0       0       0       0       0       0
       0       0       0       0       0       0       0       0       0       0
       0       0       0       0       0       0       0       0       0       0
       0       0       0       0       0       0       0       0       0       0
       0       0       0       0       0       0       0       0       0       0
       0       0       0       0       0       0       0       0       0       0
       0       0       0       0       0       0       0       0       0       0
       0       0       0       0       0       0       0       0       0       0
       0       0       0       0       0       0       0       0       0       0
       0       0       0       0       0       0       0       0       0       0
       0       0       0       0       0       0       0       0       0       0
       0       0       0       0       0       0       0       0       0       0
       0       0       0       0       0       0       0       0       0       0
       0       0       0       0       0       0       0       0       0       0
%FLAG RADIUS_SET                                                                
%FORMAT(1a80)                                                                   
modified Bondi radii (mbondi)                                                   
%FLAG RADII                                                                     
%FORMAT(5E16.8)                                                                 
  1.70000000E+00  1.70000000E+00  1.70000000E+00  1.70000000E+00  1.70000000E+00
  1.70000000E+00  1.70000000E+00  1.70000000E+00  1.70000000E+00  1.70000000E+00
  1.70000000E+00  1.70000000E+00  1.70000000E+00  1.70000000E+00  1.70000000E+00
  1.70000000E+00  1.70000000E+00  1.70000000E+00  1.70000000E+00  1.70000000E+00
  1.70000000E+00  1.70000000E+00  1.70000000E+00  1.70000000E+00  1.70000000E+00
  1.70000000E+00  1.70000000E+00  1.70000000E+00  1.70000000E+00  1.70000000E+00
  1.70000000E+00  1.70000000E+00  1.70000000E+00  1.70000000E+00  1.70000000E+00
  1.70000000E+00  1.70000000E+00  1.70000000E+00  1.70000000E+00  1.70000000E+00
  1.70000000E+00  1.70000000E+00  1.70000000E+00  1.70000000E+00  1.70000000E+00
  1.70000000E+00  1.70000000E+00  1.70000000E+00  1.70000000E+00  1.70000000E+00
  1.70000000E+00  1.70000000E+00  1.70000000E+00  1.70000000E+00  1.70000000E+00
  1.70000000E+00  1.70000000E+00  1.70000000E+00  1.70000000E+00  1.70000000E+00
  1.70000000E+00  1.70000000E+00  1.70000000E+00  1.70000000E+00  1.70000000E+00
  1.70000000E+00  1.70000000E+00  1.70000000E+00  1.70000000E+00  1.70000000E+00
  1.70000000E+00  1.70000000E+00  1.70000000E+00  1.70000000E+00  1.70000000E+00
  1.70000000E+00  1.70000000E+00  1.55000000E+00  1.70000000E+00  1.70000000E+00
  1.70000000E+00  1.70000000E+00  1.70000000E+00  1.70000000E+00  1.70000000E+00
  1.70000000E+00  1.70000000E+00  1.70000000E+00  1.55000000E+00  1.70000000E+00
  1.70000000E+00  1.70000000E+00  1.70000000E+00  1.70000000E+00  1.70000000E+00
  1.70000000E+00  1.70000000E+00  1.70000000E+00  1.70000000E+00  1.55000000E+00
  1.70000000E+00  1.70000000E+00  1.70000000E+00  1.70000000E+00  1.70000000E+00
  1.70000000E+00  1.70000000E+00  1.70000000E+00  1.70000000E+00  1.70000000E+00
  1.55000000E+00  1.70000000E+00  1.70000000E+00  1.70000000E+00  1.70000000E+00
  1.70000000E+00  1.70000000E+00  1.70000000E+00  1.70000000E+00  1.70000000E+00
  1.70000000E+00  1.55000000E+00  1.70000000E+00  1.70000000E+00  1.70000000E+00
  1.70000000E+00  1.70000000E+00  1.70000000E+00  1.70000000E+00  1.70000000E+00
  1.70000000E+00  1.70000000E+00  1.55000000E+00  1.70000000E+00  1.70000000E+00
  1.70000000E+00  1.70000000E+00  1.70000000E+00  1.70000000E+00  1.70000000E+00
  1.70000000E+00  1.70000000E+00  1.70000000E+00  1.55000000E+00  1.70000000E+00
  1.70000000E+00  1.70000000E+00  1.70000000E+00  1.70000000E+00  1.70000000E+00
  1.70000000E+00  1.70000000E+00  1.70000000E+00  1.70000000E+00  1.55000000E+00
  1.70000000E+00  1.70000000E+00  1.70000000E+00  1.70000000E+00  1.70000000E+00
  1.70000000E+00  1.70000000E+00  1.70000000E+00  1.70000000E+00  1.70000000E+00
  1.55000000E+00  1.70000000E+00  1.70000000E+00  1.70000000E+00  1.70000000E+00
  1.70000000E+00  1.70000000E+00  1.70000000E+00  1.70000000E+00  1.70000000E+00
  1.70000000E+00  1.55000000E+00  1.70000000E+00  1.70000000E+00  1.70000000E+00
  1.70000000E+00  1.70000000E+00  1.70000000E+00  1.70000000E+00  1.70000000E+00
  1.70000000E+00  1.70000000E+00  1.55000000E+00  1.70000000E+00  1.70000000E+00
  1.70000000E+00  1.70000000E+00  1.70000000E+00  1.70000000E+00  1.70000000E+00
  1.70000000E+00  1.70000000E+00  1.70000000E+00  1.55000000E+00  1.70000000E+00
  1.70000000E+00  1.70000000E+00  1.70000000E+00  1.70000000E+00  1.70000000E+00
  1.70000000E+00  1.70000000E+00  1.70000000E+00  1.70000000E+00  1.70000000E+00
  1.70000000E+00  1.70000000E+00  1.70000000E+00  1.70000000E+00  1.70000000E+00
  1.70000000E+00  1.70000000E+00  1.70000000E+00  1.70000000E+00  1.70000000E+00
  1.70000000E+00  1.70000000E+00  1.70000000E+00  1.70000000E+00  1.70000000E+00
  1.70000000E+00  1.70000000E+00  1.70000000E+00  1.70000000E+00  1.70000000E+00
  1.70000000E+00  1.70000000E+00  1.70000000E+00  1.70000000E+00  1.70000000E+00
  1.70000000E+00  1.70000000E+00  1.70000000E+00  1.70000000E+00  1.70000000E+00
  1.70000000E+00  1.70000000E+00  1.70000000E+00  1.70000000E+00  1.70000000E+00
  1.70000000E+00  1.70000000E+00  1.70000000E+00  1.55000000E+00  1.70000000E+00
  1.70000000E+00  1.70000000E+00  1.70000000E+00  1.70000000E+00  1.70000000E+00
  1.70000000E+00  1.70000000E+00  1.70000000E+00  1.70000000E+00  1.55000000E+00
  1.70000000E+00  1.70000000E+00  1.70000000E+00  1.70000000E+00  1.70000000E+00
  1.70000000E+00  1.70000000E+00  1.70000000E+00  1.70000000E+00  1.70000000E+00
  1.55000000E+00  1.70000000E+00  1.70000000E+00  1.70000000E+00  1.70000000E+00
  1.70000000E+00  1.70000000E+00  1.70000000E+00  1.70000000E+00  1.70000000E+00
  1.70000000E+00  1.55000000E+00  1.70000000E+00  1.70000000E+00  1.70000000E+00
  1.70000000E+00  1.70000000E+00  1.70000000E+00  1.70000000E+00  1.70000000E+00
  1.70000000E+00  1.70000000E+00  1.55000000E+00  1.70000000E+00  1.70000000E+00
  1.70000000E+00  1.70000000E+00  1.70000000E+00  1.70000000E+00  1.70000000E+00
  1.70000000E+00  1.70000000E+00  1.70000000E+00  1.55000000E+00  1.70000000E+00
  1.70000000E+00  1.70000000E+00  1.70000000E+00  1.70000000E+00  1.70000000E+00
  1.70000000E+00  1.70000000E+00  1.70000000E+00  1.70000000E+00  1.55000000E+00
  1.70000000E+00  1.70000000E+00  1.70000000E+00  1.70000000E+00  1.70000000E+00
  1.70000000E+00  1.70000000E+00  1.70000000E+00  1.70000000E+00  1.70000000E+00
  1.55000000E+00  1.70000000E+00  1.70000000E+00  1.70000000E+00  1.70000000E+00
  1.70000000E+00  1.70000000E+00  1.70000000E+00  1.70000000E+00  1.70000000E+00
  1.70000000E+00  1.55000000E+00  1.70000000E+00  1.70000000E+00  1.70000000E+00
  1.70000000E+00  1.70000000E+00  1.70000000E+00  1.70000000E+00  1.70000000E+00
  1.70000000E+00  1.70000000E+00  1.55000000E+00  1.70000000E+00  1.70000000E+00
  1.70000000E+00  1.70000000E+00  1.70000000E+00  1.70000000E+00  1.70000000E+00
  1.70000000E+00  1.70000000E+00  1.70000000E+00  1.55000000E+00  1.70000000E+00
  1.70000000E+00  1.70000000E+00  1.70000000E+00  1.70000000E+00  1.70000000E+00
  1.70000000E+00  1.70000000E+00  1.70000000E+00  1.70000000E+00  1.70000000E+00
  1.70000000E+00  1.70000000E+00  1.70000000E+00  1.70000000E+00  1.70000000E+00
  1.70000000E+00  1.70000000E+00  1.70000000E+00  1.70000000E+00  1.70000000E+00
  1.70000000E+00  1.70000000E+00  1.70000000E+00  1.70000000E+00  1.70000000E+00
  1.70000000E+00  1.70000000E+00  1.70000000E+00  1.70000000E+00  1.70000000E+00
  1.70000000E+00  1.70000000E+00  1.70000000E+00  1.70000000E+00  1.70000000E+00
  1.70000000E+00  1.70000000E+00  1.70000000E+00  1.70000000E+00  1.70000000E+00
  1.70000000E+00  1.70000000E+00  1.70000000E+00  1.70000000E+00  1.70000000E+00
  1.70000000E+00  1.55000000E+00  1.70000000E+00  1.70000000E+00  1.70000000E+00
  1.70000000E+00  1.70000000E+00  1.70000000E+00  1.70000000E+00  1.70000000E+00
  1.70000000E+00  1.70000000E+00  1.55000000E+00  1.70000000E+00  1.70000000E+00
  1.70000000E+00  1.70000000E+00  1.70000000E+00  1.70000000E+00  1.70000000E+00
  1.70000000E+00  1.70000000E+00  1.70000000E+00  1.55000000E+00  1.70000000E+00
  1.70000000E+00  1.70000000E+00  1.70000000E+00  1.70000000E+00  1.70000000E+00
  1.70000000E+00  1.70000000E+00  1.70000000E+00  1.70000000E+00  1.55000000E+00
  1.70000000E+00  1.70000000E+00  1.70000000E+00  1.70000000E+00  1.70000000E+00
  1.70000000E+00  1.70000000E+00  1.70000000E+00  1.70000000E+00  1.70000000E+00
  1.55000000E+00  1.70000000E+00  1.70000000E+00  1.70000000E+00  1.70000000E+00
  1.70000000E+00  1.70000000E+00  1.70000000E+00  1.70000000E+00  1.70000000E+00
  1.70000000E+00  1.55000000E+00  1.70000000E+00  1.70000000E+00  1.70000000E+00
  1.70000000E+00  1.70000000E+00  1.70000000E+00  1.70000000E+00  1.70000000E+00
  1.70000000E+00  1.70000000E+00  1.55000000E+00  1.70000000E+00  1.70000000E+00
  1.70000000E+00  1.70000000E+00  1.70000000E+00  1.70000000E+00  1.70000000E+00
  1.70000000E+00  1.70000000E+00  1.70000000E+00  1.55000000E+00  1.70000000E+00
  1.70000000E+00  1.70000000E+00  1.70000000E+00  1.70000000E+00  1.70000000E+00
  1.70000000E+00  1.70000000E+00  1.70000000E+00  1.70000000E+00  1.55000000E+00
  1.70000000E+00  1.70000000E+00  1.70000000E+00  1.70000000E+00  1.70000000E+00
  1.70000000E+00  1.70000000E+00  1.70000000E+00  1.70000000E+00  1.70000000E+00
  1.55000000E+00  1.70000000E+00  1.70000000E+00  1.70000000E+00  1.70000000E+00
  1.70000000E+00  1.70000000E+00  1.70000000E+00  1.70000000E+00  1.70000000E+00
  1.70000000E+00  1.55000000E+00  1.70000000E+00  1.70000000E+00  1.70000000E+00
  1.70000000E+00  1.70000000E+00  1.70000000E+00  1.70000000E+00  1.70000000E+00
  1.70000000E+00  1.70000000E+00  1.55000000E+00  1.70000000E+00  1.70000000E+00
  1.70000000E+00  1.70000000E+00  1.70000000E+00  1.70000000E+00  1.70000000E+00
  1.70000000E+00  1.70000000E+00  1.70000000E+00  1.55000000E+00  1.70000000E+00
  1.70000000E+00  1.70000000E+00  1.70000000E+00  1.70000000E+00  1.70000000E+00
  1.70000000E+00  1.70000000E+00  1.70000000E+00  1.70000000E+00  1.70000000E+00
  1.70000000E+00  1.55000000E+00  1.70000000E+00  1.70000000E+00  1.70000000E+00
  1.70000000E+00  1.70000000E+00  1.70000000E+00  1.70000000E+00  1.70000000E+00
  1.70000000E+00  1.70000000E+00  1.55000000E+00  1.70000000E+00  1.70000000E+00
  1.70000000E+00  1.70000000E+00  1.70000000E+00  1.70000000E+00  1.70000000E+00
  1.70000000E+00  1.70000000E+00  1.70000000E+00  1.55000000E+00  1.70000000E+00
  1.70000000E+00  1.70000000E+00  1.70000000E+00  1.70000000E+00  1.70000000E+00
  1.70000000E+00  1.70000000E+00  1.70000000E+00  1.70000000E+00  1.55000000E+00
  1.70000000E+00  1.70000000E+00  1.70000000E+00  1.70000000E+00  1.70000000E+00
  1.70000000E+00  1.70000000E+00  1.70000000E+00  1.70000000E+00  1.70000000E+00
  1.55000000E+00  1.70000000E+00  1.70000000E+00  1.70000000E+00  1.70000000E+00
  1.70000000E+00  1.70000000E+00  1.70000000E+00  1.70000000E+00  1.70000000E+00
  1.70000000E+00  1.55000000E+00  1.70000000E+00  1.70000000E+00  1.70000000E+00
  1.70000000E+00  1.70000000E+00  1.70000000E+00  1.70000000E+00  1.70000000E+00
  1.70000000E+00  1.70000000E+00  1.55000000E+00  1.70000000E+00  1.70000000E+00
  1.70000000E+00  1.70000000E+00  1.70000000E+00  1.70000000E+00  1.70000000E+00
  1.70000000E+00  1.70000000E+00  1.70000000E+00  1.55000000E+00  1.70000000E+00
  1.70000000E+00  1.70000000E+00  1.70000000E+00  1.70000000E+00  1.70000000E+00
  1.70000000E+00  1.70000000E+00  1.70000000E+00  1.70000000E+00  1.55000000E+00
  1.70000000E+00  1.70000000E+00  1.70000000E+00  1.70000000E+00  1.70000000E+00
  1.70000000E+00  1.70000000E+00  1.70000000E+00  1.70000000E+00  1.70000000E+00
  1.55000000E+00  1.70000000E+00  1.70000000E+00  1.70000000E+00  1.70000000E+00
  1.70000000E+00  1.70000000E+00  1.70000000E+00  1.70000000E+00  1.70000000E+00
  1.70000000E+00  1.55000000E+00  1.70000000E+00  1.70000000E+00  1.70000000E+00
  1.70000000E+00  1.70000000E+00  1.70000000E+00  1.70000000E+00  1.70000000E+00
  1.70000000E+00  1.70000000E+00  1.55000000E+00  1.70000000E+00  1.70000000E+00
  1.70000000E+00  1.70000000E+00  1.70000000E+00  1.30000000E+00  1.30000000E+00
  1.30000000E+00  1.30000000E+00  1.30000000E+00  1.30000000E+00  1.30000000E+00
  1.30000000E+00  1.30000000E+00  1.30000000E+00  1.30000000E+00  1.30000000E+00
  1.30000000E+00  1.30000000E+00  1.30000000E+00  1.30000000E+00  1.30000000E+00
  1.30000000E+00  1.30000000E+00  1.30000000E+00  1.30000000E+00  1.30000000E+00
  1.30000000E+00  1.30000000E+00  1.30000000E+00  1.30000000E+00  1.30000000E+00
  1.30000000E+00  1.30000000E+00  1.30000000E+00  1.30000000E+00  1.30000000E+00
  1.30000000E+00  1.30000000E+00  1.30000000E+00  1.30000000E+00  1.30000000E+00
  1.30000000E+00  1.30000000E+00  1.30000000E+00  1.30000000E+00  1.30000000E+00
  1.30000000E+00  1.30000000E+00  1.30000000E+00  1.30000000E+00  1.30000000E+00
  1.30000000E+00  1.30000000E+00  1.30000000E+00  1.30000000E+00  1.30000000E+00
  1.30000000E+00  1.30000000E+00  1.30000000E+00  1.30000000E+00  1.30000000E+00
  1.30000000E+00  1.30000000E+00  1.30000000E+00  1.30000000E+00  1.30000000E+00
  1.30000000E+00  1.30000000E+00  1.30000000E+00  1.30000000E+00  1.30000000E+00
  1.30000000E+00  1.30000000E+00  1.30000000E+00  1.30000000E+00  1.30000000E+00
  1.30000000E+00  1.30000000E+00  1.30000000E+00  1.30000000E+00  1.30000000E+00
  1.30000000E+00  1.30000000E+00  1.30000000E+00  1.30000000E+00  1.30000000E+00
  1.30000000E+00  1.30000000E+00  1.30000000E+00  1.30000000E+00  1.30000000E+00
  1.30000000E+00  1.30000000E+00  1.30000000E+00  1.30000000E+00  1.30000000E+00
  1.30000000E+00  1.30000000E+00  1.30000000E+00  1.30000000E+00  1.30000000E+00
  1.30000000E+00  1.30000000E+00  1.30000000E+00  1.30000000E+00  1.30000000E+00
  1.30000000E+00  1.30000000E+00  1.30000000E+00  1.30000000E+00  1.30000000E+00
  1.30000000E+00  1.30000000E+00  1.30000000E+00  1.30000000E+00  1.30000000E+00
  1.30000000E+00  1.30000000E+00  1.30000000E+00  1.30000000E+00  1.30000000E+00
  1.30000000E+00  1.30000000E+00  1.30000000E+00  1.30000000E+00  1.30000000E+00
  1.30000000E+00  1.30000000E+00  1.30000000E+00  1.30000000E+00  1.30000000E+00
  1.30000000E+00  1.30000000E+00  1.30000000E+00  1.30000000E+00  1.30000000E+00
  1.30000000E+00  1.30000000E+00  1.30000000E+00  1.30000000E+00  1.30000000E+00
  1.30000000E+00  1.30000000E+00  1.30000000E+00  1.30000000E+00  1.30000000E+00
  1.30000000E+00  1.30000000E+00  1.30000000E+00  1.30000000E+00  1.30000000E+00
  1.30000000E+00  1.30000000E+00  1.30000000E+00  1.30000000E+00  1.30000000E+00
  1.30000000E+00  1.30000000E+00  1.30000000E+00  1.30000000E+00  1.30000000E+00
  1.30000000E+00  1.30000000E+00  1.30000000E+00  1.30000000E+00  1.30000000E+00
  1.30000000E+00  1.30000000E+00  1.30000000E+00  1.30000000E+00  1.30000000E+00
  1.30000000E+00  1.30000000E+00  1.30000000E+00  1.30000000E+00  1.30000000E+00
  1.30000000E+00  1.30000000E+00  1.30000000E+00  1.30000000E+00  1.30000000E+00
  1.30000000E+00  1.30000000E+00  1.30000000E+00  1.30000000E+00  1.30000000E+00
  1.30000000E+00  1.30000000E+00  1.30000000E+00  1.30000000E+00  1.30000000E+00
  1.30000000E+00  1.30000000E+00  1.30000000E+00  1.30000000E+00  1.30000000E+00
  1.30000000E+00  1.30000000E+00  1.30000000E+00  1.30000000E+00  1.30000000E+00
  1.30000000E+00  1.30000000E+00  1.30000000E+00  1.30000000E+00  1.30000000E+00
  1.30000000E+00  1.30000000E+00  1.30000000E+00  1.30000000E+00  1.30000000E+00
  1.30000000E+00  1.30000000E+00  1.30000000E+00  1.30000000E+00  1.30000000E+00
  1.30000000E+00  1.30000000E+00  1.30000000E+00  1.30000000E+00  1.30000000E+00
  1.30000000E+00  1.30000000E+00  1.30000000E+00  1.30000000E+00  1.30000000E+00
  1.30000000E+00  1.30000000E+00  1.30000000E+00  1.30000000E+00  1.30000000E+00
  1.30000000E+00  1.30000000E+00  1.30000000E+00  1.30000000E+00  1.30000000E+00
  1.30000000E+00  1.30000000E+00  1.30000000E+00  1.30000000E+00  1.30000000E+00
  1.30000000E+00  1.30000000E+00  1.30000000E+00  1.30000000E+00  1.30000000E+00
  1.30000000E+00  1.30000000E+00  1.30000000E+00  1.30000000E+00  1.30000000E+00
  1.30000000E+00  1.30000000E+00  1.30000000E+00  1.30000000E+00  1.30000000E+00
  1.30000000E+00  1.30000000E+00  1.30000000E+00  1.30000000E+00  1.30000000E+00
  1.30000000E+00  1.30000000E+00  1.30000000E+00  1.30000000E+00  1.30000000E+00
  1.30000000E+00  1.30000000E+00  1.30000000E+00  1.30000000E+00  1.30000000E+00
  1.30000000E+00  1.30000000E+00  1.30000000E+00  1.30000000E+00  1.30000000E+00
  1.30000000E+00  1.30000000E+00  1.30000000E+00  1.30000000E+00  1.30000000E+00
  1.30000000E+00  1.30000000E+00  1.30000000E+00  1.30000000E+00  1.30000000E+00
  1.30000000E+00  1.30000000E+00  1.30000000E+00  1.30000000E+00  1.30000000E+00
  1.30000000E+00  1.30000000E+00  1.30000000E+00  1.30000000E+00  1.30000000E+00
  1.30000000E+00  1.30000000E+00  1.30000000E+00  1.30000000E+00  1.30000000E+00
  1.30000000E+00  1.30000000E+00  1.30000000E+00  1.30000000E+00  1.30000000E+00
  1.30000000E+00  1.30000000E+00  1.30000000E+00  1.30000000E+00  1.30000000E+00
  1.30000000E+00  1.30000000E+00  1.30000000E+00  1.30000000E+00  1.30000000E+00
  1.30000000E+00  1.30000000E+00  1.30000000E+00  1.30000000E+00  1.30000000E+00
  1.30000000E+00  1.30000000E+00  1.30000000E+00  1.30000000E+00  1.30000000E+00
  1.30000000E+00  1.30000000E+00  1.30000000E+00  1.30000000E+00  1.30000000E+00
  1.30000000E+00  1.30000000E+00  1.30000000E+00  1.30000000E+00  1.30000000E+00
  1.30000000E+00  1.30000000E+00  1.30000000E+00  1.30000000E+00  1.30000000E+00
  1.30000000E+00  1.30000000E+00  1.30000000E+00  1.30000000E+00  1.30000000E+00
  1.30000000E+00  1.30000000E+00  1.30000000E+00  1.30000000E+00  1.30000000E+00
  1.30000000E+00  1.30000000E+00  1.30000000E+00  1.30000000E+00  1.30000000E+00
  1.30000000E+00  1.30000000E+00  1.30000000E+00  1.30000000E+00  1.30000000E+00
  1.30000000E+00  1.30000000E+00  1.30000000E+00  1.30000000E+00  1.30000000E+00
  1.30000000E+00  1.30000000E+00  1.30000000E+00  1.30000000E+00  1.30000000E+00
  1.30000000E+00  1.30000000E+00  1.30000000E+00  1.30000000E+00  1.30000000E+00
  1.30000000E+00  1.30000000E+00  1.30000000E+00  1.30000000E+00  1.30000000E+00
  1.30000000E+00  1.30000000E+00  1.30000000E+00  1.30000000E+00  1.30000000E+00
  1.30000000E+00  1.30000000E+00  1.30000000E+00  1.30000000E+00  1.30000000E+00
  1.30000000E+00  1.30000000E+00  1.30000000E+00  1.30000000E+00  1.30000000E+00
  1.30000000E+00  1.30000000E+00  1.30000000E+00  1.30000000E+00  1.30000000E+00
  1.30000000E+00  1.30000000E+00  1.30000000E+00  1.30000000E+00  1.30000000E+00
  1.30000000E+00  1.30000000E+00  1.30000000E+00  1.30000000E+00  1.30000000E+00
  1.30000000E+00  1.30000000E+00  1.30000000E+00  1.30000000E+00  1.30000000E+00
  1.30000000E+00  1.30000000E+00  1.30000000E+00  1.30000000E+00  1.30000000E+00
  1.30000000E+00  1.30000000E+00  1.30000000E+00  1.30000000E+00  1.30000000E+00
  1.30000000E+00  1.30000000E+00  1.30000000E+00  1.30000000E+00  1.30000000E+00
  1.30000000E+00  1.30000000E+00  1.30000000E+00  1.30000000E+00  1.30000000E+00
  1.30000000E+00  1.30000000E+00  1.30000000E+00  1.30000000E+00  1.30000000E+00
  1.30000000E+00  1.30000000E+00  1.30000000E+00  1.30000000E+00  1.30000000E+00
  1.30000000E+00  1.30000000E+00  1.30000000E+00  1.30000000E+00  1.30000000E+00
  1.30000000E+00  1.30000000E+00  1.30000000E+00  1.30000000E+00  1.30000000E+00
  1.30000000E+00  1.30000000E+00  1.30000000E+00  1.30000000E+00  1.30000000E+00
  1.30000000E+00  1.30000000E+00  1.30000000E+00  1.30000000E+00  1.30000000E+00
  1.30000000E+00  1.30000000E+00  1.30000000E+00  1.30000000E+00  1.30000000E+00
  1.30000000E+00  1.30000000E+00  1.30000000E+00  1.30000000E+00  1.30000000E+00
  1.30000000E+00  1.30000000E+00  1.30000000E+00  1.30000000E+00  1.30000000E+00
  1.30000000E+00  1.30000000E+00  1.30000000E+00  1.30000000E+00  1.30000000E+00
  1.30000000E+00  1.30000000E+00  1.30000000E+00  1.30000000E+00  1.30000000E+00
  1.30000000E+00  1.30000000E+00  1.30000000E+00  1.30000000E+00  1.30000000E+00
  1.30000000E+00  1.30000000E+00  1.30000000E+00  1.30000000E+00  1.30000000E+00
  1.30000000E+00  1.30000000E+00  1.30000000E+00  1.30000000E+00  1.30000000E+00
  1.30000000E+00  1.30000000E+00  1.30000000E+00  1.30000000E+00  1.30000000E+00
  1.30000000E+00  1.30000000E+00  1.30000000E+00  1.30000000E+00  1.30000000E+00
  1.30000000E+00  1.30000000E+00  1.30000000E+00  1.30000000E+00  1.30000000E+00
  1.30000000E+00  1.30000000E+00  1.30000000E+00  1.30000000E+00  1.30000000E+00
  1.30000000E+00  1.30000000E+00  1.30000000E+00  1.30000000E+00  1.30000000E+00
  1.30000000E+00  1.30000000E+00  1.30000000E+00  1.30000000E+00  1.30000000E+00
  1.30000000E+00  1.30000000E+00  1.30000000E+00  1.30000000E+00  1.30000000E+00
  1.30000000E+00  1.30000000E+00  1.30000000E+00  1.30000000E+00  1.30000000E+00
  1.30000000E+00  1.30000000E+00  1.30000000E+00  1.30000000E+00  1.30000000E+00
  1.30000000E+00  1.30000000E+00  1.30000000E+00  1.30000000E+00  1.30000000E+00
  1.30000000E+00  1.30000000E+00  1.30000000E+00  1.30000000E+00  1.30000000E+00
  1.30000000E+00  1.30000000E+00  1.30000000E+00  1.30000000E+00  1.30000000E+00
  1.30000000E+00  1.30000000E+00  1.30000000E+00  1.30000000E+00  1.30000000E+00
  1.30000000E+00  1.30000000E+00  1.30000000E+00  1.30000000E+00  1.30000000E+00
  1.30000000E+00  1.30000000E+00  1.30000000E+00  1.30000000E+00  1.30000000E+00
  1.30000000E+00  1.30000000E+00  1.30000000E+00  1.30000000E+00  1.30000000E+00
  1.30000000E+00  1.30000000E+00  1.30000000E+00  1.30000000E+00  1.30000000E+00
  1.30000000E+00  1.30000000E+00  1.30000000E+00  1.30000000E+00  1.30000000E+00
  1.30000000E+00  1.30000000E+00  1.30000000E+00  1.30000000E+00  1.30000000E+00
  1.30000000E+00  1.30000000E+00  1.30000000E+00  1.30000000E+00  1.30000000E+00
  1.30000000E+00  1.30000000E+00  1.30000000E+00  1.30000000E+00  1.30000000E+00
  1.30000000E+00  1.30000000E+00  1.30000000E+00  1.30000000E+00  1.30000000E+00
  1.30000000E+00  1.30000000E+00  1.30000000E+00  1.30000000E+00  1.30000000E+00
  1.30000000E+00  1.30000000E+00  1.30000000E+00  1.30000000E+00  1.30000000E+00
  1.30000000E+00  1.30000000E+00  1.30000000E+00  1.30000000E+00  1.30000000E+00
  1.30000000E+00  1.30000000E+00  1.30000000E+00  1.30000000E+00  1.30000000E+00
  1.30000000E+00  1.30000000E+00  1.30000000E+00  1.30000000E+00  1.30000000E+00
  1.30000000E+00  1.30000000E+00  1.30000000E+00  1.30000000E+00  1.30000000E+00
  1.30000000E+00  1.30000000E+00  1.30000000E+00  1.30000000E+00  1.30000000E+00
  1.30000000E+00  1.30000000E+00  1.30000000E+00  1.30000000E+00  1.30000000E+00
  1.30000000E+00  1.30000000E+00  1.30000000E+00  1.30000000E+00  1.30000000E+00
  1.30000000E+00  1.30000000E+00  1.30000000E+00  1.30000000E+00  1.30000000E+00
  1.30000000E+00  1.30000000E+00  1.30000000E+00  1.30000000E+00  1.30000000E+00
  1.30000000E+00  1.30000000E+00  1.30000000E+00  1.30000000E+00  1.30000000E+00
  1.30000000E+00  1.30000000E+00  1.30000000E+00  1.30000000E+00  1.30000000E+00
  1.30000000E+00  1.30000000E+00  1.30000000E+00  1.30000000E+00  1.30000000E+00
  1.30000000E+00  1.30000000E+00  1.30000000E+00  1.30000000E+00  1.30000000E+00
  1.30000000E+00  1.30000000E+00  1.30000000E+00  1.30000000E+00  1.30000000E+00
  1.30000000E+00  1.30000000E+00  1.30000000E+00  1.30000000E+00  1.30000000E+00
  1.30000000E+00  1.30000000E+00  1.30000000E+00  1.30000000E+00  1.30000000E+00
  1.30000000E+00  1.30000000E+00  1.30000000E+00  1.30000000E+00  1.30000000E+00
  1.30000000E+00  1.30000000E+00  1.30000000E+00  1.30000000E+00  1.30000000E+00
  1.30000000E+00  1.30000000E+00  1.30000000E+00  1.30000000E+00  1.30000000E+00
  1.30000000E+00  1.30000000E+00  1.30000000E+00  1.30000000E+00  1.30000000E+00
  1.30000000E+00  1.30000000E+00  1.30000000E+00  1.30000000E+00  1.30000000E+00
  1.30000000E+00  1.30000000E+00  1.30000000E+00  1.30000000E+00  1.30000000E+00
  1.30000000E+00  1.30000000E+00  1.30000000E+00  1.30000000E+00  1.30000000E+00
  1.30000000E+00  1.30000000E+00  1.30000000E+00  1.30000000E+00  1.30000000E+00
  1.30000000E+00  1.30000000E+00  1.30000000E+00  1.30000000E+00  1.30000000E+00
  1.30000000E+00  1.30000000E+00  1.30000000E+00  1.30000000E+00  1.30000000E+00
  1.30000000E+00  1.30000000E+00  1.30000000E+00  1.30000000E+00  1.30000000E+00
  1.30000000E+00  1.30000000E+00  1.30000000E+00  1.30000000E+00  1.30000000E+00
  1.30000000E+00  1.30000000E+00  1.30000000E+00  1.30000000E+00  1.30000000E+00
  1.30000000E+00  1.30000000E+00  1.30000000E+00  1.30000000E+00  1.30000000E+00
  1.30000000E+00  1.30000000E+00  1.30000000E+00  1.30000000E+00  1.30000000E+00
  1.30000000E+00  1.30000000E+00  1.30000000E+00  1.30000000E+00  1.30000000E+00
  1.30000000E+00  1.30000000E+00  1.30000000E+00  1.30000000E+00  1.30000000E+00
  1.30000000E+00  1.30000000E+00  1.30000000E+00  1.30000000E+00  1.30000000E+00
  1.30000000E+00  1.30000000E+00  1.30000000E+00  1.30000000E+00  1.30000000E+00
  1.30000000E+00  1.30000000E+00  1.30000000E+00  1.30000000E+00  1.30000000E+00
  1.30000000E+00  1.30000000E+00  1.30000000E+00  1.30000000E+00  1.30000000E+00
  1.30000000E+00  1.30000000E+00  1.30000000E+00  1.30000000E+00  1.30000000E+00
  1.30000000E+00  1.30000000E+00  1.30000000E+00  1.30000000E+00  1.30000000E+00
  1.30000000E+00  1.30000000E+00  1.30000000E+00  1.30000000E+00  1.30000000E+00
  1.30000000E+00  1.30000000E+00  1.30000000E+00  1.30000000E+00  1.30000000E+00
  1.30000000E+00  1.30000000E+00  1.30000000E+00  1.30000000E+00  1.30000000E+00
  1.30000000E+00  1.30000000E+00  1.30000000E+00  1.30000000E+00  1.30000000E+00
  1.30000000E+00  1.30000000E+00  1.30000000E+00  1.30000000E+00  1.30000000E+00
  1.30000000E+00  1.30000000E+00  1.30000000E+00  1.30000000E+00  1.30000000E+00
  1.30000000E+00  1.30000000E+00  1.30000000E+00  1.30000000E+00  1.30000000E+00
  1.30000000E+00  1.30000000E+00  1.30000000E+00  1.30000000E+00  1.30000000E+00
  1.30000000E+00  1.30000000E+00  1.30000000E+00  1.30000000E+00  1.30000000E+00
  1.30000000E+00  1.30000000E+00  1.30000000E+00  1.30000000E+00  1.30000000E+00
  1.30000000E+00  1.30000000E+00  1.30000000E+00  1.30000000E+00  1.30000000E+00
  1.30000000E+00  1.30000000E+00  1.30000000E+00  1.30000000E+00  1.30000000E+00
  1.30000000E+00  1.30000000E+00  1.30000000E+00  1.30000000E+00  1.30000000E+00
  1.30000000E+00  1.30000000E+00  1.30000000E+00  1.30000000E+00  1.30000000E+00
  1.30000000E+00  1.30000000E+00  1.30000000E+00  1.30000000E+00  1.30000000E+00
  1.30000000E+00  1.30000000E+00  1.30000000E+00  1.30000000E+00  1.30000000E+00
  1.30000000E+00  1.30000000E+00  1.30000000E+00  1.30000000E+00  1.30000000E+00
  1.30000000E+00  1.30000000E+00  1.30000000E+00  1.30000000E+00  1.30000000E+00
  1.30000000E+00  1.30000000E+00  1.30000000E+00  1.30000000E+00  1.30000000E+00
  1.30000000E+00  1.30000000E+00  1.30000000E+00  1.30000000E+00  1.30000000E+00
  1.30000000E+00  1.30000000E+00  1.30000000E+00  1.30000000E+00  1.30000000E+00
  1.30000000E+00  1.30000000E+00  1.30000000E+00  1.30000000E+00  1.30000000E+00
  1.30000000E+00  1.30000000E+00  1.30000000E+00  1.30000000E+00  1.30000000E+00
  1.30000000E+00  1.30000000E+00  1.30000000E+00  1.30000000E+00  1.30000000E+00
  1.30000000E+00  1.30000000E+00  1.30000000E+00  1.30000000E+00  1.30000000E+00
  1.30000000E+00  1.30000000E+00  1.30000000E+00  1.30000000E+00  1.30000000E+00
  1.30000000E+00  1.30000000E+00  1.30000000E+00  1.30000000E+00  1.30000000E+00
  1.30000000E+00  1.30000000E+00  1.30000000E+00  1.30000000E+00  1.30000000E+00
  1.30000000E+00  1.30000000E+00  1.30000000E+00  1.30000000E+00  1.30000000E+00
  1.30000000E+00  1.30000000E+00  1.30000000E+00  1.30000000E+00  1.80000000E+00
  1.50000000E+00  1.50000000E+00  1.50000000E+00  1.50000000E+00  1.50000000E+00
  1.50000000E+00  1.50000000E+00  1.50000000E+00  1.50000000E+00  1.50000000E+00
  1.50000000E+00  1.50000000E+00  1.50000000E+00  1.50000000E+00  1.50000000E+00
  1.50000000E+00  1.50000000E+00  1.50000000E+00  1.50000000E+00  1.50000000E+00
  1.70000000E+00  1.70000000E+00  1.70000000E+00  1.70000000E+00  1.70000000E+00
  1.70000000E+00  1.70000000E+00  1.70000000E+00  1.70000000E+00  1.70000000E+00
  1.70000000E+00  1.70000000E+00  1.70000000E+00  1.70000000E+00  1.70000000E+00
  1.70000000E+00  1.70000000E+00  1.70000000E+00  1.70000000E+00  1.70000000E+00
  1.70000000E+00  1.70000000E+00  1.70000000E+00  1.70000000E+00  1.70000000E+00
  1.70000000E+00  1.70000000E+00  1.70000000E+00  1.70000000E+00  1.70000000E+00
  1.70000000E+00  1.70000000E+00  1.70000000E+00  1.70000000E+00  1.70000000E+00
  1.70000000E+00  1.70000000E+00  1.70000000E+00  1.70000000E+00  1.70000000E+00
  1.70000000E+00  1.70000000E+00  1.70000000E+00  1.70000000E+00  1.70000000E+00
  1.70000000E+00  1.70000000E+00  1.70000000E+00  1.70000000E+00  1.70000000E+00
  1.70000000E+00  1.70000000E+00  1.70000000E+00  1.70000000E+00  1.70000000E+00
%FLAG SCREEN                                                                    
%FORMAT(5E16.8)                                                                 
  7.20000000E-01  7.20000000E-01  7.20000000E-01  7.20000000E-01  7.20000000E-01
  7.20000000E-01  7.20000000E-01  7.20000000E-01  7.20000000E-01  7.20000000E-01
  7.20000000E-01  7.20000000E-01  7.20000000E-01  7.20000000E-01  7.20000000E-01
  7.20000000E-01  7.20000000E-01  7.20000000E-01  7.20000000E-01  7.20000000E-01
  7.20000000E-01  7.20000000E-01  7.20000000E-01  7.20000000E-01  7.20000000E-01
  7.20000000E-01  7.20000000E-01  7.20000000E-01  7.20000000E-01  7.20000000E-01
  7.20000000E-01  7.20000000E-01  7.20000000E-01  7.20000000E-01  7.20000000E-01
  7.20000000E-01  7.20000000E-01  7.20000000E-01  7.20000000E-01  7.20000000E-01
  7.20000000E-01  7.20000000E-01  7.20000000E-01  7.20000000E-01  7.20000000E-01
  7.20000000E-01  7.20000000E-01  7.20000000E-01  7.20000000E-01  7.20000000E-01
  7.20000000E-01  7.20000000E-01  7.20000000E-01  7.20000000E-01  7.20000000E-01
  7.20000000E-01  7.20000000E-01  7.20000000E-01  7.20000000E-01  7.20000000E-01
  7.20000000E-01  7.20000000E-01  7.20000000E-01  7.20000000E-01  7.20000000E-01
  7.20000000E-01  7.20000000E-01  7.20000000E-01  7.20000000E-01  7.20000000E-01
  7.20000000E-01  7.20000000E-01  7.20000000E-01  7.20000000E-01  7.20000000E-01
  7.20000000E-01  7.20000000E-01  7.90000000E-01  7.20000000E-01  7.20000000E-01
  7.20000000E-01  7.20000000E-01  7.20000000E-01  7.20000000E-01  7.20000000E-01
  7.20000000E-01  7.20000000E-01  7.20000000E-01  7.90000000E-01  7.20000000E-01
  7.20000000E-01  7.20000000E-01  7.20000000E-01  7.20000000E-01  7.20000000E-01
  7.20000000E-01  7.20000000E-01  7.20000000E-01  7.20000000E-01  7.90000000E-01
  7.20000000E-01  7.20000000E-01  7.20000000E-01  7.20000000E-01  7.20000000E-01
  7.20000000E-01  7.20000000E-01  7.20000000E-01  7.20000000E-01  7.20000000E-01
  7.90000000E-01  7.20000000E-01  7.20000000E-01  7.20000000E-01  7.20000000E-01
  7.20000000E-01  7.20000000E-01  7.20000000E-01  7.20000000E-01  7.20000000E-01
  7.20000000E-01  7.90000000E-01  7.20000000E-01  7.20000000E-01  7.20000000E-01
  7.20000000E-01  7.20000000E-01  7.20000000E-01  7.20000000E-01  7.20000000E-01
  7.20000000E-01  7.20000000E-01  7.90000000E-01  7.20000000E-01  7.20000000E-01
  7.20000000E-01  7.20000000E-01  7.20000000E-01  7.20000000E-01  7.20000000E-01
  7.20000000E-01  7.20000000E-01  7.20000000E-01  7.90000000E-01  7.20000000E-01
  7.20000000E-01  7.20000000E-01  7.20000000E-01  7.20000000E-01  7.20000000E-01
  7.20000000E-01  7.20000000E-01  7.20000000E-01  7.20000000E-01  7.90000000E-01
  7.20000000E-01  7.20000000E-01  7.20000000E-01  7.20000000E-01  7.20000000E-01
  7.20000000E-01  7.20000000E-01  7.20000000E-01  7.20000000E-01  7.20000000E-01
  7.90000000E-01  7.20000000E-01  7.20000000E-01  7.20000000E-01  7.20000000E-01
  7.20000000E-01  7.20000000E-01  7.20000000E-01  7.20000000E-01  7.20000000E-01
  7.20000000E-01  7.90000000E-01  7.20000000E-01  7.20000000E-01  7.20000000E-01
  7.20000000E-01  7.20000000E-01  7.20000000E-01  7.20000000E-01  7.20000000E-01
  7.20000000E-01  7.20000000E-01  7.90000000E-01  7.20000000E-01  7.20000000E-01
  7.20000000E-01  7.20000000E-01  7.20000000E-01  7.20000000E-01  7.20000000E-01
  7.20000000E-01  7.20000000E-01  7.20000000E-01  7.90000000E-01  7.20000000E-01
  7.20000000E-01  7.20000000E-01  7.20000000E-01  7.20000000E-01  7.20000000E-01
  7.20000000E-01  7.20000000E-01  7.20000000E-01  7.20000000E-01  7.20000000E-01
  7.20000000E-01  7.20000000E-01  7.20000000E-01  7.20000000E-01  7.20000000E-01
  7.20000000E-01  7.20000000E-01  7.20000000E-01  7.20000000E-01  7.20000000E-01
  7.20000000E-01  7.20000000E-01  7.20000000E-01  7.20000000E-01  7.20000000E-01
  7.20000000E-01  7.20000000E-01  7.20000000E-01  7.20000000E-01  7.20000000E-01
  7.20000000E-01  7.20000000E-01  7.20000000E-01  7.20000000E-01  7.20000000E-01
  7.20000000E-01  7.20000000E-01  7.20000000E-01  7.20000000E-01  7.20000000E-01
  7.20000000E-01  7.20000000E-01  7.20000000E-01  7.20000000E-01  7.20000000E-01
  7.20000000E-01  7.20000000E-01  7.20000000E-01  7.90000000E-01  7.20000000E-01
  7.20000000E-01  7.20000000E-01  7.20000000E-01  7.20000000E-01  7.20000000E-01
  7.20000000E-01  7.20000000E-01  7.20000000E-01  7.20000000E-01  7.90000000E-01
  7.20000000E-01  7.20000000E-01  7.20000000E-01  7.20000000E-01  7.20000000E-01
  7.20000000E-01  7.20000000E-01  7.20000000E-01  7.20000000E-01  7.20000000E-01
  7.90000000E-01  7.20000000E-01  7.20000000E-01  7.20000000E-01  7.20000000E-01
  7.20000000E-01  7.20000000E-01  7.20000000E-01  7.20000000E-01  7.20000000E-01
  7.20000000E-01  7.90000000E-01  7.20000000E-01  7.20000000E-01  7.20000000E-01
  7.20000000E-01  7.20000000E-01  7.20000000E-01  7.20000000E-01  7.20000000E-01
  7.20000000E-01  7.20000000E-01  7.90000000E-01  7.20000000E-01  7.20000000E-01
  7.20000000E-01  7.20000000E-01  7.20000000E-01  7.20000000E-01  7.20000000E-01
  7.20000000E-01  7.20000000E-01  7.20000000E-01  7.90000000E-01  7.20000000E-01
  7.20000000E-01  7.20000000E-01  7.20000000E-01  7.20000000E-01  7.20000000E-01
  7.20000000E-01  7.20000000E-01  7.20000000E-01  7.20000000E-01  7.90000000E-01
  7.20000000E-01  7.20000000E-01  7.20000000E-01  7.20000000E-01  7.20000000E-01
  7.20000000E-01  7.20000000E-01  7.20000000E-01  7.20000000E-01  7.20000000E-01
  7.90000000E-01  7.20000000E-01  7.20000000E-01  7.20000000E-01  7.20000000E-01
  7.20000000E-01  7.20000000E-01  7.20000000E-01  7.20000000E-01  7.20000000E-01
  7.20000000E-01  7.90000000E-01  7.20000000E-01  7.20000000E-01  7.20000000E-01
  7.20000000E-01  7.20000000E-01  7.20000000E-01  7.20000000E-01  7.20000000E-01
  7.20000000E-01  7.20000000E-01  7.90000000E-01  7.20000000E-01  7.20000000E-01
  7.20000000E-01  7.20000000E-01  7.20000000E-01  7.20000000E-01  7.20000000E-01
  7.20000000E-01  7.20000000E-01  7.20000000E-01  7.90000000E-01  7.20000000E-01
  7.20000000E-01  7.20000000E-01  7.20000000E-01  7.20000000E-01  7.20000000E-01
  7.20000000E-01  7.20000000E-01  7.20000000E-01  7.20000000E-01  7.20000000E-01
  7.20000000E-01  7.20000000E-01  7.20000000E-01  7.20000000E-01  7.20000000E-01
  7.20000000E-01  7.20000000E-01  7.20000000E-01  7.20000000E-01  7.20000000E-01
  7.20000000E-01  7.20000000E-01  7.20000000E-01  7.20000000E-01  7.20000000E-01
  7.20000000E-01  7.20000000E-01  7.20000000E-01  7.20000000E-01  7.20000000E-01
  7.20000000E-01  7.20000000E-01  7.20000000E-01  7.20000000E-01  7.20000000E-01
  7.20000000E-01  7.20000000E-01  7.20000000E-01  7.20000000E-01  7.20000000E-01
  7.20000000E-01  7.20000000E-01  7.20000000E-01  7.20000000E-01  7.20000000E-01
  7.20000000E-01  7.90000000E-01  7.20000000E-01  7.20000000E-01  7.20000000E-01
  7.20000000E-01  7.20000000E-01  7.20000000E-01  7.20000000E-01  7.20000000E-01
  7.20000000E-01  7.20000000E-01  7.90000000E-01  7.20000000E-01  7.20000000E-01
  7.20000000E-01  7.20000000E-01  7.20000000E-01  7.20000000E-01  7.20000000E-01
  7.20000000E-01  7.20000000E-01  7.20000000E-01  7.90000000E-01  7.20000000E-01
  7.20000000E-01  7.20000000E-01  7.20000000E-01  7.20000000E-01  7.20000000E-01
  7.20000000E-01  7.20000000E-01  7.20000000E-01  7.20000000E-01  7.90000000E-01
  7.20000000E-01  7.20000000E-01  7.20000000E-01  7.20000000E-01  7.20000000E-01
  7.20000000E-01  7.20000000E-01  7.20000000E-01  7.20000000E-01  7.20000000E-01
  7.90000000E-01  7.20000000E-01  7.20000000E-01  7.20000000E-01  7.20000000E-01
  7.20000000E-01  7.20000000E-01  7.20000000E-01  7.20000000E-01  7.20000000E-01
  7.20000000E-01  7.90000000E-01  7.20000000E-01  7.20000000E-01  7.20000000E-01
  7.20000000E-01  7.20000000E-01  7.20000000E-01  7.20000000E-01  7.20000000E-01
  7.20000000E-01  7.20000000E-01  7.90000000E-01  7.20000000E-01  7.20000000E-01
  7.20000000E-01  7.20000000E-01  7.20000000E-01  7.20000000E-01  7.20000000E-01
  7.20000000E-01  7.20000000E-01  7.20000000E-01  7.90000000E-01  7.20000000E-01
  7.20000000E-01  7.20000000E-01  7.20000000E-01  7.20000000E-01  7.20000000E-01
  7.20000000E-01  7.20000000E-01  7.20000000E-01  7.20000000E-01  7.90000000E-01
  7.20000000E-01  7.20000000E-01  7.20000000E-01  7.20000000E-01  7.20000000E-01
  7.20000000E-01  7.20000000E-01  7.20000000E-01  7.20000000E-01  7.20000000E-01
  7.90000000E-01  7.20000000E-01  7.20000000E-01  7.20000000E-01  7.20000000E-01
  7.20000000E-01  7.20000000E-01  7.20000000E-01  7.20000000E-01  7.20000000E-01
  7.20000000E-01  7.90000000E-01  7.20000000E-01  7.20000000E-01  7.20000000E-01
  7.20000000E-01  7.20000000E-01  7.20000000E-01  7.20000000E-01  7.20000000E-01
  7.20000000E-01  7.20000000E-01  7.90000000E-01  7.20000000E-01  7.20000000E-01
  7.20000000E-01  7.20000000E-01  7.20000000E-01  7.20000000E-01  7.20000000E-01
  7.20000000E-01  7.20000000E-01  7.20000000E-01  7.90000000E-01  7.20000000E-01
  7.20000000E-01  7.20000000E-01  7.20000000E-01  7.20000000E-01  7.20000000E-01
  7.20000000E-01  7.20000000E-01  7.20000000E-01  7.20000000E-01  7.20000000E-01
  7.20000000E-01  7.90000000E-01  7.20000000E-01  7.20000000E-01  7.20000000E-01
  7.20000000E-01  7.20000000E-01  7.20000000E-01  7.20000000E-01  7.20000000E-01
  7.20000000E-01  7.20000000E-01  7.90000000E-01  7.20000000E-01  7.20000000E-01
  7.20000000E-01  7.20000000E-01  7.20000000E-01  7.20000000E-01  7.20000000E-01
  7.20000000E-01  7.20000000E-01  7.20000000E-01  7.90000000E-01  7.20000000E-01
  7.20000000E-01  7.20000000E-01  7.20000000E-01  7.20000000E-01  7.20000000E-01
  7.20000000E-01  7.20000000E-01  7.20000000E-01  7.20000000E-01  7.90000000E-01
  7.20000000E-01  7.20000000E-01  7.20000000E-01  7.20000000E-01  7.20000000E-01
  7.20000000E-01  7.20000000E-01  7.20000000E-01  7.20000000E-01  7.20000000E-01
  7.90000000E-01  7.20000000E-01  7.20000000E-01  7.20000000E-01  7.20000000E-01
  7.20000000E-01  7.20000000E-01  7.20000000E-01  7.20000000E-01  7.20000000E-01
  7.20000000E-01  7.90000000E-01  7.20000000E-01  7.20000000E-01  7.20000000E-01
  7.20000000E-01  7.20000000E-01  7.20000000E-01  7.20000000E-01  7.20000000E-01
  7.20000000E-01  7.20000000E-01  7.90000000E-01  7.20000000E-01  7.20000000E-01
  7.20000000E-01  7.20000000E-01  7.20000000E-01  7.20000000E-01  7.20000000E-01
  7.20000000E-01  7.20000000E-01  7.20000000E-01  7.90000000E-01  7.20000000E-01
  7.20000000E-01  7.20000000E-01  7.20000000E-01  7.20000000E-01  7.20000000E-01
  7.20000000E-01  7.20000000E-01  7.20000000E-01  7.20000000E-01  7.90000000E-01
  7.20000000E-01  7.20000000E-01  7.20000000E-01  7.20000000E-01  7.20000000E-01
  7.20000000E-01  7.20000000E-01  7.20000000E-01  7.20000000E-01  7.20000000E-01
  7.90000000E-01  7.20000000E-01  7.20000000E-01  7.20000000E-01  7.20000000E-01
  7.20000000E-01  7.20000000E-01  7.20000000E-01  7.20000000E-01  7.20000000E-01
  7.20000000E-01  7.90000000E-01  7.20000000E-01  7.20000000E-01  7.20000000E-01
  7.20000000E-01  7.20000000E-01  7.20000000E-01  7.20000000E-01  7.20000000E-01
  7.20000000E-01  7.20000000E-01  7.90000000E-01  7.20000000E-01  7.20000000E-01
  7.20000000E-01  7.20000000E-01  7.20000000E-01  8.50000000E-01  8.50000000E-01
  8.50000000E-01  8.50000000E-01  8.50000000E-01  8.50000000E-01  8.50000000E-01
  8.50000000E-01  8.50000000E-01  8.50000000E-01  8.50000000E-01  8.50000000E-01
  8.50000000E-01  8.50000000E-01  8.50000000E-01  8.50000000E-01  8.50000000E-01
  8.50000000E-01  8.50000000E-01  8.50000000E-01  8.50000000E-01  8.50000000E-01
  8.50000000E-01  8.50000000E-01  8.50000000E-01  8.50000000E-01  8.50000000E-01
  8.50000000E-01  8.50000000E-01  8.50000000E-01  8.50000000E-01  8.50000000E-01
  8.50000000E-01  8.50000000E-01  8.50000000E-01  8.50000000E-01  8.50000000E-01
  8.50000000E-01  8.50000000E-01  8.50000000E-01  8.50000000E-01  8.50000000E-01
  8.50000000E-01  8.50000000E-01  8.50000000E-01  8.50000000E-01  8.50000000E-01
  8.50000000E-01  8.50000000E-01  8.50000000E-01  8.50000000E-01  8.50000000E-01
  8.50000000E-01  8.50000000E-01  8.50000000E-01  8.50000000E-01  8.50000000E-01
  8.50000000E-01  8.50000000E-01  8.50000000E-01  8.50000000E-01  8.50000000E-01
  8.50000000E-01  8.50000000E-01  8.50000000E-01  8.50000000E-01  8.50000000E-01
  8.50000000E-01  8.50000000E-01  8.50000000E-01  8.50000000E-01  8.50000000E-01
  8.50000000E-01  8.50000000E-01  8.50000000E-01  8.50000000E-01  8.50000000E-01
  8.50000000E-01  8.50000000E-01  8.50000000E-01  8.50000000E-01  8.50000000E-01
  8.50000000E-01  8.50000000E-01  8.50000000E-01  8.50000000E-01  8.50000000E-01
  8.50000000E-01  8.50000000E-01  8.50000000E-01  8.50000000E-01  8.50000000E-01
  8.50000000E-01  8.50000000E-01  8.50000000E-01  8.50000000E-01  8.50000000E-01
  8.50000000E-01  8.50000000E-01  8.50000000E-01  8.50000000E-01  8.50000000E-01
  8.50000000E-01  8.50000000E-01  8.50000000E-01  8.50000000E-01  8.50000000E-01
  8.50000000E-01  8.50000000E-01  8.50000000E-01  8.50000000E-01  8.50000000E-01
  8.50000000E-01  8.50000000E-01  8.50000000E-01  8.50000000E-01  8.50000000E-01
  8.50000000E-01  8.50000000E-01  8.50000000E-01  8.50000000E-01  8.50000000E-01
  8.50000000E-01  8.50000000E-01  8.50000000E-01  8.50000000E-01  8.50000000E-01
  8.50000000E-01  8.50000000E-01  8.50000000E-01  8.50000000E-01  8.50000000E-01
  8.50000000E-01  8.50000000E-01  8.50000000E-01  8.50000000E-01  8.50000000E-01
  8.50000000E-01  8.50000000E-01  8.50000000E-01  8.50000000E-01  8.50000000E-01
  8.50000000E-01  8.50000000E-01  8.50000000E-01  8.50000000E-01  8.50000000E-01
  8.50000000E-01  8.50000000E-01  8.50000000E-01  8.50000000E-01  8.50000000E-01
  8.50000000E-01  8.50000000E-01  8.50000000E-01  8.50000000E-01  8.50000000E-01
  8.50000000E-01  8.50000000E-01  8.50000000E-01  8.50000000E-01  8.50000000E-01
  8.50000000E-01  8.50000000E-01  8.50000000E-01  8.50000000E-01  8.50000000E-01
  8.50000000E-01  8.50000000E-01  8.50000000E-01  8.50000000E-01  8.50000000E-01
  8.50000000E-01  8.50000000E-01  8.50000000E-01  8.50000000E-01  8.50000000E-01
  8.50000000E-01  8.50000000E-01  8.50000000E-01  8.50000000E-01  8.50000000E-01
  8.50000000E-01  8.50000000E-01  8.50000000E-01  8.50000000E-01  8.50000000E-01
  8.50000000E-01  8.50000000E-01  8.50000000E-01  8.50000000E-01  8.50000000E-01
  8.50000000E-01  8.50000000E-01  8.50000000E-01  8.50000000E-01  8.50000000E-01
  8.50000000E-01  8.50000000E-01  8.50000000E-01  8.50000000E-01  8.50000000E-01
  8.50000000E-01  8.50000000E-01  8.50000000E-01  8.50000000E-01  8.50000000E-01
  8.50000000E-01  8.50000000E-01  8.50000000E-01  8.50000000E-01  8.50000000E-01
  8.50000000E-01  8.50000000E-01  8.50000000E-01  8.50000000E-01  8.50000000E-01
  8.50000000E-01  8.50000000E-01  8.50000000E-01  8.50000000E-01  8.50000000E-01
  8.50000000E-01  8.50000000E-01  8.50000000E-01  8.50000000E-01  8.50000000E-01
  8.50000000E-01  8.50000000E-01  8.50000000E-01  8.50000000E-01  8.50000000E-01
  8.50000000E-01  8.50000000E-01  8.50000000E-01  8.50000000E-01  8.50000000E-01
  8.50000000E-01  8.50000000E-01  8.50000000E-01  8.50000000E-01  8.50000000E-01
  8.50000000E-01  8.50000000E-01  8.50000000E-01  8.50000000E-01  8.50000000E-01
  8.50000000E-01  8.50000000E-01  8.50000000E-01  8.50000000E-01  8.50000000E-01
  8.50000000E-01  8.50000000E-01  8.50000000E-01  8.50000000E-01  8.50000000E-01
  8.50000000E-01  8.50000000E-01  8.50000000E-01  8.50000000E-01  8.50000000E-01
  8.50000000E-01  8.50000000E-01  8.50000000E-01  8.50000000E-01  8.50000000E-01
  8.50000000E-01  8.50000000E-01  8.50000000E-01  8.50000000E-01  8.50000000E-01
  8.50000000E-01  8.50000000E-01  8.50000000E-01  8.50000000E-01  8.50000000E-01
  8.50000000E-01  8.50000000E-01  8.50000000E-01  8.50000000E-01  8.50000000E-01
  8.50000000E-01  8.50000000E-01  8.50000000E-01  8.50000000E-01  8.50000000E-01
  8.50000000E-01  8.50000000E-01  8.50000000E-01  8.50000000E-01  8.50000000E-01
  8.50000000E-01  8.50000000E-01  8.50000000E-01  8.50000000E-01  8.50000000E-01
  8.50000000E-01  8.50000000E-01  8.50000000E-01  8.50000000E-01  8.50000000E-01
  8.50000000E-01  8.50000000E-01  8.50000000E-01  8.50000000E-01  8.50000000E-01
  8.50000000E-01  8.50000000E-01  8.50000000E-01  8.50000000E-01  8.50000000E-01
  8.50000000E-01  8.50000000E-01  8.50000000E-01  8.50000000E-01  8.50000000E-01
  8.50000000E-01  8.50000000E-01  8.50000000E-01  8.50000000E-01  8.50000000E-01
  8.50000000E-01  8.50000000E-01  8.50000000E-01  8.50000000E-01  8.50000000E-01
  8.50000000E-01  8.50000000E-01  8.50000000E-01  8.50000000E-01  8.50000000E-01
  8.50000000E-01  8.50000000E-01  8.50000000E-01  8.50000000E-01  8.50000000E-01
  8.50000000E-01  8.50000000E-01  8.50000000E-01  8.50000000E-01  8.50000000E-01
  8.50000000E-01  8.50000000E-01  8.50000000E-01  8.50000000E-01  8.50000000E-01
  8.50000000E-01  8.50000000E-01  8.50000000E-01  8.50000000E-01  8.50000000E-01
  8.50000000E-01  8.50000000E-01  8.50000000E-01  8.50000000E-01  8.50000000E-01
  8.50000000E-01  8.50000000E-01  8.50000000E-01  8.50000000E-01  8.50000000E-01
  8.50000000E-01  8.50000000E-01  8.50000000E-01  8.50000000E-01  8.50000000E-01
  8.50000000E-01  8.50000000E-01  8.50000000E-01  8.50000000E-01  8.50000000E-01
  8.50000000E-01  8.50000000E-01  8.50000000E-01  8.50000000E-01  8.50000000E-01
  8.50000000E-01  8.50000000E-01  8.50000000E-01  8.50000000E-01  8.50000000E-01
  8.50000000E-01  8.50000000E-01  8.50000000E-01  8.50000000E-01  8.50000000E-01
  8.50000000E-01  8.50000000E-01  8.50000000E-01  8.50000000E-01  8.50000000E-01
  8.50000000E-01  8.50000000E-01  8.50000000E-01  8.50000000E-01  8.50000000E-01
  8.50000000E-01  8.50000000E-01  8.50000000E-01  8.50000000E-01  8.50000000E-01
  8.50000000E-01  8.50000000E-01  8.50000000E-01  8.50000000E-01  8.50000000E-01
  8.50000000E-01  8.50000000E-01  8.50000000E-01  8.50000000E-01  8.50000000E-01
  8.50000000E-01  8.50000000E-01  8.50000000E-01  8.50000000E-01  8.50000000E-01
  8.50000000E-01  8.50000000E-01  8.50000000E-01  8.50000000E-01  8.50000000E-01
  8.50000000E-01  8.50000000E-01  8.50000000E-01  8.50000000E-01  8.50000000E-01
  8.50000000E-01  8.50000000E-01  8.50000000E-01  8.50000000E-01  8.50000000E-01
  8.50000000E-01  8.50000000E-01  8.50000000E-01  8.50000000E-01  8.50000000E-01
  8.50000000E-01  8.50000000E-01  8.50000000E-01  8.50000000E-01  8.50000000E-01
  8.50000000E-01  8.50000000E-01  8.50000000E-01  8.50000000E-01  8.50000000E-01
  8.50000000E-01  8.50000000E-01  8.50000000E-01  8.50000000E-01  8.50000000E-01
  8.50000000E-01  8.50000000E-01  8.50000000E-01  8.50000000E-01  8.50000000E-01
  8.50000000E-01  8.50000000E-01  8.50000000E-01  8.50000000E-01  8.50000000E-01
  8.50000000E-01  8.50000000E-01  8.50000000E-01  8.50000000E-01  8.50000000E-01
  8.50000000E-01  8.50000000E-01  8.50000000E-01  8.50000000E-01  8.50000000E-01
  8.50000000E-01  8.50000000E-01  8.50000000E-01  8.50000000E-01  8.50000000E-01
  8.50000000E-01  8.50000000E-01  8.50000000E-01  8.50000000E-01  8.50000000E-01
  8.50000000E-01  8.50000000E-01  8.50000000E-01  8.50000000E-01  8.50000000E-01
  8.50000000E-01  8.50000000E-01  8.50000000E-01  8.50000000E-01  8.50000000E-01
  8.50000000E-01  8.50000000E-01  8.50000000E-01  8.50000000E-01  8.50000000E-01
  8.50000000E-01  8.50000000E-01  8.50000000E-01  8.50000000E-01  8.50000000E-01
  8.50000000E-01  8.50000000E-01  8.50000000E-01  8.50000000E-01  8.50000000E-01
  8.50000000E-01  8.50000000E-01  8.50000000E-01  8.50000000E-01  8.50000000E-01
  8.50000000E-01  8.50000000E-01  8.50000000E-01  8.50000000E-01  8.50000000E-01
  8.50000000E-01  8.50000000E-01  8.50000000E-01  8.50000000E-01  8.50000000E-01
  8.50000000E-01  8.50000000E-01  8.50000000E-01  8.50000000E-01  8.50000000E-01
  8.50000000E-01  8.50000000E-01  8.50000000E-01  8.50000000E-01  8.50000000E-01
  8.50000000E-01  8.50000000E-01  8.50000000E-01  8.50000000E-01  8.50000000E-01
  8.50000000E-01  8.50000000E-01  8.50000000E-01  8.50000000E-01  8.50000000E-01
  8.50000000E-01  8.50000000E-01  8.50000000E-01  8.50000000E-01  8.50000000E-01
  8.50000000E-01  8.50000000E-01  8.50000000E-01  8.50000000E-01  8.50000000E-01
  8.50000000E-01  8.50000000E-01  8.50000000E-01  8.50000000E-01  8.50000000E-01
  8.50000000E-01  8.50000000E-01  8.50000000E-01  8.50000000E-01  8.50000000E-01
  8.50000000E-01  8.50000000E-01  8.50000000E-01  8.50000000E-01  8.50000000E-01
  8.50000000E-01  8.50000000E-01  8.50000000E-01  8.50000000E-01  8.50000000E-01
  8.50000000E-01  8.50000000E-01  8.50000000E-01  8.50000000E-01  8.50000000E-01
  8.50000000E-01  8.50000000E-01  8.50000000E-01  8.50000000E-01  8.50000000E-01
  8.50000000E-01  8.50000000E-01  8.50000000E-01  8.50000000E-01  8.50000000E-01
  8.50000000E-01  8.50000000E-01  8.50000000E-01  8.50000000E-01  8.50000000E-01
  8.50000000E-01  8.50000000E-01  8.50000000E-01  8.50000000E-01  8.50000000E-01
  8.50000000E-01  8.50000000E-01  8.50000000E-01  8.50000000E-01  8.50000000E-01
  8.50000000E-01  8.50000000E-01  8.50000000E-01  8.50000000E-01  8.50000000E-01
  8.50000000E-01  8.50000000E-01  8.50000000E-01  8.50000000E-01  8.50000000E-01
  8.50000000E-01  8.50000000E-01  8.50000000E-01  8.50000000E-01  8.50000000E-01
  8.50000000E-01  8.50000000E-01  8.50000000E-01  8.50000000E-01  8.50000000E-01
  8.50000000E-01  8.50000000E-01  8.50000000E-01  8.50000000E-01  8.50000000E-01
  8.50000000E-01  8.50000000E-01  8.50000000E-01  8.50000000E-01  8.50000000E-01
  8.50000000E-01  8.50000000E-01  8.50000000E-01  8.50000000E-01  8.50000000E-01
  8.50000000E-01  8.50000000E-01  8.50000000E-01  8.50000000E-01  8.50000000E-01
  8.50000000E-01  8.50000000E-01  8.50000000E-01  8.50000000E-01  8.50000000E-01
  8.50000000E-01  8.50000000E-01  8.50000000E-01  8.50000000E-01  8.50000000E-01
  8.50000000E-01  8.50000000E-01  8.50000000E-01  8.50000000E-01  8.50000000E-01
  8.50000000E-01  8.50000000E-01  8.50000000E-01  8.50000000E-01  8.50000000E-01
  8.50000000E-01  8.50000000E-01  8.50000000E-01  8.50000000E-01  8.50000000E-01
  8.50000000E-01  8.50000000E-01  8.50000000E-01  8.50000000E-01  8.50000000E-01
  8.50000000E-01  8.50000000E-01  8.50000000E-01  8.50000000E-01  8.50000000E-01
  8.50000000E-01  8.50000000E-01  8.50000000E-01  8.50000000E-01  8.50000000E-01
  8.50000000E-01  8.50000000E-01  8.50000000E-01  8.50000000E-01  8.50000000E-01
  8.50000000E-01  8.50000000E-01  8.50000000E-01  8.50000000E-01  8.50000000E-01
  8.50000000E-01  8.50000000E-01  8.50000000E-01  8.50000000E-01  8.50000000E-01
  8.50000000E-01  8.50000000E-01  8.50000000E-01  8.50000000E-01  8.50000000E-01
  8.50000000E-01  8.50000000E-01  8.50000000E-01  8.50000000E-01  8.50000000E-01
  8.50000000E-01  8.50000000E-01  8.50000000E-01  8.50000000E-01  8.50000000E-01
  8.50000000E-01  8.50000000E-01  8.50000000E-01  8.50000000E-01  8.50000000E-01
  8.50000000E-01  8.50000000E-01  8.50000000E-01  8.50000000E-01  8.50000000E-01
  8.50000000E-01  8.50000000E-01  8.50000000E-01  8.50000000E-01  8.50000000E-01
  8.50000000E-01  8.50000000E-01  8.50000000E-01  8.50000000E-01  8.50000000E-01
  8.50000000E-01  8.50000000E-01  8.50000000E-01  8.50000000E-01  8.50000000E-01
  8.50000000E-01  8.50000000E-01  8.50000000E-01  8.50000000E-01  8.50000000E-01
  8.50000000E-01  8.50000000E-01  8.50000000E-01  8.50000000E-01  8.50000000E-01
  8.50000000E-01  8.50000000E-01  8.50000000E-01  8.50000000E-01  8.50000000E-01
  8.50000000E-01  8.50000000E-01  8.50000000E-01  8.50000000E-01  8.50000000E-01
  8.50000000E-01  8.50000000E-01  8.50000000E-01  8.50000000E-01  8.50000000E-01
  8.50000000E-01  8.50000000E-01  8.50000000E-01  8.50000000E-01  8.50000000E-01
  8.50000000E-01  8.50000000E-01  8.50000000E-01  8.50000000E-01  8.50000000E-01
  8.50000000E-01  8.50000000E-01  8.50000000E-01  8.50000000E-01  8.50000000E-01
  8.50000000E-01  8.50000000E-01  8.50000000E-01  8.50000000E-01  8.50000000E-01
  8.50000000E-01  8.50000000E-01  8.50000000E-01  8.50000000E-01  8.50000000E-01
  8.50000000E-01  8.50000000E-01  8.50000000E-01  8.50000000E-01  8.50000000E-01
  8.50000000E-01  8.50000000E-01  8.50000000E-01  8.50000000E-01  8.50000000E-01
  8.50000000E-01  8.50000000E-01  8.50000000E-01  8.50000000E-01  8.50000000E-01
  8.50000000E-01  8.50000000E-01  8.50000000E-01  8.50000000E-01  8.50000000E-01
  8.50000000E-01  8.50000000E-01  8.50000000E-01  8.50000000E-01  8.50000000E-01
  8.50000000E-01  8.50000000E-01  8.50000000E-01  8.50000000E-01  8.50000000E-01
  8.50000000E-01  8.50000000E-01  8.50000000E-01  8.50000000E-01  8.50000000E-01
  8.50000000E-01  8.50000000E-01  8.50000000E-01  8.50000000E-01  8.50000000E-01
  8.50000000E-01  8.50000000E-01  8.50000000E-01  8.50000000E-01  8.50000000E-01
  8.50000000E-01  8.50000000E-01  8.50000000E-01  8.50000000E-01  8.50000000E-01
  8.50000000E-01  8.50000000E-01  8.50000000E-01  8.50000000E-01  8.50000000E-01
  8.50000000E-01  8.50000000E-01  8.50000000E-01  8.50000000E-01  8.50000000E-01
  8.50000000E-01  8.50000000E-01  8.50000000E-01  8.50000000E-01  8.50000000E-01
  8.50000000E-01  8.50000000E-01  8.50000000E-01  8.50000000E-01  8.50000000E-01
  8.50000000E-01  8.50000000E-01  8.50000000E-01  8.50000000E-01  8.50000000E-01
  8.50000000E-01  8.50000000E-01  8.50000000E-01  8.50000000E-01  8.50000000E-01
  8.50000000E-01  8.50000000E-01  8.50000000E-01  8.50000000E-01  8.50000000E-01
  8.50000000E-01  8.50000000E-01  8.50000000E-01  8.50000000E-01  8.50000000E-01
  8.50000000E-01  8.50000000E-01  8.50000000E-01  8.50000000E-01  8.50000000E-01
  8.50000000E-01  8.50000000E-01  8.50000000E-01  8.50000000E-01  8.50000000E-01
  8.50000000E-01  8.50000000E-01  8.50000000E-01  8.50000000E-01  8.50000000E-01
  8.50000000E-01  8.50000000E-01  8.50000000E-01  8.50000000E-01  8.50000000E-01
  8.50000000E-01  8.50000000E-01  8.50000000E-01  8.50000000E-01  8.50000000E-01
  8.50000000E-01  8.50000000E-01  8.50000000E-01  8.50000000E-01  8.50000000E-01
  8.50000000E-01  8.50000000E-01  8.50000000E-01  8.50000000E-01  8.50000000E-01
  8.50000000E-01  8.50000000E-01  8.50000000E-01  8.50000000E-01  8.50000000E-01
  8.50000000E-01  8.50000000E-01  8.50000000E-01  8.50000000E-01  8.50000000E-01
  8.50000000E-01  8.50000000E-01  8.50000000E-01  8.50000000E-01  8.50000000E-01
  8.50000000E-01  8.50000000E-01  8.50000000E-01  8.50000000E-01  8.50000000E-01
  8.50000000E-01  8.50000000E-01  8.50000000E-01  8.50000000E-01  8.50000000E-01
  8.50000000E-01  8.50000000E-01  8.50000000E-01  8.50000000E-01  8.50000000E-01
  8.50000000E-01  8.50000000E-01  8.50000000E-01  8.50000000E-01  8.50000000E-01
  8.50000000E-01  8.50000000E-01  8.50000000E-01  8.50000000E-01  8.50000000E-01
  8.50000000E-01  8.50000000E-01  8.50000000E-01  8.50000000E-01  8.50000000E-01
  8.50000000E-01  8.50000000E-01  8.50000000E-01  8.50000000E-01  8.50000000E-01
  8.50000000E-01  8.50000000E-01  8.50000000E-01  8.50000000E-01  9.60000000E-01
  8.80000000E-01  8.80000000E-01  8.80000000E-01  8.80000000E-01  8.80000000E-01
  8.80000000E-01  8.80000000E-01  8.80000000E-01  8.80000000E-01  8.80000000E-01
  8.80000000E-01  8.80000000E-01  8.80000000E-01  8.80000000E-01  8.80000000E-01
  8.80000000E-01  8.80000000E-01  8.50000000E-01  8.50000000E-01  8.50000000E-01
  7.20000000E-01  7.20000000E-01  7.20000000E-01  7.20000000E-01  7.20000000E-01
  7.20000000E-01  7.20000000E-01  7.20000000E-01  8.00000000E-01  8.00000000E-01
  8.00000000E-01  8.00000000E-01  8.00000000E-01  8.00000000E-01  8.00000000E-01
  8.00000000E-01  8.00000000E-01  8.00000000E-01  8.00000000E-01  8.00000000E-01
  8.00000000E-01  8.00000000E-01  8.00000000E-01  8.00000000E-01  8.00000000E-01
  8.00000000E-01  8.00000000E-01  8.00000000E-01  8.00000000E-01  8.00000000E-01
  8.00000000E-01  8.00000000E-01  8.00000000E-01  8.00000000E-01  8.00000000E-01
  8.00000000E-01  8.00000000E-01  8.00000000E-01  8.00000000E-01  8.00000000E-01
  8.00000000E-01  8.00000000E-01  8.00000000E-01  8.00000000E-01  8.00000000E-01
  8.00000000E-01  8.00000000E-01  8.00000000E-01  8.00000000E-01  8.00000000E-01
  8.00000000E-01  8.00000000E-01  8.00000000E-01  8.00000000E-01  8.00000000E-01
%FLAG IPOL                                                                      
%FORMAT(1I8)                                                                    
       0
