default_name
133395
  29.3795872  65.2888758  54.1708579  29.8225872  66.7858758  53.8668579
  30.9475872  66.9638758  52.7718579  30.7285872  66.2558758  51.3988579
  31.7995872  66.2618758  50.3118579  33.0585872  65.3828758  50.6938579
  32.8555872  63.8228758  50.8418579  34.0865872  62.9838758  51.2608579
  34.6905872  63.2688758  52.6738579  33.7495872  62.9948758  53.9158579
  33.0675872  61.5818758  54.1358579  34.0825872  60.4158758  54.2568579
  34.7935872  60.1498758  55.6018579  35.7555872  58.9488758  55.3538579
  36.9485872  59.3078758  54.3948579  37.6985872  60.6278758  54.6618579
  38.1625872  60.8598758  56.1638579  39.2545872  59.8698758  56.5528579
  39.8305872  60.2308758  57.9178579  40.9855872  59.2388758  58.4648579
  42.2505872  59.1618758  57.5758579  42.8585872  60.5518758  57.4418579
  44.0425872  60.7468758  56.4368579  43.5205872  61.0828758  55.0278579
  44.4535872  60.9358758  53.8668579  45.5555872  62.0488758  53.7668579
  46.7655872  61.5518758  52.9098579  46.4325872  61.0628758  51.4798579
  47.6165872  60.5818758  50.6278579  48.2065872  59.1798758  51.0748579
  49.5965872  58.9358758  50.3908579  50.8245872  59.9118758  50.7308579
  51.3115872  59.8948758  52.2488579  51.5305872  58.4878758  53.1488579
  52.4925872  57.3558758  52.7548579  53.8555872  57.9598758  52.2538579
  54.6815872  58.6988758  53.2888579  56.1925872  58.7758758  52.9248579
  56.4735872  59.6638758  51.6798579  55.7255872  61.0418758  51.5938579
  55.7495872  62.0568758  52.7748579  57.2055872  62.3738758  53.3198579
  58.0485872  63.2778758  52.4048579  58.0495872  64.8838758  52.6978579
  58.4605872  65.3598758  54.0528579  59.9265872  65.1988758  54.5198579
  60.8885872  66.2538758  53.7908579  60.8855872  67.6868758  54.5538579
  61.3485872  67.7298758  56.0708579  62.2995872  68.8948758  56.5268579
  61.8285872  70.2878758  56.2148579  60.3715872  70.6898758  56.7008579
  60.2315872  70.6438758  58.2488579  61.1855872  71.5118758  59.1118579
  61.5635872  72.9718758  58.5868579  60.4135872  74.1398758  58.6898579
  59.9845872  74.2848758  60.2018579  61.0955872  74.4778758  61.3128579
  62.2345872  75.6008758  61.2268579  61.6625872  77.0578758  60.8558579
  60.5565872  77.5418758  61.8488579  60.8475872  77.8708758  63.3278579
  62.1375872  78.7568758  63.4838579  62.0215872  80.1728758  62.9098579
  63.1955872  81.2078758  63.3008579  64.7445872  80.8388758  62.8058579
  65.0635872  81.0838758  61.3238579  65.4875872  82.5768758  60.9318579
  66.8765872  83.0088758  61.4408579  66.9145872  84.5638758  61.5278579
  67.9065872  85.1668758  62.5668579  67.4985872  84.9898758  64.1418579
  69.3555872  84.8468758  62.0608579  70.0995872  84.0618758  62.8918579
  71.3905872  83.8178758  62.5558579  71.8965872  84.2628758  61.3188579
  73.3155872  84.0438758  60.9078579  74.3155872  85.0848758  61.4548579
  74.2825872  85.2428758  63.0008579  75.7515872  84.6448758  61.1328579
  74.0135872  86.4658758  60.8728579  71.0815872  84.9128758  60.3858579
  69.8005872  85.1608758  60.7858579  65.1485872  82.9258758  59.4528579
  64.3865872  84.1148758  59.2698579  64.0715872  84.5198758  57.9218579
  64.4585872  83.7658758  56.8598579  64.1685872  84.2458758  55.4808579
  65.2245872  84.9998758  54.6828579  64.6825872  85.2808758  53.3168579
  65.5375872  86.3838758  55.3938579  66.4965872  84.1378758  54.5858579
  65.2965872  82.5768758  57.0688579  65.6135872  82.1788758  58.4058579
  62.8685872  82.6448758  62.9528579  62.2325872  83.0148758  61.7018579
  61.8665872  84.3828758  61.5058579  62.2365872  85.3298758  62.4348579
  62.0815872  86.7988758  62.0778579  60.8705872  87.5158758  62.5848579
  60.8645872  87.5278758  64.1308579  60.8115872  88.8798758  62.0778579
  59.5325872  86.8268758  62.1118579  63.0195872  84.9548758  63.5868579
  63.3205872  83.6098758  63.8448579  59.6315872  78.4478758  64.0878579
  58.8275872  79.5318758  63.5588579  57.8145872  80.0738758  64.3518579
  57.4575872  79.4358758  65.5748579  56.3245872  79.9928758  66.4138579
  54.8955872  79.5688758  66.0238579  54.8455872  78.0578758  66.0828579
  53.8885872  80.2398758  66.9888579  54.5875872  79.8768758  64.5568579
  58.2405872  78.3588758  66.0718579  59.3615872  77.9038758  65.3598579
  63.2445872  75.5058758  62.3988579  62.8965872  74.8478758  63.6238579
  63.8625872  74.9168758  64.6708579  64.9635872  75.7258758  64.6218579
  65.8155872  75.7118758  65.9118579  66.6425872  76.8668758  66.3458579
  67.0905872  76.7478758  67.8388579  67.9205872  77.0348758  65.5038579
  65.8995872  78.1998758  66.2568579  65.2565872  76.3768758  63.3708579
  64.4145872  76.2398758  62.3198579  60.6945872  75.4808758  58.0118579
  61.9875872  75.9138758  57.5918579  62.0985872  77.1948758  57.0568579
  61.0605872  78.1318758  57.0298579  61.3925872  79.6298758  56.6698579
  61.9165872  80.4088758  57.8818579  62.2075872  81.9008758  57.6028579
  60.8305872  80.4658758  58.9758579  63.2065872  79.7778758  58.3758579
  59.8315872  77.7778758  57.5278579  59.6475872  76.4868758  58.0238579
  58.7345872  70.8478758  58.7498579  57.8465872  71.7058758  58.0068579
  56.5565872  71.8518758  58.4788579  56.1575872  71.2448758  59.7288579
  54.7675872  71.3688758  60.4138579  53.6435872  70.4928758  59.7428579
  53.2235872  71.0778758  58.3088579  54.2965872  69.0638758  59.5748579
  52.4595872  70.6488758  60.6378579  57.1235872  70.4978758  60.4878579
  58.3815872  70.2618758  59.9158579  63.0905872  68.7838758  57.7528579
  62.6425872  68.1328758  58.9238579  63.3865872  68.0368758  60.0228579
  64.6545872  68.6228758  60.1138579  65.5415872  68.4548758  61.3148579
  66.5585872  67.2878758  61.1278579  67.3375872  67.4648758  59.8198579
  67.5435872  67.3138758  62.3038579  65.8785872  65.8658758  61.0598579
  65.1305872  69.3348758  58.9738579  64.3515872  69.3288758  57.8268579
  62.3645872  65.8318758  53.6348579  62.9245872  64.8708758  54.4388579
  64.3015872  64.4988758  54.2998579  65.0215872  65.0878758  53.2548579
  66.5285872  64.8258758  53.1288579  66.9625872  63.6648758  52.2178579
  68.4565872  63.6518758  52.2638579  66.4365872  62.3268758  52.6688579
  66.5835872  63.9788758  50.7948579  64.4055872  65.9888758  52.4958579
  63.0525872  66.3598758  52.5998579  58.6295872  65.5718758  51.4188579
  59.6265872  65.0468758  50.5528579  60.2205872  65.8828758  49.6398579
  59.7915872  67.1608758  49.4148579  60.4655872  68.0618758  48.3428579
  59.6025872  68.0788758  47.0628579  58.9875872  66.6608758  46.6498579
  58.4775872  69.0258758  47.1208579  60.4665872  68.5198758  45.8418579
  58.7565872  67.7188758  50.2258579  58.2555872  66.9088758  51.2368579
  55.0035872  63.4438758  52.5038579  54.8255872  64.3078758  53.5458579
  54.3295872  65.5958758  53.3968579  53.7745872  65.9508758  52.1148579
  53.2495872  67.3978758  51.8488579  51.7305872  67.8398758  51.9318579
  51.0795872  67.4438758  50.6078579  51.1075872  67.1578758  53.1538579
  51.6355872  69.3978758  52.1288579  53.9485872  65.0088758  51.0178579
  54.5895872  63.8198758  51.2568579  57.0255872  59.2438758  54.1008579
  56.4675872  59.8778758  55.2308579  57.2855872  60.1578758  56.2988579
  58.6285872  59.8998758  56.3718579  59.4325872  60.3198758  57.5908579
  60.0535872  61.7628758  57.5608579  60.7155872  62.0228758  56.2218579
  58.8815872  62.7268758  57.8088579  61.0885872  61.7648758  58.6828579
  59.2335872  59.2608758  55.3328579  58.4245872  58.9288758  54.2128579
  56.7085872  57.3218758  52.7298579  57.5375872  57.0238758  51.6358579
  57.9785872  55.7528758  51.4578579  57.7475872  54.7378758  52.3658579
  58.2125872  53.2588758  52.0968579  58.7295872  53.0278758  50.5548579
  60.2085872  53.4958758  50.1918579  60.3935872  53.8308758  48.6708579
  61.6175872  54.7458758  48.4488579  61.6625872  55.3558758  47.0438579
  63.1845872  55.7918758  46.6708579  64.1675872  54.6308758  46.4508579
  65.6535872  55.2028758  46.4888579  66.8255872  54.2678758  46.6248579
  66.7335872  53.0438758  45.5768579  66.7985872  53.5078758  44.1508579
  68.2995872  53.4678758  43.5578579  68.9015872  52.0838758  43.4998579
  68.2425872  51.1548758  42.5088579  68.9925872  50.8938758  41.1788579
  70.3535872  50.1858758  41.1758579  71.1945872  50.1498758  39.9168579
  71.7575872  51.4848758  39.4658579  72.6545872  52.2248758  40.4818579
  73.7415872  51.4988758  41.3088579  74.8515872  50.8648758  40.4028579
  75.4925872  51.8878758  39.3808579  76.4075872  52.9708758  39.9418579
  76.9665872  54.0898758  38.9968579  75.7755872  54.7908758  38.2018579
  76.1645872  55.8308758  37.1328579  77.3285872  55.2808758  36.2448579
  76.8515872  54.1968758  35.3358579  77.9465872  53.4928758  34.4748579
  79.3085872  52.8778758  35.1418579  79.0475872  51.6488758  35.9848579
  80.2795872  51.1558758  36.8058579  80.0385872  49.8938758  37.6858579
  79.9945872  48.5178758  36.9438579  81.1785872  49.7518758  38.7638579
  80.7245872  49.8318758  40.0828579  81.6575872  49.6218758  41.1628579
  83.0435872  49.4528758  40.8268579  84.1465872  49.3208758  41.8958579
  83.9745872  48.0718758  42.8518579  82.7665872  47.9558758  43.6538579
  84.0465872  46.7538758  41.9778579  85.2375872  48.1038758  43.8148579
  83.4915872  49.6168758  39.5058579  82.5765872  49.8248758  38.5028579
  80.3615872  52.6568758  34.0428579  80.3385872  51.5438758  33.1778579
  81.1825872  51.4518758  32.0338579  81.9845872  52.5428758  31.7208579
  82.8785872  52.5468758  30.5308579  82.1985872  52.8838758  29.2178579
  81.6975872  51.6778758  28.3398579  81.0455872  53.7398758  29.5948579
  83.1365872  53.7928758  28.2978579  82.1585872  53.6358758  32.5808579
  81.2455872  53.7468758  33.7268579  78.0875872  56.3918758  35.4668579
  77.4395872  57.1008758  34.3808579  78.2125872  57.9808758  33.5778579
  79.6225872  58.2068758  33.8428579  80.4405872  59.1948758  33.0018579
  80.6765872  60.5808758  33.5218579  81.6995872  61.2008758  32.5748579
  79.3655872  61.4348758  33.2738579  81.1695872  60.5398758  34.9118579
  80.2495872  57.5538758  34.8778579  79.4835872  56.5928758  35.6098579
  77.8495872  55.0848758  39.7308579  77.3095872  56.0418758  40.6408579
  78.1935872  56.7848758  41.4148579  79.6115872  56.7558758  41.2118579
  80.6515872  57.5518758  42.0678579  81.0605872  57.0228758  43.4348579
  82.0955872  57.9308758  44.0398579  79.9305872  56.9378758  44.3488579
  81.6715872  55.6298758  43.1528579  80.0925872  55.7588758  40.3438579
  79.2205872  54.9778758  39.5338579  75.9095872  50.1238758  41.2118579
  76.3045872  50.3168758  42.5138579  77.2365872  49.4728758  43.0888579
  77.7785872  48.4258758  42.3298579  78.8985872  47.5468758  42.9408579
  78.4205872  46.4248758  43.8228579  77.3505872  46.8698758  44.8528579
  77.9425872  45.2868758  42.9128579  79.5745872  45.8898758  44.6378579
  77.4195872  48.2158758  41.0218579  76.4725872  49.0418758  40.4808579
  72.3985872  51.4588758  38.0618579  72.9265872  50.2828758  37.5498579
  73.7055872  50.2888758  36.3648579  73.6075872  51.4478758  35.5428579
  74.2915872  51.3078758  34.2608579  73.5465872  50.5668758  33.1598579
  73.5905872  49.0198758  33.3118579  72.0305872  51.0678758  33.0078579
  74.2455872  51.0338758  31.9318579  73.0395872  52.6488758  36.0118579
  72.4045872  52.6298758  37.2308579  68.0465872  50.2258758  40.1848579
  67.2315872  49.1168758  40.5788579  66.1985872  48.6758758  39.7538579
  65.9735872  49.2828758  38.4998579  64.8625872  48.8118758  37.5258579
  65.2555872  47.6008758  36.6338579  64.1165872  47.3878758  35.6298579
  66.5775872  47.7938758  35.8628579  65.3105872  46.3928758  37.5538579
  66.7845872  50.4108758  38.0818579  67.8035872  50.8588758  38.8948579
  68.4095872  54.0818758  42.1218579  67.3855872  54.0538758  41.1598579
  67.4815872  54.6528758  39.8398579  68.6495872  55.3198758  39.4908579
  68.8595872  56.0938758  38.1838579  68.5085872  57.5988758  38.1288579
  68.8175872  58.2008758  36.7008579  67.0855872  57.8508758  38.5798579
  69.4745872  58.2068758  39.1128579  69.7625872  55.2878758  40.3218579
  69.6175872  54.7698758  41.6698579  68.2095872  54.9388758  46.6288579
  68.3875872  56.2588758  46.1668579  69.6585872  56.8698758  46.1508579
  70.8115872  56.1278758  46.5948579  72.1865872  56.7368758  46.5438579
  72.6995872  57.3448758  47.8658579  72.9545872  56.2988758  48.9308579
  73.9995872  58.1008758  47.6108579  71.6465872  58.3708758  48.3318579
  70.5915872  54.8588758  46.9698579  69.3815872  54.2798758  46.9778579
  63.1775872  56.7308758  45.4808579  62.6225872  56.3478758  44.2398579
  62.5035872  57.2728758  43.2008579  63.0685872  58.5318758  43.3028579
  63.2845872  59.4408758  42.0178579  62.0605872  60.3778758  41.5718579
  62.5385872  61.3638758  40.4128579  60.8915872  59.5638758  41.1248579
  61.5255872  61.1678758  42.8348579  63.6915872  58.9528758  44.5128579
  63.7875872  58.0328758  45.5718579  60.3035872  52.6058758  47.7528579
  59.3135872  52.4308758  46.8578579  59.2895872  51.3298758  45.9438579
  60.2915872  50.3008758  46.0518579  60.2255872  49.1658758  44.9948579
  59.3495872  48.0118758  45.2868579  59.9815872  47.3558758  46.5578579
  57.9595872  48.4438758  45.4728579  59.4215872  46.8618758  44.2368579
  61.2815872  50.4748758  47.0128579  61.3405872  51.6428758  47.8128579
  59.3525872  52.5928758  52.9968579  59.2525872  52.5928758  54.5618579
  58.3595872  51.5958758  55.2998579  58.7065872  50.0298758  55.2818579
  60.1445872  49.5248758  55.5058579  60.8075872  50.0688758  56.8948579
  60.0765872  49.6248758  58.1848579  59.8765872  48.0998758  58.4098579
  61.1475872  47.2098758  58.7148579  61.6155872  47.4188758  60.2138579
  60.5395872  47.6528758  61.3608579  59.5035872  46.4938758  61.6078579
  60.0635872  45.1458758  62.1128579  60.7695872  45.3518758  63.4848579
  61.2365872  44.1048758  64.2688579  62.1115872  43.1528758  63.3678579
  63.5095872  43.7168758  62.9218579  64.6515872  44.0278758  63.9498579
  64.9785872  42.7478758  64.8498579  65.2485872  41.5388758  63.9498579
  65.8455872  40.4998758  64.8848579  64.9455872  39.8698758  66.0458579
  63.5365872  39.3858758  65.5038579  63.4225872  38.3678758  64.3418579
  64.3635872  37.0598758  64.3768579  63.9715872  36.0118758  65.4208579
  65.0135872  34.8388758  65.4918579  66.4735872  35.2758758  65.9308579
  66.7255872  36.1518758  67.2168579  66.1355872  35.6148758  68.5048579
  66.6715872  34.2498758  68.9978579  68.2105872  34.1518758  69.3988579
  68.8635872  32.7288758  69.5368579  69.0755872  31.9238758  68.1888579
  69.7285872  30.5258758  68.3138579  70.0745872  29.9628758  66.9008579
  70.9595872  28.7308758  67.0308579  68.8485872  29.6428758  66.0238579
  68.4565872  30.5568758  65.0068579  67.3555872  30.3478758  64.1868579
  66.5985872  29.1818758  64.2598579  65.5415872  28.7568758  63.2138579
  65.9185872  27.9028758  61.9768579  66.3275872  26.4358758  62.3918579
  64.6535872  27.8908758  61.0758579  67.0565872  28.6488758  61.2608579
  66.8825872  28.3838758  65.4078579  67.9345872  28.5848758  66.2518579
  70.1625872  32.7408758  70.3508579  71.2635872  33.3688758  69.8208579
  72.4355872  33.3488758  70.5028579  72.6455872  32.5728758  71.6848579
  74.0145872  32.6018758  72.4258579  74.1605872  33.6398758  73.5418579
  73.0465872  33.7288758  74.6168579  75.4895872  33.3578758  74.3568579
  74.3155872  34.9428758  72.8108579  71.4735872  31.9958758  72.2078579
  70.2935872  32.0888758  71.5318579  66.0095872  36.5748758  69.6788579
  67.0155872  37.5218758  69.9208579  66.9785872  38.3208758  71.0718579
  65.9455872  38.2098758  71.9978579  65.8485872  38.9048758  73.3288579
  66.4245872  37.9478758  74.4938579  66.2745872  38.7628758  75.8138579
  65.5835872  36.6868758  74.6108579  67.9095872  37.6648758  74.1638579
  64.9745872  37.2388758  71.7688579  64.9255872  36.5248758  70.5918579
  64.4915872  33.6578758  66.3438579  63.5255872  33.7188758  67.3358579
  63.0625872  32.5378758  67.9918579  63.7055872  31.3528758  67.7008579
  63.1975872  30.0398758  68.3958579  64.0215872  29.7348758  69.6888579
  63.6245872  28.3258758  70.1998579  65.5365872  29.7228758  69.2858579
  63.8355872  30.8578758  70.7948579  64.6535872  31.2948758  66.6798579
  65.0405872  32.4558758  66.0248579  61.9755872  37.9538758  64.1268579
  61.0315872  38.0238758  65.1598579  59.7305872  37.6108758  64.8548579
  59.3185872  37.2598758  63.5438579  57.8535872  36.8328758  63.2648579
  57.5805872  35.3648758  62.9498579  57.8695872  34.4608758  64.1098579
  56.0645872  35.1818758  62.6538579  58.3925872  34.9518758  61.6498579
  60.2065872  37.3798758  62.4808579  61.5495872  37.7458758  62.7648579
  66.7635872  39.5208758  64.0928579  66.4895872  39.0448758  62.8188579
  67.4555872  38.1488758  62.2368579  68.5815872  37.7048758  62.9788579
  69.5925872  36.7608758  62.3588579  70.9095872  37.2158758  61.8638579
  70.6845872  38.5148758  60.9848579  71.7395872  37.5848758  63.1088579
  71.5405872  36.0478758  61.0588579  68.8165872  38.1918758  64.2948579
  67.9185872  39.0608758  64.8488579  65.8545872  44.7838758  63.4008579
  66.4045872  44.5338758  62.1448579  67.4975872  45.3168758  61.6418579
  68.2175872  46.1848758  62.5128579  69.5725872  46.7148758  62.0768579
  70.7805872  45.9918758  62.6548579  70.8375872  44.4878758  62.2998579
  72.0415872  46.6988758  62.0048579  70.8465872  46.1208758  64.2518579
  67.6295872  46.4538758  63.7558579  66.5195872  45.7218758  64.2368579
  61.8025872  44.3508758  65.6528579  62.2035872  45.6358758  66.0858579
  62.5685872  45.8858758  67.3718579  62.5355872  44.8888758  68.3428579
  62.8715872  45.0508758  69.7828579  61.8665872  45.8398758  70.6458579
  61.8945872  47.2858758  70.1508579  60.5275872  45.1898758  70.3028579
  62.1745872  45.7548758  72.1338579  62.2265872  43.4938758  67.9378579
  61.7895872  43.2788758  66.5988579  58.3715872  46.9698758  62.4928579
  57.0345872  46.4748758  62.2448579  56.0165872  46.9738758  62.9888579
  56.1215872  47.9068758  64.1098579  54.9825872  48.3268758  64.9378579
  54.5495872  47.3608758  65.9898579  53.6575872  48.1328758  67.0308579
  53.7035872  46.2488758  65.3958579  55.7545872  46.7888758  66.8348579
  57.4815872  48.3058758  64.3888579  58.5185872  47.9368758  63.4518579
  60.9785872  45.7198758  58.3028579  59.7295872  45.0988758  58.2858579
  59.6445872  43.7358758  58.1528579  60.7955872  42.9868758  57.9888579
  60.6365872  41.4348758  57.7038579  60.9405872  40.9058758  56.3858579
  62.5405872  40.8438758  56.2998579  60.3445872  39.5168758  56.1118579
  60.3595872  41.7648758  55.2338579  62.1185872  43.5408758  58.0038579
  62.2125872  44.9308758  58.1948579  62.3245872  49.9688758  56.9978579
  63.0725872  50.8308758  57.9298579  64.4405872  50.8018758  58.0118579
  65.2055872  49.9218758  57.2258579  66.6765872  49.8738758  57.3878579
  67.4565872  50.8428758  56.4788579  68.9645872  50.7448758  56.6628579
  67.2855872  50.5088758  55.0298579  67.1075872  52.3038758  56.6808579
  64.4615872  49.0658758  56.2788579  63.0355872  49.1168758  56.2018579
  58.0405872  51.9898758  56.7428579  56.9455872  51.4338758  57.3718579
  56.6745872  51.7338758  58.7628579  57.5565872  52.6968758  59.3788579
  57.2045872  53.0618758  60.7998579  57.7405872  52.1538758  61.9978579
  56.9635872  50.9238758  62.3628579  59.1345872  51.8258758  61.6538579
  57.7925872  53.0018758  63.2778579  58.7005872  53.2438758  58.8058579
  58.8965872  52.9328758  57.4658579  56.9495872  52.3718758  51.9688579
  55.7305872  52.8918758  51.4548579  54.6925872  52.0108758  51.2188579
  54.7095872  50.6648758  51.5168579  53.4185872  49.9148758  51.2278579
  53.4455872  48.8338758  50.1558579  54.1145872  49.2828758  48.8638579
  54.1445872  47.5968758  50.7268579  52.0835872  48.4818758  49.7888579
  55.8545872  50.1258758  52.0498579  56.9995872  50.9278758  52.2058579
  57.0705872  55.0648758  53.5468579  56.5065872  56.3258758  53.7278579
  52.7195872  56.2878758  53.8328579  52.1255872  56.2978758  55.1348579
  52.2475872  55.1428758  56.0188579  53.0015872  54.0378758  55.6008579
  53.2505872  52.9358758  56.5888579  52.6225872  51.5938758  56.4728579
  51.1925872  51.7708758  56.0238579  53.3465872  50.8408758  55.3788579
  52.6605872  50.7848758  57.7568579  53.4735872  54.0498758  54.2988579
  53.3455872  55.0898758  53.4098579  51.9485872  59.8798758  49.7268579
  52.3335872  58.6168758  49.3098579  53.4165872  58.5438758  48.4568579
  54.1945872  59.6988758  48.0648579  55.4205872  59.5368758  47.2578579
  55.3445872  59.7618758  45.7348579  56.5195872  59.0788758  45.1458579
  54.0365872  59.1658758  45.1248579  55.4075872  61.2238758  45.3728579
  53.7305872  60.9838758  48.5028579  52.5405872  61.0708758  49.2618579
  47.2385872  60.3688758  49.1728579  47.8515872  61.1138758  48.1728579
  47.4775872  60.9008758  46.8688579  46.3925872  60.0108758  46.5528579
  45.9345872  59.7388758  45.2148579  44.9725872  60.7778758  44.6168579
  45.4605872  62.2058758  44.5038579  44.6115872  60.4868758  43.1548579
  43.6895872  60.8008758  45.5248579  45.7485872  59.2848758  47.6098579
  46.2045872  59.4548758  48.8818579  44.9825872  63.3468758  53.2288579
  44.1565872  63.3728758  52.1418579  43.5665872  64.5598758  51.7218579
  43.7135872  65.7378758  52.5228579  42.8635872  66.9758758  52.1298579
  43.5045872  68.3488758  51.5838579  42.4415872  69.1428758  50.7938579
  44.0225872  69.2428758  52.7658579  44.6205872  67.9468758  50.6898579
  44.5295872  65.6768758  53.6688579  45.1365872  64.4768758  54.0438579
  45.0575872  61.6538758  57.0198579  44.7855872  63.0758758  57.1928579
  45.7795872  63.8748758  57.7328579  46.9645872  63.3428758  58.1118579
  47.9495872  64.1428758  58.7968579  47.7445872  64.6388758  60.1838579
  49.0655872  65.1878758  60.7438579  46.6685872  65.7618758  60.1868579
  47.3045872  63.6008758  61.2188579  47.2335872  61.9748758  57.9418579
  46.3125872  61.1038758  57.3468579  41.2855872  59.3248758  59.9938579
  40.5725872  60.2848758  60.8448579  40.7965872  60.2538758  62.2548579
  41.7425872  59.3798758  62.8148579  42.0505872  59.5588758  64.2918579
  43.0905872  60.5478758  64.6488579  44.4245872  59.7318758  65.0158579
  43.4375872  61.5228758  63.4688579  42.6935872  61.3788758  65.8838579
  42.4775872  58.5418758  61.9548579  42.2515872  58.4758758  60.5538579
  38.5125872  62.3528758  56.3788579  39.5725872  62.9488758  55.7538579
  39.8875872  64.2918758  55.9448579  39.1195872  65.1218758  56.8438579
  39.4075872  66.5338758  57.0088579  38.7955872  67.3888758  55.9188579
  37.2555872  67.1738758  55.9138579  39.0475872  68.8778758  56.2798579
  39.3965872  67.1198758  54.5098579  37.9715872  64.4628758  57.5548579
  37.7135872  63.1328758  57.1728579  36.2585872  58.1858758  56.6998579
  36.0015872  58.6808758  57.9618579  36.2745872  57.9568758  59.1278579
  36.9575872  56.7158758  58.9908579  37.2295872  55.8328758  60.1188579
  38.6455872  56.1508758  60.7158579  39.6945872  55.8298758  59.6758579
  38.7515872  57.5688758  61.2618579  38.8915872  55.2628758  61.9698579
  37.1945872  56.2348758  57.7168579  36.8245872  56.8958758  56.5668579
  32.0895872  61.5758758  55.3598579  32.0995872  62.4928758  56.4028579
  31.1485872  62.4428758  57.4188579  30.1285872  61.5438758  57.3628579
  29.1745872  61.6148758  58.5678579  27.7925872  62.2208758  58.2558579
  26.8415872  61.2608758  57.4188579  27.1295872  62.3988758  59.5728579
  28.0905872  63.7108758  57.6028579  30.0435872  60.6968758  56.3498579
  31.0365872  60.7298758  55.3598579  34.0075872  61.4438758  50.9738579
  32.8465872  60.6998758  50.8858579  32.7995872  59.3068758  50.7898579
  34.0175872  58.6478758  50.7398579  33.9565872  57.1428758  50.4668579
  33.7305872  56.3538758  51.7068579  32.3595872  56.7838758  52.3948579
  33.6875872  54.8878758  51.3618579  34.9375872  56.5868758  52.6728579
  35.2515872  59.3508758  50.7328579  35.2495872  60.7058758  50.8598579
  31.2255872  65.9798758  48.9438579  31.6705872  66.7298758  47.8208579
  31.0695872  66.5288758  46.5658579  29.9175872  65.7938758  46.4398579
  29.2675872  65.7338758  45.0528579  28.2835872  66.9808758  44.7738579
  28.8755872  68.3178758  45.2118579  27.9345872  67.0468758  43.3438579
  27.0055872  66.8068758  45.5878579  29.4905872  65.0168758  47.4988579
  30.1105872  65.0918758  48.7048579  28.5655872  67.6828758  53.5698579
  27.4505872  67.3678758  52.7108579  26.4095872  68.2158758  52.4158579
  26.3825872  69.4598758  53.0458579  25.2595872  70.4868758  52.7848579
  25.3485872  71.3838758  51.5908579  24.0165872  72.2748758  51.7538579
  26.6075872  72.2638758  51.7838579  25.3315872  70.6068758  50.2548579
  27.3995872  69.7808758  54.0118579  28.4715872  68.9148758  54.2608579
  28.7115872  65.0208758  53.3438579  28.7955872  65.1758758  55.0918579
  30.2825872  64.6688758  54.1988579  30.1855872  67.1828758  54.8218579
  31.8605872  66.5728758  53.2358579  31.0685872  68.0438758  52.6268579
  29.8915872  66.8428758  51.0048579  30.3735872  65.2528758  51.6618579
  32.2375872  67.2658758  50.3518579  33.5545872  65.9288758  51.5038579
  33.7955872  65.4818758  49.8888579  32.3225872  63.4128758  49.9768579
  32.0725872  63.8288758  51.6088579  34.7875872  63.3968758  50.5268579
  34.9805872  64.3048758  52.8838579  35.6485872  62.7508758  52.8028579
  33.0015872  63.7918758  53.9928579  34.4265872  63.1558758  54.7628579
  32.5145872  61.4538758  53.1978579  34.8675872  60.6418758  53.5258579
  33.5645872  59.4758758  54.0328579  33.9515872  59.9648758  56.2788579
  35.4015872  61.0098758  55.9038579  35.2035872  58.1418758  54.8568579
  36.5245872  59.2778758  53.3838579  37.7055872  58.5248758  54.5118579
  37.1015872  61.4748758  54.3058579  38.6445872  60.4968758  54.1238579
  37.2755872  60.5688758  56.7378579  39.9845872  59.9108758  55.7358579
  38.7425872  58.9008758  56.5258579  38.9835872  60.2518758  58.6138579
  40.1005872  61.2868758  58.0318579  40.5085872  58.2628758  58.3198579
  41.7785872  58.9428758  56.6108579  42.9615872  58.3728758  57.8498579
  43.1365872  60.7538758  58.4828579  42.0545872  61.2548758  57.1978579
  44.3985872  59.7248758  56.2598579  43.1235872  62.0988758  55.1278579
  42.6305872  60.4608758  54.8778579  43.9445872  60.8508758  52.8998579
  44.9935872  59.9968758  54.0378579  46.0185872  62.2378758  54.7428579
  47.2055872  60.6838758  53.4138579  47.5305872  62.3368758  52.9338579
  46.1025872  61.9348758  50.9018579  45.6105872  60.3398758  51.5278579
  48.4445872  61.2688758  50.8378579  47.4465872  58.4408758  50.7968579
  48.3545872  59.2058758  52.1608579  49.4225872  58.9358758  49.3088579
  49.8135872  57.8938758  50.6528579  50.3975872  60.8728758  50.4198579
  50.7685872  60.6828758  52.7838579  52.2405872  60.4718758  52.1718579
  50.5815872  58.0258758  53.4448579  51.8685872  58.8978758  54.1068579
  51.9715872  56.8348758  51.9428579  53.7435872  58.6768758  51.4328579
  54.4035872  57.0928758  51.8658579  54.5605872  58.1548758  54.2318579
  54.2235872  59.6868758  53.4148579  56.1955872  59.1998758  50.7258579
  57.5505872  59.8558758  51.6138579  54.6665872  60.7768758  51.4928579
  55.9855872  61.4798758  50.6238579  55.1665872  61.4908758  53.5108579
  57.9125872  61.5488758  53.4618579  56.9835872  62.8628758  54.2758579
  57.6715872  63.1768758  51.3808579  59.0675872  62.8748758  52.4388579
  56.9995872  65.1988758  52.6838579  57.7915872  64.8908758  54.7828579
  58.2165872  66.4248758  54.1418579  60.2075872  64.1578758  54.3198579
  59.9795872  65.3658758  55.6018579  60.4755872  66.4298758  52.7908579
  59.9095872  68.1148758  54.2988579  61.5495872  68.3458758  53.9808579
  61.8315872  66.8008758  56.3968579  60.4835872  67.6798758  56.7428579
  63.0595872  68.7458758  55.7508579  61.7815872  70.4328758  55.1298579
  62.6625872  70.9488758  56.4808579  59.6485872  70.0248758  56.2148579
  60.1805872  71.7148758  56.3638579  60.5875872  69.6258758  58.4468579
  62.0875872  70.8898758  59.1188579  60.8155872  71.5368758  60.1428579
  61.9915872  72.9298758  57.5788579  62.3915872  73.2388758  59.2528579
  59.5525872  73.7998758  58.1008579  59.4475872  73.3618758  60.4508579
  59.1775872  75.0158758  60.3318579  61.6095872  73.5278758  61.4958579
  60.4635872  74.7288758  62.1728579  62.8715872  75.3038758  60.3858579
  61.1355872  76.9798758  59.8978579  62.4545872  77.8038758  60.7198579
  59.7635872  76.7868758  61.9098579  60.0825872  78.3848758  61.3328579
  60.9215872  76.8628758  63.7518579  63.0015872  78.2138758  63.0828579
  62.3585872  78.9288758  64.5438579  61.0255872  80.4948758  63.2338579
  61.8295872  80.1178758  61.8318579  63.2605872  81.2218758  64.3948579
  65.0545872  79.8268758  63.0898579  65.3975872  81.3748758  63.5028579
  64.1995872  80.8988758  60.6748579  65.8285872  80.3498758  61.0478579
  64.8355872  83.0778758  61.6578579  67.6295872  82.5618758  60.7808579
  67.0255872  82.5248758  62.4128579  65.8875872  84.9158758  61.6778579
  67.0175872  85.0898758  60.5718579  67.8435872  86.2578758  62.4788579
  67.4775872  83.9138758  64.3458579  66.5385872  85.4538758  64.3978579
  68.3635872  85.3998758  64.6758579  69.6715872  83.5928758  63.7728579
  71.9745872  83.2428758  63.2678579  73.3805872  84.1028758  59.8198579
  73.7875872  83.1278758  61.2678579  74.8335872  84.4498758  63.5088579
  73.3245872  85.4368758  63.4858579  74.8155872  86.1658758  63.2328579
  76.3705872  85.3318758  61.7108579  75.7825872  84.6168758  60.0418579
  75.8765872  83.6348758  61.5268579  73.0475872  86.8378758  61.2158579
  74.1105872  86.3778758  59.7888579  74.8225872  87.1508758  61.1328579
  71.5235872  85.3768758  59.5078579  69.1315872  85.7458758  60.1618579
  64.1685872  84.8168758  60.0688579  63.6385872  85.5058758  57.7768579
  63.2155872  84.7738758  55.5438579  63.9355872  83.3568758  54.8938579
  64.4115872  84.3488758  52.8188579  65.3815872  85.8068758  52.6658579
  63.7735872  85.8538758  53.5088579  64.6425872  87.0008758  55.2978579
  66.3225872  86.9168758  54.8558579  65.8145872  86.3258758  56.4478579
  67.2365872  84.5618758  53.9048579  66.1265872  83.2418758  54.0838579
  66.8785872  83.8608758  55.5698579  65.5515872  81.9348758  56.2308579
  66.2745872  81.3248758  58.5178579  61.9905872  82.2948758  60.9248579
  61.3405872  84.7408758  60.6258579  62.1055872  87.0138758  61.0088579
  62.9675872  87.2248758  62.5508579  61.0525872  86.5758758  64.6308579
  59.9135872  87.8838758  64.5298579  61.6605872  88.2578758  64.2838579
  61.8015872  89.3348758  62.1308579  60.2295872  89.5988758  62.6548579
  60.3755872  88.9768758  61.0818579  59.3475872  85.8008758  62.4338579
  59.5175872  86.9718758  61.0308579  58.6665872  87.3728758  62.4898579
  63.3275872  85.7988758  64.1968579  64.0485872  83.3628758  64.6118579
  58.9715872  79.9708758  62.5768579  57.3425872  80.9968758  64.0308579
  56.3895872  81.0778758  66.3208579  56.4145872  79.7438758  67.4728579
  53.8875872  77.8238758  65.6158579  54.8705872  77.6358758  67.0888579
  55.6765872  77.7128758  65.4648579  53.6795872  81.2808758  66.7388579
  54.2215872  80.1158758  68.0208579  52.9145872  79.7548758  66.8978579
  53.5395872  79.5858758  64.4728579  55.2145872  79.2768758  63.8958579
  54.7165872  80.9598758  64.5298579  57.9595872  77.8608758  66.9948579
  60.0295872  77.2208758  65.8768579  62.0135872  74.2318758  63.7698579
  63.7635872  74.2798758  65.5438579  66.4675872  74.8398758  65.8488579
  65.0675872  75.6538758  66.7048579  68.0505872  76.2308758  67.8608579
  66.3025872  76.4018758  68.5088579  67.3225872  77.7478758  68.2088579
  68.5965872  77.8048758  65.8778579  67.6535872  77.4678758  64.5388579
  68.4905872  76.1208758  65.3258579  66.2625872  78.9318758  66.9798579
  64.8925872  77.9478758  66.5948579  65.8735872  78.5958758  65.2398579
  66.1315872  77.0198758  63.3418579  64.7105872  76.7208758  61.3918579
  62.8295872  75.2488758  57.7608579  63.1255872  77.3888758  56.7608579
  60.4695872  80.1048758  56.3318579  62.1445872  79.7518758  55.8888579
  62.6635872  82.3598758  58.4818579  61.2465872  82.3668758  57.3788579
  62.8655872  81.9378758  56.7328579  61.0315872  79.7568758  59.7808579
  59.7915872  80.4448758  58.6428579  60.9605872  81.4098758  59.5068579
  63.8955872  79.6238758  57.5448579  63.0315872  78.7828758  58.7868579
  63.7225872  80.4428758  59.0708579  58.9695872  78.4308758  57.6308579
  58.6725872  76.2428758  58.4368579  58.1295872  72.0868758  57.0298579
  55.8785872  72.5168758  57.9548579  54.4715872  72.4088758  60.5648579
  54.7915872  71.0558758  61.4588579  54.0775872  71.2108758  57.6428579
  52.6905872  72.0148758  58.4788579  52.5535872  70.3508758  57.8478579
  54.2605872  68.5838758  60.5538579  55.3285872  69.1058758  59.2228579
  53.7215872  68.5158758  58.8278579  51.9025872  71.5558758  60.3988579
  52.7215872  70.5398758  61.6908579  51.7815872  69.8198758  60.4268579
  56.9375872  70.1458758  61.4988579  59.1305872  69.8148758  60.5628579
  61.6585872  67.6768758  58.8778579  63.0545872  67.4278758  60.8588579
  65.0015872  68.1988758  62.2278579  66.1095872  69.3848758  61.3628579
  68.2105872  66.8138758  59.7638579  67.7965872  68.4548758  59.8538579
  66.7715872  67.3588758  58.8928579  68.1115872  66.3868758  62.2118579
  67.0505872  67.4328758  63.2708579  68.2585872  68.1268758  62.1638579
  66.5895872  65.0808758  60.7958579  65.1045872  65.8718758  60.2908579
  65.4805872  65.5958758  62.0398579  66.1295872  69.7588758  59.0018579
  64.7265872  69.8598758  56.9568579  62.3315872  64.4068758  55.2218579
  64.7935872  63.9338758  55.0848579  66.9735872  64.6558758  54.1098579
  66.9095872  65.8158758  52.8768579  68.7885872  63.4288758  53.2798579
  68.7395872  64.6738758  52.0038579  68.9395872  63.0058758  51.5298579
  66.7715872  61.5368758  51.9958579  65.3685872  62.4028758  52.8818579
  66.8995872  62.2048758  53.6488579  66.9165872  63.1898758  50.1188579
  67.0545872  64.9428758  50.5988579  65.5005872  64.1138758  50.7878579
  64.9455872  66.5378758  51.7298579  62.6265872  67.2098758  52.0758579
  60.0385872  64.0738758  50.8028579  60.9585872  65.4818758  48.9508579
  61.4975872  67.7298758  48.2118579  60.3525872  69.0468758  48.7978579
  59.7755872  65.9898758  46.3038579  58.4015872  66.9338758  45.7708579
  58.4205872  66.3008758  47.5098579  58.7765872  69.9868758  47.5428579
  57.6735872  68.6438758  47.7528579  57.9825872  69.1428758  46.1558579
  61.3175872  67.8368758  45.8398579  60.7895872  69.5428758  46.0418579
  59.9165872  68.5398758  44.8998579  58.3965872  68.7208758  50.0128579
  57.4385872  67.3468758  51.8038579  55.1385872  64.1238758  54.5698579
  54.3255872  66.2628758  54.2538579  53.5725872  67.7708758  50.8758579
  53.8235872  68.0408758  52.5178579  51.6335872  68.0068758  49.8548579
  50.0505872  67.7978758  50.5308579  51.1775872  66.3688758  50.4518579
  51.7245872  67.3908758  54.0228579  51.0705872  66.0798758  52.9898579
  50.1135872  67.5638758  53.3478579  50.6225872  69.7558758  52.3188579
  52.1075872  69.9348758  51.3048579  52.1505872  69.4908758  53.0868579
  53.5895872  65.2598758  50.0238579  54.6135872  63.0428758  50.4978579
  55.3925872  60.0058758  55.3148579  56.8915872  60.5398758  57.2358579
  60.3385872  59.7158758  57.6618579  58.8005872  60.2598758  58.4788579
  60.0615872  61.7768758  55.3848579  61.4855872  61.2558758  56.1258579
  61.1335872  63.0288758  56.2908579  57.9485872  62.3258758  57.4088579
  59.0875872  63.7538758  57.5038579  58.7795872  62.8418758  58.8888579
  61.7235872  60.8868758  58.5528579  60.5845872  61.4448758  59.5968579
  61.7035872  62.6578758  58.8078579  60.2895872  59.0138758  55.2848579
  58.8965872  58.5478758  53.3118579  57.8405872  57.6188758  50.7798579
  58.5115872  55.5748758  50.5278579  58.0055872  53.5368758  49.9078579
  58.6665872  51.9638758  50.2978579  60.9585872  52.7268758  50.4108579
  60.5515872  54.3388758  50.8048579  59.5575872  54.4828758  48.3888579
  62.5475872  54.2348758  48.7238579  61.5245872  55.6168758  49.1088579
  61.0045872  56.2328758  47.0388579  61.2875872  54.7308758  46.2258579
  63.4215872  56.3428758  47.5888579  63.9545872  54.1898758  45.4698579
  64.0345872  53.8258758  47.1818579  65.6995872  55.9118758  47.3228579
  65.7925872  55.7708758  45.5618579  66.6205872  53.8648758  47.6238579
  65.8145872  52.4578758  45.6928579  67.5755872  52.4198758  45.8968579
  66.4265872  54.5218758  43.9658579  66.1785872  52.9158758  43.4678579
  68.8525872  54.0818758  44.2778579  68.9835872  51.5118758  44.4318579
  69.9775872  52.1848758  43.3158579  67.2725872  51.5938758  42.2488579
  68.1735872  50.1748758  42.9948579  69.2675872  51.8688758  40.7588579
  70.2315872  49.1258758  41.4278579  70.9465872  50.6488758  41.9728579
  70.7405872  49.6308758  39.0648579  72.0785872  49.5798758  40.2258579
  70.8685872  52.1038758  39.2968579  71.9375872  52.6218758  41.2088579
  73.0975872  53.0508758  39.9128579  73.2535872  50.6528758  41.8058579
  74.2075872  52.1058758  42.0938579  74.4605872  50.0008758  39.8538579
  74.6835872  52.2738758  38.7498579  76.1025872  51.2478758  38.7318579
  77.3045872  52.5218758  40.3838579  75.9255872  53.5368758  40.7468579
  77.6065872  53.5178758  38.3158579  75.0345872  55.2008758  38.8978579
  75.1155872  54.0868758  37.6838579  76.4885872  56.7158758  37.6938579
  75.3065872  56.1468758  36.5278579  78.0765872  54.8068758  36.8908579
  76.2405872  54.6868758  34.5688579  76.2775872  53.4868758  35.9428579
  78.2455872  54.2038758  33.6958579  77.5315872  52.6148758  33.9688579
  79.6445872  53.6678758  35.8238579  78.6565872  50.8308758  35.3678579
  78.2535872  51.7698758  36.7308579  80.6095872  52.0238758  37.3908579
  81.1375872  50.9478758  36.1568579  79.1185872  50.0638758  38.2568579
  79.1565872  48.4218758  36.2438579  79.9995872  47.7288758  37.7048579
  80.9475872  48.3858758  36.4198579  79.7075872  49.7198758  40.4468579
  81.3265872  49.4988758  42.1898579  84.2235872  50.2308758  42.4938579
  85.0935872  49.2318758  41.3618579  82.9575872  47.1078758  44.3118579
  81.9695872  47.8288758  42.9188579  82.7035872  48.8818758  44.2278579
  84.2055872  45.8748758  42.6048579  84.8995872  46.8408758  41.3038579
  83.0865872  46.6878758  41.4638579  86.1535872  48.0478758  43.2238579
  85.2455872  47.1528758  44.3488579  85.1375872  48.9568758  44.4878579
  84.5535872  49.7778758  39.3438579  82.7855872  50.0878758  37.4698579
  79.6515872  50.7218758  33.3548579  81.1455872  50.4828758  31.5428579
  83.3605872  51.5918758  30.3128579  83.5725872  53.3598758  30.7458579
  82.4625872  50.9018758  28.3008579  81.4165872  52.0938758  27.3708579
  80.8875872  51.1948758  28.8888579  80.3255872  53.2128758  30.2228579
  80.4945872  53.9658758  28.6798579  81.3905872  54.6658758  30.0578579
  83.4695872  54.5558758  29.0028579  82.6135872  54.3588758  27.5248579
  83.9535872  53.1638758  27.9428579  82.8355872  54.4768758  32.4678579
  81.2875872  54.6368758  34.3478579  76.4175872  56.8558758  34.1058579
  77.6495872  58.4338758  32.7678579  79.8785872  59.3758758  32.0838579
  81.3845872  58.8158758  32.6068579  82.6615872  60.6888758  32.5128579
  81.9065872  62.2168758  32.9148579  81.2795872  61.1608758  31.5688579
  79.1425872  61.4968758  32.2078579  79.6255872  62.4438758  33.5978579
  78.5895872  61.0428758  33.9338579  80.3525872  60.0718758  35.4638579
  81.2845872  61.5228758  35.3708579  82.0715872  59.9268758  34.9498579
  81.3115872  57.5998758  35.0998579  79.9645872  56.0408758  36.4118579
  76.2405872  56.2108758  40.7278579  77.8405872  57.4568758  42.1918579
  80.1195872  58.4798758  42.2808579  81.5065872  57.9468758  41.5178579
  82.6495872  57.4508758  44.8488579  81.6255872  58.7528758  44.5818579
  82.7625872  58.3528758  43.2878579  80.2085872  56.6238758  45.3558579
  79.1815872  56.2828758  43.9028579  79.5155872  57.9468758  44.3608579
  82.4155872  55.8458758  42.3848579  80.8915872  54.9308758  42.8468579
  82.2585872  55.1648758  43.9458579  81.1765872  55.7078758  40.3188579
  79.6305872  54.1138758  39.0188579  75.8825872  51.1248758  43.1038579
  77.4765872  49.6238758  44.1368579  79.2375872  48.2888758  43.6648579
  79.6335872  47.1578758  42.2338579  77.7555872  47.7748758  45.3068579
  77.1085872  46.1048758  45.5928579  76.4045872  47.1278758  44.3758579
  78.6495872  44.9808758  42.1398579  77.0035872  45.5818758  42.4428579
  77.7515872  44.4068758  43.5288579  79.1695872  44.9738758  45.0708579
  79.8535872  46.6098758  45.4078579  80.4275872  45.8258758  43.9598579
  77.8135872  47.4108758  40.4088579  76.1575872  48.8698758  39.4558579
  72.9175872  49.2948758  38.0018579  74.2055872  49.3698758  36.0768579
  75.2625872  50.8108758  34.2398579  74.4425872  52.3398758  33.9418579
  72.7685872  48.7118758  33.9598579  74.6345872  48.8338758  33.5708579
  73.4345872  48.6158758  32.3108579  72.1245872  52.1538758  33.0638579
  71.3465872  50.7358758  33.7908579  71.6725872  50.8458758  32.0018579
  73.5825872  50.8968758  31.0758579  75.1205872  50.4058758  31.7578579
  74.4985872  52.0888758  32.0478579  72.9545872  53.5008758  35.3438579
  71.7985872  53.4648758  37.5698579  67.4295872  48.4938758  41.4468579
  65.6255872  47.8378758  40.1388579  64.5955872  49.5108758  36.7318579
  63.9345872  48.6678758  38.0808579  63.1625872  47.4538758  36.1548579
  64.2105872  46.3578758  35.2828579  64.1945872  48.1608758  34.8628579
  66.5535872  48.7408758  35.3208579  66.6965872  47.0728758  35.0518579
  67.4845872  47.6958758  36.4628579  64.3875872  46.2158758  38.1078579
  66.0875872  46.6688758  38.2678579  65.6895872  45.5468758  36.9788579
  66.5855872  50.8308758  37.0998579  68.3865872  51.7348758  38.6258579
  66.4385872  53.5338758  41.2698579  66.5955872  54.6178758  39.2128579
  68.2285872  55.6758758  37.3968579  69.9165872  56.0458758  37.9158579
  69.8795872  58.2568758  36.4578579  68.4435872  59.2188758  36.5828579
  68.3295872  57.7038758  35.8598579  66.7765872  58.8348758  38.2228579
  67.1555872  57.7778758  39.6658579  66.4465872  57.0628758  38.1778579
  69.2325872  59.2578758  39.2768579  70.4565872  58.0138758  38.6778579
  69.5025872  57.6458758  40.0488579  70.7345872  55.7198758  40.1018579
  70.4675872  54.7858758  42.3448579  67.5515872  56.8588758  45.8208579
  69.8075872  57.8658758  45.7438579  72.1465872  57.5598758  45.8278579
  72.8655872  55.9618758  46.1848579  73.4275872  55.3958758  48.5408579
  72.0365872  56.0008758  49.4398579  73.6405872  56.6388758  49.7078579
  74.7935872  57.3528758  47.6118579  74.2325872  58.8498758  48.3708579
  73.9305872  58.5558758  46.6218579  72.1055872  58.8048758  49.2208579
  70.6935872  57.9228758  48.6188579  71.4665872  59.0728758  47.5158579
  71.4585872  54.2778758  47.2678579  69.3515872  53.2358758  47.2758579
  62.4045872  55.3078758  44.0148579  62.1595872  57.0708758  42.1908579
  63.5395872  58.8978758  41.1058579  64.1775872  60.0528758  42.1518579
  61.7385872  62.0688758  40.1828579  62.9335872  60.8048758  39.5628579
  63.3895872  61.9338758  40.7878579  61.3265872  58.8488758  40.4238579
  60.0075872  59.9988758  40.6538579  60.5795872  58.8428758  41.8828579
  62.3375872  61.7798758  43.2318579  61.1415872  60.5088758  43.6148579
  60.7525872  61.8278758  42.4378579  64.2055872  59.9088758  44.5208579
  64.2875872  58.3418758  46.4848579  58.5515872  53.1998758  46.7658579
  58.5775872  51.3008758  45.1248579  61.1905872  48.7048758  44.7818579
  59.8955872  49.6658758  44.0828579  60.8955872  46.8898758  46.1878579
  59.3975872  46.5168758  46.9398579  60.2145872  48.0938758  47.3278579
  57.7255872  49.0608758  44.6048579  57.8775872  48.9408758  46.4408579
  57.2605872  47.6088758  45.5418579  60.4545872  46.5098758  44.2538579
  59.1575872  47.2458758  43.2498579  58.9035872  45.9368758  44.4958579
  62.0925872  49.7778758  47.1998579  62.1785872  51.7798758  48.4888579
  60.1925872  53.2658758  52.7878579  59.6415872  51.5818758  52.6888579
  58.9375872  53.5758758  54.9308579  60.2755872  52.5398758  54.9538579
  57.3565872  51.6468758  54.8598579  58.3535872  49.5798758  54.3468579
  58.1225872  49.4328758  55.9908579  60.6495872  49.7838758  54.5678579
  60.1625872  48.4368758  55.3738579  60.6275872  51.1468758  56.8018579
  59.0865872  50.0918758  58.2268579  60.6725872  50.0078758  59.0218579
  59.2945872  47.7388758  57.5538579  59.1435872  48.0458758  59.2238579
  62.0025872  47.5758758  58.1348579  62.2335872  48.3248758  60.2348579
  62.2765872  46.5808758  60.4638579  59.9865872  48.5978758  61.3188579
  61.1045872  47.7988758  62.2898579  58.9815872  46.3278758  60.6578579
  60.7305872  44.6998758  61.3648579  59.2315872  44.4578758  62.3018579
  60.0165872  45.8048758  64.1398579  61.6625872  45.9678758  63.3228579
  60.2825872  43.5768758  64.3758579  61.4945872  42.9138758  62.4938579
  62.2905872  42.1578758  63.7908579  63.3585872  44.5458758  62.2198579
  63.8835872  42.9708758  62.2108579  64.3145872  44.7638758  64.6878579
  64.1665872  42.5498758  65.5598579  65.8995872  43.0138758  65.3798579
  65.9065872  41.7928758  63.1118579  64.3125872  41.1668758  63.5148579
  66.6295872  41.0278758  65.4398579  64.8655872  40.7258758  66.7258579
  65.4565872  39.0548758  66.5718579  62.8425872  40.2198758  65.3508579
  63.0495872  38.9888758  66.4018579  63.6465872  39.0008758  63.4748579
  65.4095872  37.3568758  64.5178579  64.2625872  36.6838758  63.3518579
  62.9825872  35.6198758  65.1538579  63.8715872  36.5198758  66.3878579
  65.2015872  34.4268758  64.4928579  66.9565872  35.6188758  65.0078579
  67.0765872  34.3698758  66.0648579  66.3575872  37.1678758  67.0318579
  67.8055872  36.3188758  67.2958579  65.0805872  35.4628758  68.2478579
  66.6045872  33.5728758  68.1388579  65.9765872  33.9588758  69.7938579
  68.4095872  34.5948758  70.3818579  68.8525872  34.7038758  68.7028579
  68.0795872  32.1768758  70.0688579  69.5985872  32.6298758  67.5328579
  68.0665872  31.8438758  67.7668579  69.1165872  29.8738758  68.9488579
  70.6955872  30.5868758  68.8268579  70.7185872  30.6308758  66.3168579
  70.4825872  28.0428758  67.7388579  71.9555872  28.8928758  67.4588579
  71.0275872  28.2548758  66.0458579  69.0845872  31.4068758  64.7548579
  67.1455872  30.9678758  63.3208579  64.9825872  29.6298758  62.8758579
  64.8235872  28.1028758  63.7108579  66.7785872  25.7978758  61.6298579
  65.4305872  25.9638758  62.7958579  67.0535872  26.6038758  63.1878579
  63.8835872  27.3828758  61.6588579  64.7725872  27.2878758  60.1738579
  64.2945872  28.8948758  60.8438579  66.7955872  29.6338758  60.8698579
  67.3555872  27.9978758  60.4378579  67.8205872  28.7448758  62.0348579
  66.3525872  27.4538758  65.5898579  68.2285872  27.8678758  67.0128579
  71.2795872  33.8818758  68.8638579  73.3185872  33.7778758  70.0398579
  74.7105872  32.7808758  71.6048579  74.2755872  31.6448758  72.8798579
  73.2305872  34.5118758  75.3538579  73.0275872  32.8228758  75.2248579
  72.0935872  33.9568758  74.1368579  75.2945872  32.5398758  75.0528579
  75.7165872  34.2818758  74.8908579  76.3275872  33.1078758  73.7048579
  74.9995872  34.9448758  71.9598579  74.4865872  35.7478758  73.5268579
  73.3255872  35.2118758  72.4388579  71.5005872  31.3398758  73.0728579
  69.4285872  31.6278758  72.0018579  67.9585872  37.4228758  69.3918579
  67.8285872  38.9388758  71.3438579  64.7855872  39.1128758  73.4608579
  66.3505872  39.8738758  73.3078579  66.8405872  39.6958758  75.7928579
  66.5255872  38.1218758  76.6588579  65.1935872  38.9068758  75.8268579
  65.6025872  36.1688758  73.6498579  64.5535872  36.9858758  74.8118579
  65.9765872  36.0208758  75.3808579  68.0085872  37.0798758  73.2478579
  68.3845872  37.2738758  75.0658579  68.3495872  38.6408758  73.9558579
  64.1925872  37.1698758  72.5198579  64.0915872  35.8558758  70.4018579
  63.0005872  34.6438758  67.5568579  62.2975872  32.7148758  68.7428579
  63.3675872  29.2018758  67.7178579  62.1975872  30.2668758  68.7678579
  62.5425872  28.2748758  70.3358579  64.2815872  28.0568758  71.0278579
  63.8345872  27.6508758  69.3688579  65.8415872  30.7038758  68.9188579
  65.7385872  29.0188758  68.4768579  66.0615872  29.4658758  70.2078579
  64.3335872  30.4998758  71.6968579  62.8005872  31.0198758  71.1008579
  64.3235872  31.8138758  70.5988579  65.1415872  30.3548758  66.4408579
  65.7045872  32.4108758  65.1668579  61.2835872  38.0268758  66.2168579
  59.0355872  37.5768758  65.6878579  57.5655872  37.2468758  62.2978579
  57.1515872  37.2178758  64.0058579  58.9035872  34.5658758  64.4428579
  57.7915872  33.4218758  63.7848579  57.1285872  34.7198758  64.8678579
  55.8295872  34.1988758  62.2428579  55.7795872  35.8208758  61.8168579
  55.4645872  35.3268758  63.5538579  58.1645872  35.7768758  60.9718579
  57.9595872  34.1108758  61.1068579  59.4515872  34.8448758  61.8858579
  59.8885872  37.1078758  61.4788579  62.3065872  37.7998758  61.9878579
  65.5145872  39.0928758  62.3418579  67.2865872  37.6948758  61.2648579
  69.1825872  36.3448758  61.4378579  69.8205872  35.9608758  63.0658579
  70.5605872  39.3178758  61.7128579  69.8155872  38.4548758  60.3278579
  71.6235872  38.6028758  60.4358579  72.7785872  37.6128758  62.7788579
  71.6925872  36.9298758  63.9808579  71.4005872  38.5858758  63.3818579
  70.9045872  35.7138758  60.2368579  71.7845872  35.3188758  61.8328579
  72.5605872  36.2298758  60.7168579  69.6245872  37.7528758  64.8728579
  68.2605872  39.4298758  65.8108579  65.8885872  43.8088758  61.5218579
  67.9855872  44.9358758  60.7498579  69.5625872  47.7758758  62.3328579
  69.5965872  46.8478758  60.9938579  71.6765872  43.9888758  62.7858579
  70.9055872  44.3498758  61.2198579  69.8925872  44.0178758  62.5778579
  72.8605872  46.6508758  62.7248579  71.9065872  47.7598758  61.7898579
  72.2475872  46.2148758  61.0488579  70.9565872  47.1618758  64.5608579
  71.6055872  45.4288758  64.6198579  69.8895872  45.7208758  64.5878579
  68.0425872  47.0938758  64.5298579  66.1675872  45.9118758  65.2468579
  62.1505872  46.4268758  65.3438579  62.7865872  46.8888758  67.7258579
  63.8375872  45.5578758  69.8208579  62.9615872  44.1198758  70.3428579
  61.2955872  47.3178758  69.2398579  62.9445872  47.5508758  70.0218579
  61.4825872  47.9308758  70.9288579  59.8035872  45.6298758  70.9908579
  60.5465872  44.1198758  70.5158579  60.1875872  45.3658758  69.2818579
  63.2375872  45.9268758  72.3148579  61.8185872  44.8098758  72.5458579
  61.5275872  46.4718758  72.6418579  62.1135872  42.6608758  68.6258579
  61.4795872  42.2978758  66.2518579  56.9085872  45.7048758  61.4888579
  55.1065872  46.5008758  62.6308579  54.1165872  48.5608758  64.3178579
  55.3765872  49.1828758  65.4898579  54.3985872  48.6818758  67.6148579
  53.0355872  47.4618758  67.6248579  53.0605872  48.8328758  66.4448579
  52.9975872  46.5488758  64.6198579  53.1975872  45.7768758  66.2398579
  54.3455872  45.5008758  64.9288579  56.2435872  47.5738758  67.4138579
  56.4225872  46.2218758  66.1848579  55.3315872  46.0688758  67.5378579
  57.7175872  48.9538758  65.2278579  59.4775872  48.4208758  63.6138579
  58.8195872  45.6638758  58.4678579  58.6805872  43.2358758  58.1508579
  59.6045872  41.1798758  57.9508579  61.2295872  40.9448758  58.4778579
  62.9185872  40.5488758  55.3198579  62.8385872  40.1068758  57.0478579
  63.0635872  41.7928758  56.4298579  60.6565872  39.2998758  55.0888579
  59.2645872  39.6708758  56.1208579  60.7535872  38.8078758  56.8338579
  59.2885872  41.9618758  55.3088579  60.5415872  41.2468758  54.2908579
  60.9055872  42.6978758  55.0888579  62.9925872  42.8958758  58.0358579
  63.1255872  45.4768758  58.4128579  62.5035872  51.5198758  58.5488579
  64.9635872  51.3988758  58.7528579  67.0085872  48.8638758  57.1438579
  66.9725872  50.0388758  58.4248579  69.3345872  49.7438758  56.4368579
  69.2595872  50.9638758  57.6898579  69.4495872  51.4758758  56.0128579
  66.2285872  50.3668758  54.8018579  67.8515872  49.6108758  54.7768579
  67.6455872  51.2858758  54.3538579  66.0975872  52.4968758  56.3168579
  67.8225872  52.9348758  56.1508579  67.0585872  52.5678758  57.7388579
  64.8965872  48.3778758  55.5598579  62.5165872  48.4158758  55.5548579
  56.3625872  50.6638758  56.8738579  55.8365872  51.3918758  59.3638579
  56.1345872  53.0858758  61.0118579  57.5435872  54.0868758  60.9608579
  55.9285872  51.0868758  62.6678579  57.5345872  50.4548758  63.1658579
  57.1645872  50.2618758  61.5188579  59.7585872  52.7128758  61.5328579
  59.2475872  51.2278758  60.7478579  59.5385872  51.2978758  62.5188579
  56.8575872  53.5298758  63.4688579  58.6375872  53.6858758  63.1828579
  57.9235872  52.2478758  64.0558579  59.4195872  53.8548758  59.3438579
  59.7595872  53.4128758  57.0148579  55.5805872  53.9318758  51.1798579
  53.7945872  52.4808758  50.8288579  52.6585872  50.5648758  50.7928579
  53.0885872  49.5518758  52.2018579  55.1935872  49.2358758  49.0168579
  53.8625872  50.3198758  48.6388579  53.8425872  48.5808758  48.0738579
  53.9525872  46.6998758  50.1358579  53.6975872  47.4358758  51.7098579
  55.1985872  47.7078758  50.9888579  51.5625872  49.3988758  49.5098579
  51.5345872  47.8708758  50.5078579  52.1915872  47.8518758  48.9038579
  56.0285872  49.0718758  52.2468579  57.9285872  50.3888758  52.3668579
  56.8545872  54.3158758  54.3028579  55.9735872  56.5218758  54.6538579
  51.6225872  57.1998758  55.4708579  51.9245872  55.1448758  57.0558579
  52.7765872  53.3078758  57.4988579  54.3345872  52.8368758  56.6618579
  51.3945872  52.3318758  55.1088579  50.6915872  52.4988758  56.6628579
  50.7155872  50.8038758  55.8588579  54.3975872  50.7738758  55.6638579
  53.2695872  51.3848758  54.4358579  52.8605872  49.8828758  55.1858579
  53.7335872  50.6998758  57.9388579  52.2375872  49.7798758  57.7318579
  52.1755872  51.3358758  58.5638579  53.9825872  53.1378758  53.9998579
  53.8405872  55.0028758  52.4468579  51.8255872  57.6888758  49.5528579
  53.8175872  57.5768758  48.1658579  55.9335872  58.6078758  47.5128579
  56.1745872  60.2258758  47.6418579  56.5165872  59.3488758  44.0888579
  56.3995872  57.9948758  45.1668579  57.3845872  59.4148758  45.7198579
  54.0025872  59.5978758  44.1238579  53.2135872  59.5578758  45.7238579
  53.9325872  58.0808758  45.0618579  56.2675872  61.7898758  45.7338579
  54.5345872  61.7888758  45.7028579  55.4265872  61.2698758  44.2828579
  54.2175872  61.8768758  48.1228579  52.1995872  62.0438758  49.6018579
  48.5695872  61.8938758  48.4068579  47.9265872  61.4868758  46.0728579
  45.4265872  58.7738758  45.1908579  46.7595872  59.7248758  44.5008579
  45.9555872  62.6138758  45.3868579  44.6305872  62.8298758  44.1708579
  46.2345872  62.2548758  43.7358579  44.4925872  59.4028758  43.1868579
  45.4855872  60.7178758  42.5428579  43.7295872  61.0328758  42.8168579
  43.3585872  59.7998758  45.8078579  42.8515872  61.2498758  44.9908579
  43.9285872  61.4338758  46.3808579  44.9265872  58.6098758  47.3908579
  45.8105872  58.8728758  49.7098579  43.8635872  62.4628758  51.6258579
  42.8285872  64.5698758  50.9258579  42.3095872  67.2668758  53.0228579
  42.1455872  66.6128758  51.3928579  41.6115872  69.2428758  51.4938579
  42.2195872  68.5148758  49.9288579  42.7925872  70.1058758  50.4188579
  44.5125872  68.5408758  53.4428579  43.1825872  69.7068758  53.2848579
  44.7645872  69.9698758  52.4328579  45.0845872  68.8158758  50.2218579
  44.4915872  67.2108758  49.8948579  45.3745872  67.5968758  51.3958579
  44.6275872  66.5938758  54.2418579  45.8125872  64.5548758  54.8908579
  43.7575872  63.4028758  57.0668579  45.5705872  64.9318758  57.8698579
  48.2355872  65.0208758  58.2158579  48.8545872  63.5468758  58.9288579
  48.8075872  65.5608758  61.7368579  49.5685872  65.8348758  60.0238579
  49.6505872  64.2768758  60.8808579  45.6825872  65.3218758  60.0318579
  46.8145872  66.5278758  59.4238579  46.7615872  66.2528758  61.1568579
  46.3345872  63.2398758  60.8738579  47.1075872  64.1648758  62.1328579
  48.0895872  62.8558758  61.3558579  48.2545872  61.6598758  58.1388579
  46.4815872  60.0478758  57.1568579  39.7855872  60.9298758  60.4638579
  40.1675872  60.9418758  62.8128579  42.4395872  58.6458758  64.7448579
  41.2035872  59.9248758  64.8738579  44.2735872  59.2468758  65.9808579
  45.2425872  60.4508758  65.0868579  44.7295872  58.9878758  64.2788579
  42.5385872  62.0588758  63.1618579  43.8235872  60.8908758  62.6678579
  44.0865872  62.3758758  63.6768579  43.5595872  61.5798758  66.5168579
  41.9955872  60.8288758  66.5168579  42.3585872  62.3378758  65.4868579
  43.3465872  57.9958758  62.3108579  42.8825872  57.7878758  59.9998579
  40.1115872  62.4818758  54.9348579  40.7365872  64.7378758  55.4348579
  40.4795872  66.7318758  57.0598579  39.0085872  66.8198758  57.9838579
  36.7565872  67.5918758  56.7888579  36.9605872  66.1588758  55.6418579
  36.8665872  67.7118758  55.0478579  40.0995872  69.0558758  56.5058579
  38.4215872  68.9958758  57.1658579  38.7535872  69.4648758  55.4078579
  40.4685872  67.3118758  54.5778579  38.8195872  67.7838758  53.8648579
  39.2155872  66.0838758  54.2188579  37.1725872  65.0128758  58.0438579
  36.8785872  62.6558758  57.6778579  35.3705872  59.5588758  58.0648579
  35.9945872  58.4268758  60.0658579  37.2425872  54.7938758  59.7858579
  36.5125872  55.9768758  60.9278579  39.5505872  54.7588758  59.5248579
  40.6685872  56.0518758  60.1128579  39.3885872  56.4438758  58.8268579
  39.6965872  57.7468758  61.7788579  38.0145872  57.6518758  62.0608579
  38.5395872  58.3068758  60.4868579  39.0505872  54.2278758  61.6648579
  38.0665872  55.3558758  62.6778579  39.8065872  55.5618758  62.4828579
  37.5775872  55.2268758  57.5908579  37.0945872  56.5508758  55.5728579
  32.8525872  63.2468758  56.6138579  31.2445872  63.2578758  58.1298579
  29.6105872  62.1888758  59.3868579  29.1555872  60.6008758  58.9708579
  25.8245872  61.6368758  57.2968579  26.7165872  60.2918758  57.9048579
  27.3325872  61.1388758  56.4518579  27.2405872  61.5088758  60.1938579
  26.0675872  62.5238758  59.3568579  27.4415872  63.3208758  60.0678579
  27.1905872  64.3158758  57.4818579  28.5495872  63.5578758  56.6248579
  28.7705872  64.2198758  58.2878579  29.2705872  59.9348758  56.3248579
  30.8105872  60.0348758  54.5568579  31.8645872  61.1608758  50.8478579
  31.8625872  58.7578758  50.7738579  34.9295872  56.8968758  50.0398579
  33.3025872  56.8818758  49.6328579  31.5215872  56.5868758  51.7238579
  32.3125872  57.7938758  52.8048579  32.1265872  56.1548758  53.2548579
  32.8735872  54.7108758  50.6578579  33.4395872  54.2648758  52.2218579
  34.6585872  54.5918758  50.9608579  34.5705872  56.0028758  53.5178579
  35.0805872  57.6488758  52.8788579  35.8015872  56.0778758  52.2438579
  36.2365872  58.9158758  50.5868579  36.1605872  61.2898758  50.7678579
  32.4225872  67.4828758  48.0378579  31.4485872  67.0788758  45.7098579
  28.7855872  64.7558758  45.0158579  30.0285872  65.6848758  44.2728579
  28.3065872  69.1338758  44.7648579  29.9045872  68.3838758  44.8548579
  28.7885872  68.4058758  46.2958579  27.0445872  67.6688758  43.2358579
  27.7515872  66.0098758  43.0578579  28.7775872  67.4178758  42.7588579
  26.6215872  65.8108758  45.3648579  26.3735872  67.6338758  45.2618579
  27.2985872  66.6798758  46.6318579  28.6375872  64.3598758  47.3538579
  29.8155872  64.4408758  49.5228579  27.4245872  66.3978758  52.2218579
  25.6215872  67.8538758  51.7618579  25.2315872  71.0768758  53.7028579
  24.3425872  69.9278758  52.5928579  23.8285872  72.7598758  52.7128579
  23.1565872  71.6338758  51.5548579  24.1105872  73.1068758  51.0538579
  27.4685872  71.6708758  52.0948579  26.4235872  72.9828758  52.5838579
  26.7705872  72.6888758  50.7918579  24.3515872  70.1418758  50.1428579
  26.0935872  69.8258758  50.2668579  25.4015872  71.3658758  49.4748579
  27.3825872  70.7008758  54.5888579  29.2245872  69.1868758  54.9938579
  66.6995872  74.5778758  45.1928579  64.6365872  74.1918758  44.6328579
  65.4995872  72.9378758  46.8588579  66.0775872  74.8228758  47.7718579
  65.3535872  76.7258758  44.1008579  63.8885872  76.6288758  45.7088579
  63.8715872  73.8368758  48.8018579  63.5325872  75.7108758  47.7648579
  65.6965872  78.5378758  46.0218579  65.7725872  77.0178758  47.5758579
  62.4265872  74.4018758  45.6408579  61.4905872  74.0508758  47.5648579
  67.9025872  77.4548758  44.8058579  68.0105872  75.9038758  46.3388579
  68.1925872  77.9968758  46.8988579  62.2435872  71.5818758  47.6778579
  63.2695872  71.7698758  45.6598579  65.4065872  74.8528758  45.5308579
  65.1735872  74.2618758  46.9158579  65.1875872  76.3538758  45.3958579
  63.7985872  74.3918758  47.5568579  66.0585872  77.2458758  46.2668579
  62.6085872  73.7768758  46.8338579  67.5505872  77.1418758  46.0698579
  62.7485872  72.2888758  46.6378579  82.0855872  83.3498758  51.3188579
  72.0475872  19.0578758  77.8738579  63.6315872  44.4178758  53.1858579
  66.1865872  97.7088758  29.5388579  34.1885872  96.7028758  20.1438579
 104.5935872  34.4498758  82.4478579  75.8725872  43.6368758  33.8468579
  65.1525872  51.5148758  62.7088579  69.6625872  47.1278758  73.9628579
  41.7965872  58.0188758  47.6138579  50.8625872  67.9608758  44.7428579
  46.7695872  68.4728758  66.2038579  49.4715872  81.5438758  82.8698579
  27.2315872  23.5858758  31.6608579  93.0045872  76.4258758  70.2928579
  66.5755872  23.3448758  71.3308579  35.6895872  21.9108758  58.1658579
  62.2905872  44.9738758  24.0748579  68.5755872  72.2838758  28.3578579
  82.2615872  86.0798758  39.1108579  35.7835872  53.6648758  39.4388579
  53.0385872  67.8498758  64.8518579  53.1265872  73.6348758  27.7098579
  83.8565872  44.5428758  39.3018579  53.8545872  34.0098758  52.2008579
  76.9175872  54.2148758  54.8768579  83.5945872  20.0018758  30.3108579
  43.1395872  31.0318758  74.8228579  46.6685872  50.9328758  32.7498579
  50.4995872  60.4668758  60.2988579  52.1005872  46.0298758  69.7688579
 107.7975872  94.2618758  47.1718579  73.8175872  46.7068758  19.1228579
  68.8135872  62.5618758  44.1148579  39.1255872  74.4088758  57.4738579
  56.1135872  68.0378758  81.9278579  26.1125872  87.9568758  85.1158579
  50.8635872  42.6548758  50.6978579  90.0215872  27.9718758  85.2798579
  71.8395872  29.0538758  53.8598579  63.2785872  71.9798758  70.1518579
  60.5995872  61.4678758  62.8248579  22.7385872  55.9468758  33.1878579
  18.6705872  86.8658758  48.6198579  79.9655872  46.6838758  48.0328579
  50.3625872  51.1738758  60.6588579  85.3435872  61.9798758  64.8448579
 122.2858810 113.9085730  97.5303890 122.2052860 112.9940340  97.2595600
 121.8723230 114.4052800  96.8243600 112.8434630 110.9586450  94.0731310
 111.9551330 111.3002420  93.9711190 113.1275820 110.7586770  93.1812140
 110.8067640 113.5592100  99.9571010 111.3783750 112.7914300  99.9574650
 110.8069180 113.8580860  99.0477620 112.0492510 108.9676460 101.7439940
 111.8695350 108.0702210 102.0242700 111.6472590 109.5148330 102.4186890
 120.8891010 111.1692320  99.6452250 121.2655830 110.2964200  99.5325920
 120.7910520 111.5051020  98.7542690 115.0196020 109.5417950  95.1069690
 115.1262770 110.4421680  95.4138450 114.1088380 109.4935920  94.8164340
 112.6679180 111.4636960 100.3522280 113.3489290 111.7275330 100.9709680
 112.3527230 110.6237830 100.6860290 116.8603750 112.5104320  99.4394870
 117.3681970 113.0085290 100.0799890 117.3916990 111.7339520  99.2634230
 124.9076610 110.6043140  99.3508130 124.2032180 110.8928030  99.9311240
 125.2688770 111.4143250  98.9907690 114.8255180 108.8612840 101.7128740
 115.1671990 109.7054890 101.4182610 113.8870990 109.0096580 101.8294080
 118.5083070 106.3495110  98.0373330 118.8158050 105.7942000  97.3208830
 117.5783770 106.4839570  97.8546320 120.8832910 110.6860940  91.7700610
 119.9436580 110.8474900  91.8553070 121.2016170 111.4046620  91.2236600
 116.5020470 114.9408680  97.5553180 116.0977470 114.2285930  97.0599080
 116.5883590 114.5961920  98.4441220 115.2149090 111.7151890 101.3352220
 115.7663680 111.8247230 100.5605470 115.7292600 112.0889490 102.0507450
 113.2025100 113.8353660  95.0559830 113.0822700 114.5615750  94.4441100
 112.8925990 113.0656570  94.5787740 115.6688760 107.1788730  98.4383500
 115.2256910 107.9598270  98.1068020 116.2273750 107.5018620  99.1454440
 118.7847580 106.7999430  93.3189330 118.1601760 106.7959300  94.0442640
 118.6977700 105.9330390  92.9225300 117.7064660 107.7236060 100.2973100
 118.0036990 108.6298890 100.2165120 118.2550220 107.2354840  99.6832670
 115.4602980 112.3022300  96.1664750 115.2343900 112.0859470  97.0711370
 114.6795510 112.7350760  95.8210720 122.6900740 112.3085670  94.7655400
 122.0909630 113.0321470  94.5819020 123.2380350 112.2462450  93.9831850
 121.2965610 110.9449210  96.7958680 121.6895180 111.2621410  95.9827370
 121.6582460 110.0661090  96.9103200 110.3329780 107.5350010  99.0188880
 110.0442830 108.1052870  99.7313860 111.0775540 107.0554460  99.3820110
 110.5200010 111.4770130  90.2291600 110.4374680 112.4200890  90.3706590
 110.1683070 111.3345040  89.3503950 121.8820750 113.5354960 100.8909460
 121.1501870 114.0441770 101.2399560 121.4845090 112.7184940 100.5898240
 118.3198140 110.2109160  99.2961950 118.3234200 109.7699110  98.4466490
 119.2149260 110.5326490  99.4033770 114.1700520 110.0935650  98.2556160
 113.8300570 110.5710880  99.0123210 113.4077840 109.6400770  97.8957260
 118.3818290 111.2121240  92.2868710 118.5031110 111.1707720  93.2354530
 117.9966800 112.0745390  92.1315440 122.3446660 108.9888640 100.3032400
 122.3619400 109.4397290 101.1474250 122.0962240 108.0894280 100.5165840
 117.3939790 113.5222380  91.6852010 116.8256690 113.0740630  91.0587920
 118.1028790 113.8815160  91.1517160 118.6206110 114.2710940 101.0427360
 118.9876240 113.7969510 101.7888700 118.4311170 115.1452510 101.3835700
 111.4846600 109.0154630  97.1720830 111.1993520 108.6510300  98.0099450
 111.4225460 108.2835090  96.5583970 121.1585190 107.9083890  93.8934200
 120.3449800 107.4097060  93.8179510 120.9647140 108.7482140  93.4770550
 123.8733580 112.2803540  92.1896360 124.7613200 112.5920770  92.0147700
 123.8438670 111.4075790  91.7976940 110.9777260 114.1513580  91.1317530
 111.8472110 114.4338380  91.4153450 110.4867580 114.9649450  91.0166340
 114.0423850 105.8824440  95.7248330 113.9138480 105.8742340  96.6733250
 113.2185870 106.2207530  95.3739340 117.8702620 111.3680760  95.1601920
 117.1618770 111.8367100  95.6015530 118.1547100 110.7102770  95.7947110
 121.9018050 108.0931420  96.5997710 121.7785830 108.1117550  95.6507220
 122.8502610 108.1410360  96.7196110 116.0737640 109.6765840  92.5352630
 116.9228170 110.1135990  92.4692820 115.7068910 109.9886100  93.3624690
 124.9947420 114.2478600  97.4484200 124.0537560 114.2628830  97.6231890
 125.3091490 113.4614560  97.8944500 113.6675820 113.3623270  91.6921050
 113.7479410 112.4150780  91.8038450 114.5595570 113.6930150  91.7981710
 115.9006990 111.9996560  89.9288960 115.6996050 111.1363920  90.2902300
 115.7299040 111.9129920  88.9910560 123.3795300 106.8104790  92.4575840
 123.6597590 105.9672690  92.8135260 122.6061030 107.0427900  92.9714590
 114.6989790 109.0997180  89.9166840 115.0015690 109.1064610  89.0085990
 115.4384380 108.7495040  90.4134500 117.9174720 108.0431800  90.9023040
 117.5696720 107.3655790  90.3225490 118.1187490 107.5821310  91.7166430
 111.2580360 114.5719450  97.2987410 110.6029200 114.3031090  96.6547110
 112.0958310 114.4623930  96.8489390 124.2070800 109.3660740  91.5205900
 124.6255680 109.1791720  90.6802560 123.9006860 108.5139790  91.8308830
 112.2956290 114.9572020 101.8390750 112.6629330 114.8699420 102.7186770
 111.7267110 114.1938570 101.7397610 110.4718440 111.7818380  93.2412740
 109.5682520 112.0448580  93.0664400 110.9559060 112.0529550  92.4612700
 113.0145650 110.8383920  91.1507120 113.7237350 110.4167140  90.6654400
 112.2985590 110.9059150  90.5190470 112.6619810 106.8923250  90.1909770
 113.3847940 107.4332190  90.5090990 112.9344330 106.6186670  89.3151310
 112.3512000 106.1429440 100.0932390 112.9988190 105.5926820  99.6527550
 112.7713840 106.3972590 100.9148200 120.7426240 106.6269030 101.2631620
 119.9598030 107.1014530 101.5428380 120.4489170 105.7223860 101.1544800
 112.0866650 106.9316510  93.7845340 112.8446010 107.0445390  93.2109370
 111.6243820 107.7685710  93.7388770 118.6280460 109.0455780  96.7747650
 117.8154970 108.6712670  96.4343530 119.1322100 108.2900860  97.0768840
 123.1305440 105.7098230  98.0130720 123.7334810 106.2818440  98.4879240
 122.3898430 106.2737670  97.7904620 114.4591800 107.4580560  92.3247310
 114.9884560 106.6710360  92.1955260 115.0920120 108.1371750  92.5582840
 116.6529640 107.1955700  95.3792700 116.0232380 106.4943010  95.5462830
 116.1134780 107.9559830  95.1625860 122.2858810 113.9085730  78.7560400
 122.2052860 112.9940340  78.4852110 121.8723230 114.4052800  78.0500110
 112.8434630 110.9586450  75.2987820 111.9551330 111.3002420  75.1967700
 113.1275820 110.7586770  74.4068650 110.8067640 113.5592100  81.1827520
 111.3783750 112.7914300  81.1831160 110.8069180 113.8580860  80.2734130
 112.0492510 108.9676460  82.9696450 111.8695350 108.0702210  83.2499210
 111.6472590 109.5148330  83.6443400 120.8891010 111.1692320  80.8708760
 121.2655830 110.2964200  80.7582430 120.7910520 111.5051020  79.9799200
 115.0196020 109.5417950  76.3326200 115.1262770 110.4421680  76.6394960
 114.1088380 109.4935920  76.0420850 112.6679180 111.4636960  81.5778790
 113.3489290 111.7275330  82.1966190 112.3527230 110.6237830  81.9116800
 116.8603750 112.5104320  80.6651380 117.3681970 113.0085290  81.3056400
 117.3916990 111.7339520  80.4890740 115.1439850 107.1502880  84.9314800
 115.1458290 107.6675270  84.1260700 114.3144160 106.6733060  84.9084730
 124.9076610 110.6043140  80.5764640 124.2032180 110.8928030  81.1567750
 125.2688770 111.4143250  80.2164200 114.8255180 108.8612840  82.9385250
 115.1671990 109.7054890  82.6439120 113.8870990 109.0096580  83.0550590
 118.5083070 106.3495110  79.2629840 118.8158050 105.7942000  78.5465340
 117.5783770 106.4839570  79.0802830 120.8832910 110.6860940  72.9957120
 119.9436580 110.8474900  73.0809580 121.2016170 111.4046620  72.4493110
 124.3687680 112.1548780  83.9191020 123.9558860 112.9802490  84.1731010
 123.6363630 111.5693820  83.7267380 116.5020470 114.9408680  78.7809690
 116.0977470 114.2285930  78.2855590 116.5883590 114.5961920  79.6697730
 115.2149090 111.7151890  82.5608730 115.7663680 111.8247230  81.7861980
 115.7292600 112.0889490  83.2763960 113.2025100 113.8353660  76.2816340
 113.0822700 114.5615750  75.6697610 112.8925990 113.0656570  75.8044250
 115.6688760 107.1788730  79.6640010 115.2256910 107.9598270  79.3324530
 116.2273750 107.5018620  80.3710950 119.9558570 110.0457250  85.2675330
 119.4937940 110.2540270  86.0795270 119.5536680 109.2316600  84.9646000
 124.9563080 111.2666200  86.3971990 124.1056670 110.9671950  86.7181060
 124.7964870 111.5108210  85.4855810 122.0512790 112.7667950  88.4970780
 122.3766200 111.9331700  88.1573010 122.8393120 113.2896470  88.6449110
 118.7847580 106.7999430  74.5445840 118.1601760 106.7959300  75.2699150
 118.6977700 105.9330390  74.1481810 117.7064660 107.7236060  81.5229610
 118.0036990 108.6298890  81.4421630 118.2550220 107.2354840  80.9089180
 115.4602980 112.3022300  77.3921260 115.2343900 112.0859470  78.2967880
 114.6795510 112.7350760  77.0467230 122.6900740 112.3085670  75.9911910
 122.0909630 113.0321470  75.8075530 123.2380350 112.2462450  75.2088360
 117.9002190 113.2007880  88.0581530 117.8045790 112.2602610  87.9081930
 118.7434170 113.4222950  87.6629600 121.2965610 110.9449210  78.0215190
 121.6895180 111.2621410  77.2083880 121.6582460 110.0661090  78.1359710
 113.0312730 109.6121550  86.2115310 112.6376120 110.4596760  86.4188090
 112.3431130 108.9747920  86.4023950 119.6057780 109.6956520  89.2812050
 118.9156100 109.5028720  89.9158140 120.3490080 109.9791160  89.8136350
 110.3329780 107.5350010  80.2445390 110.0442830 108.1052870  80.9570370
 111.0775540 107.0554460  80.6076620 110.5200010 111.4770130  71.4548110
 110.4374680 112.4200890  71.5963100 110.1683070 111.3345040  70.5760460
 121.8820750 113.5354960  82.1165970 121.1501870 114.0441770  82.4656070
 121.4845090 112.7184940  81.8154750 118.3198140 110.2109160  80.5218460
 118.3234200 109.7699110  79.6723000 119.2149260 110.5326490  80.6290280
 114.1700520 110.0935650  79.4812670 113.8300570 110.5710880  80.2379720
 113.4077840 109.6400770  79.1213770 118.3818290 111.2121240  73.5125220
 118.5031110 111.1707720  74.4611040 117.9966800 112.0745390  73.3571950
 122.3446660 108.9888640  81.5288910 122.3619400 109.4397290  82.3730760
 122.0962240 108.0894280  81.7422350 117.3939790 113.5222380  72.9108520
 116.8256690 113.0740630  72.2844430 118.1028790 113.8815160  72.3773670
 118.6206110 114.2710940  82.2683870 118.9876240 113.7969510  83.0145210
 118.4311170 115.1452510  82.6092210 111.4846600 109.0154630  78.3977340
 111.1993520 108.6510300  79.2355960 111.4225460 108.2835090  77.7840480
 116.4105480 113.3119580  84.5868080 116.1062550 114.1911560  84.8118440
 117.3651940 113.3719370  84.6225520 121.1585190 107.9083890  75.1190710
 120.3449800 107.4097060  75.0436020 120.9647140 108.7482140  74.7027060
 123.8733580 112.2803540  73.4152870 124.7613200 112.5920770  73.2404210
 123.8438670 111.4075790  73.0233450 112.4669210 114.1522320  85.7339440
 112.1084150 114.8176170  86.3212780 112.1723770 113.3205870  86.1052060
 115.6682330 114.6106560  88.6178990 115.3682470 114.7563740  87.7206810
 116.4393570 114.0511850  88.5252380 110.9777260 114.1513580  72.3574040
 111.8472110 114.4338380  72.6409960 110.4867580 114.9649450  72.2422850
 114.0423850 105.8824440  76.9504840 113.9138480 105.8742340  77.8989760
 113.2185870 106.2207530  76.5995850 111.0417780 107.6415560  86.4111540
 110.3276300 107.8412480  87.0164150 111.4612820 106.8655130  86.7826340
 122.5356560 110.1337870  84.1612990 122.9037380 109.3133080  84.4892560
 121.6754760 110.1939760  84.5768640 117.8702620 111.3680760  76.3858430
 117.1618770 111.8367100  76.8272040 118.1547100 110.7102770  77.0203620
 119.4958550 112.7877460  84.3850960 119.9943800 113.2623280  85.0502810
 119.6381500 111.8640980  84.5920990 121.9018050 108.0931420  77.8254220
 121.7785830 108.1117550  76.8763730 122.8502610 108.1410360  77.9452620
 116.0737640 109.6765840  73.7609140 116.9228170 110.1135990  73.6949330
 115.7068910 109.9886100  74.5881200 124.9947420 114.2478600  78.6740710
 124.0537560 114.2628830  78.8488400 125.3091490 113.4614560  79.1201010
 113.6675820 113.3623270  72.9177560 113.7479410 112.4150780  73.0294960
 114.5595570 113.6930150  73.0238220 113.2269700 113.3267780  89.0483800
 113.2675040 113.0281650  89.9569030 114.0815200 113.7275390  88.8891320
 115.1675510 111.9059880  87.0158290 114.6371970 111.4150830  86.3881630
 115.8363580 112.3344080  86.4816220 124.5375740 113.7125500  88.7838630
 125.1196510 112.9577820  88.6959110 124.7137510 114.2432940  88.0070110
 115.6547810 108.8722250  87.0955580 115.5604680 108.2543000  86.3706450
 115.0745200 109.5988540  86.8685490 118.4209250 107.4295490  84.1282970
 117.9726550 107.4519750  83.2828520 117.7874450 107.0314510  84.7253270
 121.1632700 114.0566000  86.1333250 121.2828910 113.4607140  86.8728090
 122.0226700 114.0935690  85.7134550 115.9006990 111.9996560  71.1545470
 115.6996050 111.1363920  71.5158810 115.7299040 111.9129920  70.2167070
 117.9301470 110.5987350  87.3909070 118.5201160 110.2903200  88.0786890
 117.1121710 110.1267100  87.5468970 122.7494900 110.2153160  87.6242090
 122.0610420 109.5534700  87.5592080 123.4700920 109.7691430  88.0690550
 123.3795300 106.8104790  73.6832350 123.6597590 105.9672690  74.0391770
 122.6061030 107.0427900  74.1971100 114.6989790 109.0997180  71.1423350
 115.0015690 109.1064610  70.2342500 115.4384380 108.7495040  71.6391010
 117.9174720 108.0431800  72.1279550 117.5696720 107.3655790  71.5482000
 118.1187490 107.5821310  72.9422940 111.2580360 114.5719450  78.5243920
 110.6029200 114.3031090  77.8803620 112.0958310 114.4623930  78.0745900
 124.2070800 109.3660740  72.7462410 124.6255680 109.1791720  71.9059070
 123.9006860 108.5139790  73.0565340 112.2956290 114.9572020  83.0647260
 112.6629330 114.8699420  83.9443280 111.7267110 114.1938570  82.9654120
 111.8472290 111.8681110  86.9705680 110.9528340 111.8347870  87.3099390
 112.3869840 112.0667900  87.7356930 110.4718440 111.7818380  74.4669250
 109.5682520 112.0448580  74.2920910 110.9559060 112.0529550  73.6869210
 113.0145650 110.8383920  72.3763630 113.7237350 110.4167140  71.8910910
 112.2985590 110.9059150  71.7446980 112.6619810 106.8923250  71.4166280
 113.3847940 107.4332190  71.7347500 112.9344330 106.6186670  70.5407820
 112.3512000 106.1429440  81.3188900 112.9988190 105.5926820  80.8784060
 112.7713840 106.3972590  82.1404710 112.1044000 106.2985110  84.0614220
 111.7558820 106.7548930  84.8272400 111.7731700 105.4042240  84.1436650
 119.6168820 107.4896990  87.5833640 119.5557710 108.0818820  88.3329050
 120.5569200 107.3822950  87.4383900 122.2543380 107.1467050  87.2225930
 122.8683790 107.4646340  86.5607010 122.7992940 106.6615640  87.8421790
 112.7764640 105.8261310  87.3364990 113.3247630 105.6449360  86.5731100
 112.8419950 105.0355420  87.8721300 122.9951420 105.7099190  83.5495220
 122.1211260 106.0434300  83.3468150 122.8862170 105.2372370  84.3747090
 123.9023400 107.9170060  84.9336940 123.5736760 107.1021820  84.5538670
 124.8505700 107.8739870  84.8102630 120.7426240 106.6269030  82.4888130
 119.9598030 107.1014530  82.7684890 120.4489170 105.7223860  82.3801310
 112.0866650 106.9316510  75.0101850 112.8446010 107.0445390  74.4365880
 111.6243820 107.7685710  74.9645280 118.6280460 109.0455780  78.0004160
 117.8154970 108.6712670  77.6600040 119.1322100 108.2900860  78.3025350
 123.1305440 105.7098230  79.2387230 123.7334810 106.2818440  79.7135750
 122.3898430 106.2737670  79.0161130 114.4591800 107.4580560  73.5503820
 114.9884560 106.6710360  73.4211770 115.0920120 108.1371750  73.7839350
 116.6529640 107.1955700  76.6049210 116.0232380 106.4943010  76.7719340
 116.1134780 107.9559830  76.3882370 116.7785200 106.4739680  89.0401700
 116.4969470 106.9773280  88.2762520 117.1604900 105.6761430  88.6743830
 123.3800660 105.8893260  89.6182170 123.2666110 106.2087870  90.5133690
 124.1970400 106.2905770  89.3219450 122.2858810 113.9085730  59.9816910
 122.2052860 112.9940340  59.7108620 121.8723230 114.4052800  59.2756620
 112.8434630 110.9586450  56.5244330 111.9551330 111.3002420  56.4224210
 113.1275820 110.7586770  55.6325160 110.8067640 113.5592100  62.4084030
 111.3783750 112.7914300  62.4087670 110.8069180 113.8580860  61.4990640
 112.0492510 108.9676460  64.1952960 111.8695350 108.0702210  64.4755720
 111.6472590 109.5148330  64.8699910 120.8891010 111.1692320  62.0965270
 121.2655830 110.2964200  61.9838940 120.7910520 111.5051020  61.2055710
 115.0196020 109.5417950  57.5582710 115.1262770 110.4421680  57.8651470
 114.1088380 109.4935920  57.2677360 112.6679180 111.4636960  62.8035300
 113.3489290 111.7275330  63.4222700 112.3527230 110.6237830  63.1373310
 116.8603750 112.5104320  61.8907890 117.3681970 113.0085290  62.5312910
 117.3916990 111.7339520  61.7147250 115.1439850 107.1502880  66.1571310
 115.1458290 107.6675270  65.3517210 114.3144160 106.6733060  66.1341240
 124.9076610 110.6043140  61.8021150 124.2032180 110.8928030  62.3824260
 125.2688770 111.4143250  61.4420710 114.8255180 108.8612840  64.1641760
 115.1671990 109.7054890  63.8695630 113.8870990 109.0096580  64.2807100
 118.5083070 106.3495110  60.4886350 118.8158050 105.7942000  59.7721850
 117.5783770 106.4839570  60.3059340 120.8832910 110.6860940  54.2213630
 119.9436580 110.8474900  54.3066090 121.2016170 111.4046620  53.6749620
 124.3687680 112.1548780  65.1447530 123.9558860 112.9802490  65.3987520
 123.6363630 111.5693820  64.9523890 116.5020470 114.9408680  60.0066200
 116.0977470 114.2285930  59.5112100 116.5883590 114.5961920  60.8954240
 115.2149090 111.7151890  63.7865240 115.7663680 111.8247230  63.0118490
 115.7292600 112.0889490  64.5020470 113.2025100 113.8353660  57.5072850
 113.0822700 114.5615750  56.8954120 112.8925990 113.0656570  57.0300760
 115.6688760 107.1788730  60.8896520 115.2256910 107.9598270  60.5581040
 116.2273750 107.5018620  61.5967460 119.9558570 110.0457250  66.4931840
 119.4937940 110.2540270  67.3051780 119.5536680 109.2316600  66.1902510
 124.9563080 111.2666200  67.6228500 124.1056670 110.9671950  67.9437570
 124.7964870 111.5108210  66.7112320 122.0512790 112.7667950  69.7227290
 122.3766200 111.9331700  69.3829520 122.8393120 113.2896470  69.8705620
 118.7847580 106.7999430  55.7702350 118.1601760 106.7959300  56.4955660
 118.6977700 105.9330390  55.3738320 117.7064660 107.7236060  62.7486120
 118.0036990 108.6298890  62.6678140 118.2550220 107.2354840  62.1345690
 115.4602980 112.3022300  58.6177770 115.2343900 112.0859470  59.5224390
 114.6795510 112.7350760  58.2723740 122.6900740 112.3085670  57.2168420
 122.0909630 113.0321470  57.0332040 123.2380350 112.2462450  56.4344870
 117.9002190 113.2007880  69.2838040 117.8045790 112.2602610  69.1338440
 118.7434170 113.4222950  68.8886110 121.2965610 110.9449210  59.2471700
 121.6895180 111.2621410  58.4340390 121.6582460 110.0661090  59.3616220
 113.0312730 109.6121550  67.4371820 112.6376120 110.4596760  67.6444600
 112.3431130 108.9747920  67.6280460 119.6057780 109.6956520  70.5068560
 118.9156100 109.5028720  71.1414650 120.3490080 109.9791160  71.0392860
 110.3329780 107.5350010  61.4701900 110.0442830 108.1052870  62.1826880
 111.0775540 107.0554460  61.8333130 110.5200010 111.4770130  52.6804620
 110.4374680 112.4200890  52.8219610 110.1683070 111.3345040  51.8016970
 121.8820750 113.5354960  63.3422480 121.1501870 114.0441770  63.6912580
 121.4845090 112.7184940  63.0411260 118.3198140 110.2109160  61.7474970
 118.3234200 109.7699110  60.8979510 119.2149260 110.5326490  61.8546790
 114.1700520 110.0935650  60.7069180 113.8300570 110.5710880  61.4636230
 113.4077840 109.6400770  60.3470280 118.3818290 111.2121240  54.7381730
 118.5031110 111.1707720  55.6867550 117.9966800 112.0745390  54.5828460
 122.3446660 108.9888640  62.7545420 122.3619400 109.4397290  63.5987270
 122.0962240 108.0894280  62.9678860 117.3939790 113.5222380  54.1365030
 116.8256690 113.0740630  53.5100940 118.1028790 113.8815160  53.6030180
 118.6206110 114.2710940  63.4940380 118.9876240 113.7969510  64.2401720
 118.4311170 115.1452510  63.8348720 111.4846600 109.0154630  59.6233850
 111.1993520 108.6510300  60.4612470 111.4225460 108.2835090  59.0096990
 116.4105480 113.3119580  65.8124590 116.1062550 114.1911560  66.0374950
 117.3651940 113.3719370  65.8482030 121.1585190 107.9083890  56.3447220
 120.3449800 107.4097060  56.2692530 120.9647140 108.7482140  55.9283570
 123.8733580 112.2803540  54.6409380 124.7613200 112.5920770  54.4660720
 123.8438670 111.4075790  54.2489960 112.4669210 114.1522320  66.9595950
 112.1084150 114.8176170  67.5469290 112.1723770 113.3205870  67.3308570
 115.6682330 114.6106560  69.8435500 115.3682470 114.7563740  68.9463320
 116.4393570 114.0511850  69.7508890 110.9777260 114.1513580  53.5830550
 111.8472110 114.4338380  53.8666470 110.4867580 114.9649450  53.4679360
 114.0423850 105.8824440  58.1761350 113.9138480 105.8742340  59.1246270
 113.2185870 106.2207530  57.8252360 111.0417780 107.6415560  67.6368050
 110.3276300 107.8412480  68.2420660 111.4612820 106.8655130  68.0082850
 122.5356560 110.1337870  65.3869500 122.9037380 109.3133080  65.7149070
 121.6754760 110.1939760  65.8025150 117.8702620 111.3680760  57.6114940
 117.1618770 111.8367100  58.0528550 118.1547100 110.7102770  58.2460130
 119.4958550 112.7877460  65.6107470 119.9943800 113.2623280  66.2759320
 119.6381500 111.8640980  65.8177500 121.9018050 108.0931420  59.0510730
 121.7785830 108.1117550  58.1020240 122.8502610 108.1410360  59.1709130
 116.0737640 109.6765840  54.9865650 116.9228170 110.1135990  54.9205840
 115.7068910 109.9886100  55.8137710 124.9947420 114.2478600  59.8997220
 124.0537560 114.2628830  60.0744910 125.3091490 113.4614560  60.3457520
 113.6675820 113.3623270  54.1434070 113.7479410 112.4150780  54.2551470
 114.5595570 113.6930150  54.2494730 113.2269700 113.3267780  70.2740310
 113.2675040 113.0281650  71.1825540 114.0815200 113.7275390  70.1147830
 115.1675510 111.9059880  68.2414800 114.6371970 111.4150830  67.6138140
 115.8363580 112.3344080  67.7072730 124.5375740 113.7125500  70.0095140
 125.1196510 112.9577820  69.9215620 124.7137510 114.2432940  69.2326620
 115.6547810 108.8722250  68.3212090 115.5604680 108.2543000  67.5962960
 115.0745200 109.5988540  68.0942000 118.4209250 107.4295490  65.3539480
 117.9726550 107.4519750  64.5085030 117.7874450 107.0314510  65.9509780
 121.1632700 114.0566000  67.3589760 121.2828910 113.4607140  68.0984600
 122.0226700 114.0935690  66.9391060 115.9006990 111.9996560  52.3801980
 115.6996050 111.1363920  52.7415320 115.7299040 111.9129920  51.4423580
 117.9301470 110.5987350  68.6165580 118.5201160 110.2903200  69.3043400
 117.1121710 110.1267100  68.7725480 122.7494900 110.2153160  68.8498600
 122.0610420 109.5534700  68.7848590 123.4700920 109.7691430  69.2947060
 123.3795300 106.8104790  54.9088860 123.6597590 105.9672690  55.2648280
 122.6061030 107.0427900  55.4227610 114.6989790 109.0997180  52.3679860
 115.0015690 109.1064610  51.4599010 115.4384380 108.7495040  52.8647520
 117.9174720 108.0431800  53.3536060 117.5696720 107.3655790  52.7738510
 118.1187490 107.5821310  54.1679450 111.2580360 114.5719450  59.7500430
 110.6029200 114.3031090  59.1060130 112.0958310 114.4623930  59.3002410
 124.2070800 109.3660740  53.9718920 124.6255680 109.1791720  53.1315580
 123.9006860 108.5139790  54.2821850 112.2956290 114.9572020  64.2903770
 112.6629330 114.8699420  65.1699790 111.7267110 114.1938570  64.1910630
 111.8472290 111.8681110  68.1962190 110.9528340 111.8347870  68.5355900
 112.3869840 112.0667900  68.9613440 110.4718440 111.7818380  55.6925760
 109.5682520 112.0448580  55.5177420 110.9559060 112.0529550  54.9125720
 113.0145650 110.8383920  53.6020140 113.7237350 110.4167140  53.1167420
 112.2985590 110.9059150  52.9703490 112.6619810 106.8923250  52.6422790
 113.3847940 107.4332190  52.9604010 112.9344330 106.6186670  51.7664330
 112.3512000 106.1429440  62.5445410 112.9988190 105.5926820  62.1040570
 112.7713840 106.3972590  63.3661220 112.1044000 106.2985110  65.2870730
 111.7558820 106.7548930  66.0528910 111.7731700 105.4042240  65.3693160
 119.6168820 107.4896990  68.8090150 119.5557710 108.0818820  69.5585560
 120.5569200 107.3822950  68.6640410 122.2543380 107.1467050  68.4482440
 122.8683790 107.4646340  67.7863520 122.7992940 106.6615640  69.0678300
 112.7764640 105.8261310  68.5621500 113.3247630 105.6449360  67.7987610
 112.8419950 105.0355420  69.0977810 122.9951420 105.7099190  64.7751730
 122.1211260 106.0434300  64.5724660 122.8862170 105.2372370  65.6003600
 123.9023400 107.9170060  66.1593450 123.5736760 107.1021820  65.7795180
 124.8505700 107.8739870  66.0359140 120.7426240 106.6269030  63.7144640
 119.9598030 107.1014530  63.9941400 120.4489170 105.7223860  63.6057820
 112.0866650 106.9316510  56.2358360 112.8446010 107.0445390  55.6622390
 111.6243820 107.7685710  56.1901790 118.6280460 109.0455780  59.2260670
 117.8154970 108.6712670  58.8856550 119.1322100 108.2900860  59.5281860
 123.1305440 105.7098230  60.4643740 123.7334810 106.2818440  60.9392260
 122.3898430 106.2737670  60.2417640 114.4591800 107.4580560  54.7760330
 114.9884560 106.6710360  54.6468280 115.0920120 108.1371750  55.0095860
 116.6529640 107.1955700  57.8305720 116.0232380 106.4943010  57.9975850
 116.1134780 107.9559830  57.6138880 116.7785200 106.4739680  70.2658210
 116.4969470 106.9773280  69.5019030 117.1604900 105.6761430  69.9000340
 123.3800660 105.8893260  70.8438680 123.2666110 106.2087870  71.7390200
 124.1970400 106.2905770  70.5475960 122.2858810 113.9085730  41.2073420
 122.2052860 112.9940340  40.9365130 121.8723230 114.4052800  40.5013130
 112.8434630 110.9586450  37.7500840 111.9551330 111.3002420  37.6480720
 113.1275820 110.7586770  36.8581670 110.8067640 113.5592100  43.6340540
 111.3783750 112.7914300  43.6344180 110.8069180 113.8580860  42.7247150
 112.0492510 108.9676460  45.4209470 111.8695350 108.0702210  45.7012230
 111.6472590 109.5148330  46.0956420 120.8891010 111.1692320  43.3221780
 121.2655830 110.2964200  43.2095450 120.7910520 111.5051020  42.4312220
 115.0196020 109.5417950  38.7839220 115.1262770 110.4421680  39.0907980
 114.1088380 109.4935920  38.4933870 112.6679180 111.4636960  44.0291810
 113.3489290 111.7275330  44.6479210 112.3527230 110.6237830  44.3629820
 116.8603750 112.5104320  43.1164400 117.3681970 113.0085290  43.7569420
 117.3916990 111.7339520  42.9403760 115.1439850 107.1502880  47.3827820
 115.1458290 107.6675270  46.5773720 114.3144160 106.6733060  47.3597750
 124.9076610 110.6043140  43.0277660 124.2032180 110.8928030  43.6080770
 125.2688770 111.4143250  42.6677220 114.8255180 108.8612840  45.3898270
 115.1671990 109.7054890  45.0952140 113.8870990 109.0096580  45.5063610
 118.5083070 106.3495110  41.7142860 118.8158050 105.7942000  40.9978360
 117.5783770 106.4839570  41.5315850 120.8832910 110.6860940  35.4470140
 119.9436580 110.8474900  35.5322600 121.2016170 111.4046620  34.9006130
 124.3687680 112.1548780  46.3704040 123.9558860 112.9802490  46.6244030
 123.6363630 111.5693820  46.1780400 116.5020470 114.9408680  41.2322710
 116.0977470 114.2285930  40.7368610 116.5883590 114.5961920  42.1210750
 115.2149090 111.7151890  45.0121750 115.7663680 111.8247230  44.2375000
 115.7292600 112.0889490  45.7276980 113.2025100 113.8353660  38.7329360
 113.0822700 114.5615750  38.1210630 112.8925990 113.0656570  38.2557270
 115.6688760 107.1788730  42.1153030 115.2256910 107.9598270  41.7837550
 116.2273750 107.5018620  42.8223970 119.9558570 110.0457250  47.7188350
 119.4937940 110.2540270  48.5308290 119.5536680 109.2316600  47.4159020
 124.9563080 111.2666200  48.8485010 124.1056670 110.9671950  49.1694080
 124.7964870 111.5108210  47.9368830 122.0512790 112.7667950  50.9483800
 122.3766200 111.9331700  50.6086030 122.8393120 113.2896470  51.0962130
 118.7847580 106.7999430  36.9958860 118.1601760 106.7959300  37.7212170
 118.6977700 105.9330390  36.5994830 117.7064660 107.7236060  43.9742630
 118.0036990 108.6298890  43.8934650 118.2550220 107.2354840  43.3602200
 115.4602980 112.3022300  39.8434280 115.2343900 112.0859470  40.7480900
 114.6795510 112.7350760  39.4980250 122.6900740 112.3085670  38.4424930
 122.0909630 113.0321470  38.2588550 123.2380350 112.2462450  37.6601380
 117.9002190 113.2007880  50.5094550 117.8045790 112.2602610  50.3594950
 118.7434170 113.4222950  50.1142620 121.2965610 110.9449210  40.4728210
 121.6895180 111.2621410  39.6596900 121.6582460 110.0661090  40.5872730
 113.0312730 109.6121550  48.6628330 112.6376120 110.4596760  48.8701110
 112.3431130 108.9747920  48.8536970 119.6057780 109.6956520  51.7325070
 118.9156100 109.5028720  52.3671160 120.3490080 109.9791160  52.2649370
 110.3329780 107.5350010  42.6958410 110.0442830 108.1052870  43.4083390
 111.0775540 107.0554460  43.0589640 110.5200010 111.4770130  33.9061130
 110.4374680 112.4200890  34.0476120 110.1683070 111.3345040  33.0273480
 121.8820750 113.5354960  44.5678990 121.1501870 114.0441770  44.9169090
 121.4845090 112.7184940  44.2667770 118.3198140 110.2109160  42.9731480
 118.3234200 109.7699110  42.1236020 119.2149260 110.5326490  43.0803300
 114.1700520 110.0935650  41.9325690 113.8300570 110.5710880  42.6892740
 113.4077840 109.6400770  41.5726790 118.3818290 111.2121240  35.9638240
 118.5031110 111.1707720  36.9124060 117.9966800 112.0745390  35.8084970
 122.3446660 108.9888640  43.9801930 122.3619400 109.4397290  44.8243780
 122.0962240 108.0894280  44.1935370 117.3939790 113.5222380  35.3621540
 116.8256690 113.0740630  34.7357450 118.1028790 113.8815160  34.8286690
 118.6206110 114.2710940  44.7196890 118.9876240 113.7969510  45.4658230
 118.4311170 115.1452510  45.0605230 111.4846600 109.0154630  40.8490360
 111.1993520 108.6510300  41.6868980 111.4225460 108.2835090  40.2353500
 116.4105480 113.3119580  47.0381100 116.1062550 114.1911560  47.2631460
 117.3651940 113.3719370  47.0738540 121.1585190 107.9083890  37.5703730
 120.3449800 107.4097060  37.4949040 120.9647140 108.7482140  37.1540080
 123.8733580 112.2803540  35.8665890 124.7613200 112.5920770  35.6917230
 123.8438670 111.4075790  35.4746470 112.4669210 114.1522320  48.1852460
 112.1084150 114.8176170  48.7725800 112.1723770 113.3205870  48.5565080
 115.6682330 114.6106560  51.0692010 115.3682470 114.7563740  50.1719830
 116.4393570 114.0511850  50.9765400 110.9777260 114.1513580  34.8087060
 111.8472110 114.4338380  35.0922980 110.4867580 114.9649450  34.6935870
 114.0423850 105.8824440  39.4017860 113.9138480 105.8742340  40.3502780
 113.2185870 106.2207530  39.0508870 111.0417780 107.6415560  48.8624560
 110.3276300 107.8412480  49.4677170 111.4612820 106.8655130  49.2339360
 122.5356560 110.1337870  46.6126010 122.9037380 109.3133080  46.9405580
 121.6754760 110.1939760  47.0281660 117.8702620 111.3680760  38.8371450
 117.1618770 111.8367100  39.2785060 118.1547100 110.7102770  39.4716640
 119.4958550 112.7877460  46.8363980 119.9943800 113.2623280  47.5015830
 119.6381500 111.8640980  47.0434010 121.9018050 108.0931420  40.2767240
 121.7785830 108.1117550  39.3276750 122.8502610 108.1410360  40.3965640
 116.0737640 109.6765840  36.2122160 116.9228170 110.1135990  36.1462350
 115.7068910 109.9886100  37.0394220 124.9947420 114.2478600  41.1253730
 124.0537560 114.2628830  41.3001420 125.3091490 113.4614560  41.5714030
 113.6675820 113.3623270  35.3690580 113.7479410 112.4150780  35.4807980
 114.5595570 113.6930150  35.4751240 113.2269700 113.3267780  51.4996820
 113.2675040 113.0281650  52.4082050 114.0815200 113.7275390  51.3404340
 115.1675510 111.9059880  49.4671310 114.6371970 111.4150830  48.8394650
 115.8363580 112.3344080  48.9329240 124.5375740 113.7125500  51.2351650
 125.1196510 112.9577820  51.1472130 124.7137510 114.2432940  50.4583130
 115.6547810 108.8722250  49.5468600 115.5604680 108.2543000  48.8219470
 115.0745200 109.5988540  49.3198510 118.4209250 107.4295490  46.5795990
 117.9726550 107.4519750  45.7341540 117.7874450 107.0314510  47.1766290
 121.1632700 114.0566000  48.5846270 121.2828910 113.4607140  49.3241110
 122.0226700 114.0935690  48.1647570 115.9006990 111.9996560  33.6058490
 115.6996050 111.1363920  33.9671830 115.7299040 111.9129920  32.6680090
 117.9301470 110.5987350  49.8422090 118.5201160 110.2903200  50.5299910
 117.1121710 110.1267100  49.9981990 122.7494900 110.2153160  50.0755110
 122.0610420 109.5534700  50.0105100 123.4700920 109.7691430  50.5203570
 123.3795300 106.8104790  36.1345370 123.6597590 105.9672690  36.4904790
 122.6061030 107.0427900  36.6484120 114.6989790 109.0997180  33.5936370
 115.0015690 109.1064610  32.6855520 115.4384380 108.7495040  34.0904030
 117.9174720 108.0431800  34.5792570 117.5696720 107.3655790  33.9995020
 118.1187490 107.5821310  35.3935960 111.2580360 114.5719450  40.9756940
 110.6029200 114.3031090  40.3316640 112.0958310 114.4623930  40.5258920
 124.2070800 109.3660740  35.1975430 124.6255680 109.1791720  34.3572090
 123.9006860 108.5139790  35.5078360 112.2956290 114.9572020  45.5160280
 112.6629330 114.8699420  46.3956300 111.7267110 114.1938570  45.4167140
 111.8472290 111.8681110  49.4218700 110.9528340 111.8347870  49.7612410
 112.3869840 112.0667900  50.1869950 110.4718440 111.7818380  36.9182270
 109.5682520 112.0448580  36.7433930 110.9559060 112.0529550  36.1382230
 113.0145650 110.8383920  34.8276650 113.7237350 110.4167140  34.3423930
 112.2985590 110.9059150  34.1960000 112.6619810 106.8923250  33.8679300
 113.3847940 107.4332190  34.1860520 112.9344330 106.6186670  32.9920840
 112.3512000 106.1429440  43.7701920 112.9988190 105.5926820  43.3297080
 112.7713840 106.3972590  44.5917730 112.1044000 106.2985110  46.5127240
 111.7558820 106.7548930  47.2785420 111.7731700 105.4042240  46.5949670
 119.6168820 107.4896990  50.0346660 119.5557710 108.0818820  50.7842070
 120.5569200 107.3822950  49.8896920 122.2543380 107.1467050  49.6738950
 122.8683790 107.4646340  49.0120030 122.7992940 106.6615640  50.2934810
 112.7764640 105.8261310  49.7878010 113.3247630 105.6449360  49.0244120
 112.8419950 105.0355420  50.3234320 122.9951420 105.7099190  46.0008240
 122.1211260 106.0434300  45.7981170 122.8862170 105.2372370  46.8260110
 123.9023400 107.9170060  47.3849960 123.5736760 107.1021820  47.0051690
 124.8505700 107.8739870  47.2615650 120.7426240 106.6269030  44.9401150
 119.9598030 107.1014530  45.2197910 120.4489170 105.7223860  44.8314330
 112.0866650 106.9316510  37.4614870 112.8446010 107.0445390  36.8878900
 111.6243820 107.7685710  37.4158300 118.6280460 109.0455780  40.4517180
 117.8154970 108.6712670  40.1113060 119.1322100 108.2900860  40.7538370
 123.1305440 105.7098230  41.6900250 123.7334810 106.2818440  42.1648770
 122.3898430 106.2737670  41.4674150 114.4591800 107.4580560  36.0016840
 114.9884560 106.6710360  35.8724790 115.0920120 108.1371750  36.2352370
 116.6529640 107.1955700  39.0562230 116.0232380 106.4943010  39.2232360
 116.1134780 107.9559830  38.8395390 116.7785200 106.4739680  51.4914720
 116.4969470 106.9773280  50.7275540 117.1604900 105.6761430  51.1256850
 123.3800660 105.8893260  52.0695190 123.2666110 106.2087870  52.9646710
 124.1970400 106.2905770  51.7732470 122.2858810 113.9085730  22.4329930
 122.2052860 112.9940340  22.1621640 121.8723230 114.4052800  21.7269640
 112.8434630 110.9586450  18.9757350 111.9551330 111.3002420  18.8737230
 113.1275820 110.7586770  18.0838180 110.8067640 113.5592100  24.8597050
 111.3783750 112.7914300  24.8600690 110.8069180 113.8580860  23.9503660
 112.0492510 108.9676460  26.6465980 111.8695350 108.0702210  26.9268740
 111.6472590 109.5148330  27.3212930 120.8891010 111.1692320  24.5478290
 121.2655830 110.2964200  24.4351960 120.7910520 111.5051020  23.6568730
 115.0196020 109.5417950  20.0095730 115.1262770 110.4421680  20.3164490
 114.1088380 109.4935920  19.7190380 112.6679180 111.4636960  25.2548320
 113.3489290 111.7275330  25.8735720 112.3527230 110.6237830  25.5886330
 116.8603750 112.5104320  24.3420910 117.3681970 113.0085290  24.9825930
 117.3916990 111.7339520  24.1660270 115.1439850 107.1502880  28.6084330
 115.1458290 107.6675270  27.8030230 114.3144160 106.6733060  28.5854260
 124.9076610 110.6043140  24.2534170 124.2032180 110.8928030  24.8337280
 125.2688770 111.4143250  23.8933730 114.8255180 108.8612840  26.6154780
 115.1671990 109.7054890  26.3208650 113.8870990 109.0096580  26.7320120
 118.5083070 106.3495110  22.9399370 118.8158050 105.7942000  22.2234870
 117.5783770 106.4839570  22.7572360 120.8832910 110.6860940  16.6726650
 119.9436580 110.8474900  16.7579110 121.2016170 111.4046620  16.1262640
 124.3687680 112.1548780  27.5960550 123.9558860 112.9802490  27.8500540
 123.6363630 111.5693820  27.4036910 116.5020470 114.9408680  22.4579220
 116.0977470 114.2285930  21.9625120 116.5883590 114.5961920  23.3467260
 115.2149090 111.7151890  26.2378260 115.7663680 111.8247230  25.4631510
 115.7292600 112.0889490  26.9533490 113.2025100 113.8353660  19.9585870
 113.0822700 114.5615750  19.3467140 112.8925990 113.0656570  19.4813780
 115.6688760 107.1788730  23.3409540 115.2256910 107.9598270  23.0094060
 116.2273750 107.5018620  24.0480480 119.9558570 110.0457250  28.9444860
 119.4937940 110.2540270  29.7564800 119.5536680 109.2316600  28.6415530
 124.9563080 111.2666200  30.0741520 124.1056670 110.9671950  30.3950590
 124.7964870 111.5108210  29.1625340 122.0512790 112.7667950  32.1740310
 122.3766200 111.9331700  31.8342540 122.8393120 113.2896470  32.3218640
 118.7847580 106.7999430  18.2215370 118.1601760 106.7959300  18.9468680
 118.6977700 105.9330390  17.8251340 117.7064660 107.7236060  25.1999140
 118.0036990 108.6298890  25.1191160 118.2550220 107.2354840  24.5858710
 115.4602980 112.3022300  21.0690790 115.2343900 112.0859470  21.9737410
 114.6795510 112.7350760  20.7236760 122.6900740 112.3085670  19.6681440
 122.0909630 113.0321470  19.4845060 123.2380350 112.2462450  18.8857890
 117.9002190 113.2007880  31.7351060 117.8045790 112.2602610  31.5851460
 118.7434170 113.4222950  31.3399130 121.2965610 110.9449210  21.6984720
 121.6895180 111.2621410  20.8853410 121.6582460 110.0661090  21.8129240
 113.0312730 109.6121550  29.8884840 112.6376120 110.4596760  30.0957620
 112.3431130 108.9747920  30.0793480 119.6057780 109.6956520  32.9581580
 118.9156100 109.5028720  33.5927670 120.3490080 109.9791160  33.4905880
 110.3329780 107.5350010  23.9214920 110.0442830 108.1052870  24.6339900
 111.0775540 107.0554460  24.2846150 110.5200010 111.4770130  15.1317640
 110.4374680 112.4200890  15.2732630 110.1683070 111.3345040  14.2529990
 121.8820750 113.5354960  25.7935500 121.1501870 114.0441770  26.1425600
 121.4845090 112.7184940  25.4924280 118.3198140 110.2109160  24.1987990
 118.3234200 109.7699110  23.3492530 119.2149260 110.5326490  24.3059810
 114.1700520 110.0935650  23.1582200 113.8300570 110.5710880  23.9149250
 113.4077840 109.6400770  22.7983300 118.3818290 111.2121240  17.1894750
 118.5031110 111.1707720  18.1380570 117.9966800 112.0745390  17.0341480
 122.3446660 108.9888640  25.2058440 122.3619400 109.4397290  26.0500290
 122.0962240 108.0894280  25.4191880 117.3939790 113.5222380  16.5878050
 116.8256690 113.0740630  15.9613960 118.1028790 113.8815160  16.0543200
 118.6206110 114.2710940  25.9453400 118.9876240 113.7969510  26.6914740
 118.4311170 115.1452510  26.2861740 111.4846600 109.0154630  22.0746870
 111.1993520 108.6510300  22.9125490 111.4225460 108.2835090  21.4610010
 116.4105480 113.3119580  28.2637610 116.1062550 114.1911560  28.4887970
 117.3651940 113.3719370  28.2995050 121.1585190 107.9083890  18.7960240
 120.3449800 107.4097060  18.7205550 120.9647140 108.7482140  18.3796590
 123.8733580 112.2803540  17.0922400 124.7613200 112.5920770  16.9173740
 123.8438670 111.4075790  16.7002980 112.4669210 114.1522320  29.4108970
 112.1084150 114.8176170  29.9982310 112.1723770 113.3205870  29.7821590
 115.6682330 114.6106560  32.2948520 115.3682470 114.7563740  31.3976340
 116.4393570 114.0511850  32.2021910 110.9777260 114.1513580  16.0343570
 111.8472110 114.4338380  16.3179490 110.4867580 114.9649450  15.9192380
 114.0423850 105.8824440  20.6274370 113.9138480 105.8742340  21.5759290
 113.2185870 106.2207530  20.2765380 111.0417780 107.6415560  30.0881070
 110.3276300 107.8412480  30.6933680 111.4612820 106.8655130  30.4595870
 122.5356560 110.1337870  27.8382520 122.9037380 109.3133080  28.1662090
 121.6754760 110.1939760  28.2538170 117.8702620 111.3680760  20.0627960
 117.1618770 111.8367100  20.5041570 118.1547100 110.7102770  20.6973150
 119.4958550 112.7877460  28.0620490 119.9943800 113.2623280  28.7272340
 119.6381500 111.8640980  28.2690520 121.9018050 108.0931420  21.5023750
 121.7785830 108.1117550  20.5533260 122.8502610 108.1410360  21.6222150
 116.0737640 109.6765840  17.4378670 116.9228170 110.1135990  17.3718860
 115.7068910 109.9886100  18.2650730 124.9947420 114.2478600  22.3510240
 124.0537560 114.2628830  22.5257930 125.3091490 113.4614560  22.7970540
 113.6675820 113.3623270  16.5947090 113.7479410 112.4150780  16.7064490
 114.5595570 113.6930150  16.7007750 113.2269700 113.3267780  32.7253330
 113.2675040 113.0281650  33.6338560 114.0815200 113.7275390  32.5660850
 115.1675510 111.9059880  30.6927820 114.6371970 111.4150830  30.0651160
 115.8363580 112.3344080  30.1585750 124.5375740 113.7125500  32.4608160
 125.1196510 112.9577820  32.3728640 124.7137510 114.2432940  31.6839640
 115.6547810 108.8722250  30.7725110 115.5604680 108.2543000  30.0475980
 115.0745200 109.5988540  30.5455020 118.4209250 107.4295490  27.8052500
 117.9726550 107.4519750  26.9598050 117.7874450 107.0314510  28.4022800
 121.1632700 114.0566000  29.8102780 121.2828910 113.4607140  30.5497620
 122.0226700 114.0935690  29.3904080 115.9006990 111.9996560  14.8315000
 115.6996050 111.1363920  15.1928340 115.7299040 111.9129920  13.8936600
 117.9301470 110.5987350  31.0678600 118.5201160 110.2903200  31.7556420
 117.1121710 110.1267100  31.2238500 122.7494900 110.2153160  31.3011620
 122.0610420 109.5534700  31.2361610 123.4700920 109.7691430  31.7460080
 123.3795300 106.8104790  17.3601880 123.6597590 105.9672690  17.7161300
 122.6061030 107.0427900  17.8740630 114.6989790 109.0997180  14.8192880
 115.0015690 109.1064610  13.9112030 115.4384380 108.7495040  15.3160540
 117.9174720 108.0431800  15.8049080 117.5696720 107.3655790  15.2251530
 118.1187490 107.5821310  16.6192470 111.2580360 114.5719450  22.2013450
 110.6029200 114.3031090  21.5573150 112.0958310 114.4623930  21.7515430
 124.2070800 109.3660740  16.4231940 124.6255680 109.1791720  15.5828600
 123.9006860 108.5139790  16.7334870 112.2956290 114.9572020  26.7416790
 112.6629330 114.8699420  27.6212810 111.7267110 114.1938570  26.6423650
 111.8472290 111.8681110  30.6475210 110.9528340 111.8347870  30.9868920
 112.3869840 112.0667900  31.4126460 110.4718440 111.7818380  18.1438780
 109.5682520 112.0448580  17.9690440 110.9559060 112.0529550  17.3638740
 113.0145650 110.8383920  16.0533160 113.7237350 110.4167140  15.5680440
 112.2985590 110.9059150  15.4216510 112.6619810 106.8923250  15.0935810
 113.3847940 107.4332190  15.4117030 112.9344330 106.6186670  14.2177350
 112.3512000 106.1429440  24.9958430 112.9988190 105.5926820  24.5553590
 112.7713840 106.3972590  25.8174240 112.1044000 106.2985110  27.7383750
 111.7558820 106.7548930  28.5041930 111.7731700 105.4042240  27.8206180
 119.6168820 107.4896990  31.2603170 119.5557710 108.0818820  32.0098580
 120.5569200 107.3822950  31.1153430 122.2543380 107.1467050  30.8995460
 122.8683790 107.4646340  30.2376540 122.7992940 106.6615640  31.5191320
 112.7764640 105.8261310  31.0134520 113.3247630 105.6449360  30.2500630
 112.8419950 105.0355420  31.5490830 122.9951420 105.7099190  27.2264750
 122.1211260 106.0434300  27.0237680 122.8862170 105.2372370  28.0516620
 123.9023400 107.9170060  28.6106470 123.5736760 107.1021820  28.2308200
 124.8505700 107.8739870  28.4872160 120.7426240 106.6269030  26.1657660
 119.9598030 107.1014530  26.4454420 120.4489170 105.7223860  26.0570840
 112.0866650 106.9316510  18.6871380 112.8446010 107.0445390  18.1135410
 111.6243820 107.7685710  18.6414810 118.6280460 109.0455780  21.6773690
 117.8154970 108.6712670  21.3369570 119.1322100 108.2900860  21.9794880
 123.1305440 105.7098230  22.9156760 123.7334810 106.2818440  23.3905280
 122.3898430 106.2737670  22.6930660 114.4591800 107.4580560  17.2273350
 114.9884560 106.6710360  17.0981300 115.0920120 108.1371750  17.4608880
 116.6529640 107.1955700  20.2818740 116.0232380 106.4943010  20.4488870
 116.1134780 107.9559830  20.0651900 116.7785200 106.4739680  32.7171230
 116.4969470 106.9773280  31.9532050 117.1604900 105.6761430  32.3513360
 123.3800660 105.8893260  33.2951700 123.2666110 106.2087870  34.1903220
 124.1970400 106.2905770  32.9988980 122.2858810 113.9085730   3.6586440
 122.2052860 112.9940340   3.3878150 121.8723230 114.4052800   2.9526150
 110.8067640 113.5592100   6.0853560 111.3783750 112.7914300   6.0857200
 110.8069180 113.8580860   5.1760170 112.0492510 108.9676460   7.8722490
 111.8695350 108.0702210   8.1525250 111.6472590 109.5148330   8.5469440
 120.8891010 111.1692320   5.7734800 121.2655830 110.2964200   5.6608470
 120.7910520 111.5051020   4.8825240 112.6679180 111.4636960   6.4804830
 113.3489290 111.7275330   7.0992230 112.3527230 110.6237830   6.8142840
 116.8603750 112.5104320   5.5677420 117.3681970 113.0085290   6.2082440
 117.3916990 111.7339520   5.3916780 115.1439850 107.1502880   9.8340840
 115.1458290 107.6675270   9.0286740 114.3144160 106.6733060   9.8110770
 124.9076610 110.6043140   5.4790680 124.2032180 110.8928030   6.0593790
 125.2688770 111.4143250   5.1190240 114.8255180 108.8612840   7.8411290
 115.1671990 109.7054890   7.5465160 113.8870990 109.0096580   7.9576630
 118.5083070 106.3495110   4.1655880 118.8158050 105.7942000   3.4491380
 117.5783770 106.4839570   3.9828870 124.3687680 112.1548780   8.8217060
 123.9558860 112.9802490   9.0757050 123.6363630 111.5693820   8.6293420
 116.5020470 114.9408680   3.6835730 116.0977470 114.2285930   3.1881630
 116.5883590 114.5961920   4.5723770 115.2149090 111.7151890   7.4634770
 115.7663680 111.8247230   6.6888020 115.7292600 112.0889490   8.1790000
 115.6688760 107.1788730   4.5666050 115.2256910 107.9598270   4.2350570
 116.2273750 107.5018620   5.2736990 119.9558570 110.0457250  10.1701370
 119.4937940 110.2540270  10.9821310 119.5536680 109.2316600   9.8672040
 124.9563080 111.2666200  11.2998030 124.1056670 110.9671950  11.6207100
 124.7964870 111.5108210  10.3881850 122.0512790 112.7667950  13.3996820
 122.3766200 111.9331700  13.0599050 122.8393120 113.2896470  13.5475150
 117.7064660 107.7236060   6.4255650 118.0036990 108.6298890   6.3447670
 118.2550220 107.2354840   5.8115220 115.4602980 112.3022300   2.2947300
 115.2343900 112.0859470   3.1993920 114.6795510 112.7350760   1.9493270
 117.9002190 113.2007880  12.9607570 117.8045790 112.2602610  12.8107970
 118.7434170 113.4222950  12.5655640 121.2965610 110.9449210   2.9241230
 121.6895180 111.2621410   2.1109920 121.6582460 110.0661090   3.0385750
 113.0312730 109.6121550  11.1141350 112.6376120 110.4596760  11.3214130
 112.3431130 108.9747920  11.3049990 119.6057780 109.6956520  14.1838090
 118.9156100 109.5028720  14.8184180 120.3490080 109.9791160  14.7162390
 110.3329780 107.5350010   5.1471430 110.0442830 108.1052870   5.8596410
 111.0775540 107.0554460   5.5102660 121.8820750 113.5354960   7.0192010
 121.1501870 114.0441770   7.3682110 121.4845090 112.7184940   6.7180790
 118.3198140 110.2109160   5.4244500 118.3234200 109.7699110   4.5749040
 119.2149260 110.5326490   5.5316320 114.1700520 110.0935650   4.3838710
 113.8300570 110.5710880   5.1405760 113.4077840 109.6400770   4.0239810
 122.3446660 108.9888640   6.4314950 122.3619400 109.4397290   7.2756800
 122.0962240 108.0894280   6.6448390 118.6206110 114.2710940   7.1709910
 118.9876240 113.7969510   7.9171250 118.4311170 115.1452510   7.5118250
 111.4846600 109.0154630   3.3003380 111.1993520 108.6510300   4.1382000
 111.4225460 108.2835090   2.6866520 116.4105480 113.3119580   9.4894120
 116.1062550 114.1911560   9.7144480 117.3651940 113.3719370   9.5251560
 112.4669210 114.1522320  10.6365480 112.1084150 114.8176170  11.2238820
 112.1723770 113.3205870  11.0078100 115.6682330 114.6106560  13.5205030
 115.3682470 114.7563740  12.6232850 116.4393570 114.0511850  13.4278420
 111.0417780 107.6415560  11.3137580 110.3276300 107.8412480  11.9190190
 111.4612820 106.8655130  11.6852380 122.5356560 110.1337870   9.0639030
 122.9037380 109.3133080   9.3918600 121.6754760 110.1939760   9.4794680
 119.4958550 112.7877460   9.2877000 119.9943800 113.2623280   9.9528850
 119.6381500 111.8640980   9.4947030 121.9018050 108.0931420   2.7280260
 121.7785830 108.1117550   1.7789770 122.8502610 108.1410360   2.8478660
 124.9947420 114.2478600   3.5766750 124.0537560 114.2628830   3.7514440
 125.3091490 113.4614560   4.0227050 113.2269700 113.3267780  13.9509840
 113.2675040 113.0281650  14.8595070 114.0815200 113.7275390  13.7917360
 115.1675510 111.9059880  11.9184330 114.6371970 111.4150830  11.2907670
 115.8363580 112.3344080  11.3842260 124.5375740 113.7125500  13.6864670
 125.1196510 112.9577820  13.5985150 124.7137510 114.2432940  12.9096150
 115.6547810 108.8722250  11.9981620 115.5604680 108.2543000  11.2732490
 115.0745200 109.5988540  11.7711530 118.4209250 107.4295490   9.0309010
 117.9726550 107.4519750   8.1854560 117.7874450 107.0314510   9.6279310
 121.1632700 114.0566000  11.0359290 121.2828910 113.4607140  11.7754130
 122.0226700 114.0935690  10.6160590 117.9301470 110.5987350  12.2935110
 118.5201160 110.2903200  12.9812930 117.1121710 110.1267100  12.4495010
 122.7494900 110.2153160  12.5268130 122.0610420 109.5534700  12.4618120
 123.4700920 109.7691430  12.9716590 111.2580360 114.5719450   3.4269960
 110.6029200 114.3031090   2.7829660 112.0958310 114.4623930   2.9771940
 112.2956290 114.9572020   7.9673300 112.6629330 114.8699420   8.8469320
 111.7267110 114.1938570   7.8680160 111.8472290 111.8681110  11.8731720
 110.9528340 111.8347870  12.2125430 112.3869840 112.0667900  12.6382970
 112.3512000 106.1429440   6.2214940 112.9988190 105.5926820   5.7810100
 112.7713840 106.3972590   7.0430750 112.1044000 106.2985110   8.9640260
 111.7558820 106.7548930   9.7298440 111.7731700 105.4042240   9.0462690
 119.6168820 107.4896990  12.4859680 119.5557710 108.0818820  13.2355090
 120.5569200 107.3822950  12.3409940 122.2543380 107.1467050  12.1251970
 122.8683790 107.4646340  11.4633050 122.7992940 106.6615640  12.7447830
 112.7764640 105.8261310  12.2391030 113.3247630 105.6449360  11.4757140
 112.8419950 105.0355420  12.7747340 122.9951420 105.7099190   8.4521260
 122.1211260 106.0434300   8.2494190 122.8862170 105.2372370   9.2773130
 123.9023400 107.9170060   9.8362980 123.5736760 107.1021820   9.4564710
 124.8505700 107.8739870   9.7128670 120.7426240 106.6269030   7.3914170
 119.9598030 107.1014530   7.6710930 120.4489170 105.7223860   7.2827350
 118.6280460 109.0455780   2.9030200 117.8154970 108.6712670   2.5626080
 119.1322100 108.2900860   3.2051390 123.1305440 105.7098230   4.1413270
 123.7334810 106.2818440   4.6161790 122.3898430 106.2737670   3.9187170
 116.7785200 106.4739680  13.9427740 116.4969470 106.9773280  13.1788560
 117.1604900 105.6761430  13.5769870 123.3800660 105.8893260  14.5208210
 123.2666110 106.2087870  15.4159730 124.1970400 106.2905770  14.2245490
 122.2858810  95.1342240  97.5303890 122.2052860  94.2196850  97.2595600
 121.8723230  95.6309310  96.8243600 120.4176850  96.9121260  99.4113160
 119.6418950  96.4321700  99.7011730 121.0689780  96.2326910  99.2369320
 114.4342680  97.2241070 100.2888920 113.6027560  96.9689780 100.6885430
 115.0423660  97.2951840 101.0246840 124.4384280 101.3181450  98.1912290
 123.9765810 100.5468690  98.5199460 125.2509830 101.3447520  98.6964740
 114.4143940 101.2581160 100.4846940 114.7171980 100.3678900 100.3057160
 115.1587530 101.8151380 100.2569190 112.8434630  92.1842960  94.0731310
 111.9551330  92.5258930  93.9711190 113.1275820  91.9843280  93.1812140
 110.8067640  94.7848610  99.9571010 111.3783750  94.0170810  99.9574650
 110.8069180  95.0837370  99.0477620 120.6647590 103.6039460  97.8116280
 120.0459030 104.0596960  97.2410720 121.5199370 103.7590920  97.4105980
 119.8585840  99.5878450  99.4183320 119.7894120  98.6468390  99.2572450
 120.6205700  99.6779860  99.9905890 112.0492510  90.1932970 101.7439940
 111.8695350  89.2958720 102.0242700 111.6472590  90.7404840 102.4186890
 120.8891010  92.3948830  99.6452250 121.2655830  91.5220710  99.5325920
 120.7910520  92.7307530  98.7542690 115.0196020  90.7674460  95.1069690
 115.1262770  91.6678190  95.4138450 114.1088380  90.7192430  94.8164340
 112.6679180  92.6893470 100.3522280 113.3489290  92.9531840 100.9709680
 112.3527230  91.8494340 100.6860290 116.8603750  93.7360830  99.4394870
 117.3681970  94.2341800 100.0799890 117.3916990  92.9596030  99.2634230
 121.5310940  98.4878700  95.2048190 120.9128210  98.9528150  94.6410910
 122.0434190  99.1806180  95.6217700 116.3942700  98.0154570 101.8831790
 116.0612080  98.6423490 102.5252860 116.5709380  98.5416450 101.1033460
 124.9076610  91.8299650  99.3508130 124.2032180  92.1184540  99.9311240
 125.2688770  92.6399760  98.9907690 114.8255180  90.0869350 101.7128740
 115.1671990  90.9311400 101.4182610 113.8870990  90.2353090 101.8294080
 110.8994140  99.1735230  92.5787820 110.5222120  99.6622330  91.8472720
 111.1567210  99.8460510  93.2094350 118.5083070  87.5751620  98.0373330
 118.8158050  87.0198510  97.3208830 117.5783770  87.7096080  97.8546320
 124.0598130 103.2918910 100.3280790 124.0725290 102.8881200  99.4603050
 123.5073350 104.0666200 100.2242220 123.4583570  98.1948750 101.6563400
 123.8752360  97.9808860 100.8216860 124.1823390  98.4521540 102.2272020
 120.8963830  95.6400450  94.7733450 119.9693110  95.5737830  95.0021920
 121.0488650  96.5780580  94.6588690 120.8832910  91.9117450  91.7700610
 119.9436580  92.0731410  91.8553070 121.2016170  92.6303130  91.2236600
 124.9261120  97.2020750  95.2768700 124.3073540  96.8640300  94.6295000
 124.9085570  96.5580510  95.9847890 116.5020470  96.1665190  97.5553180
 116.0977470  95.4542440  97.0599080 116.5883590  95.8218430  98.4441220
 116.9702170  99.8532750  99.7192390 116.6730460  99.2478220  99.0400170
 117.9201990  99.8910060  99.6081750 115.2149090  92.9408400 101.3352220
 115.7663680  93.0503740 100.5605470 115.7292600  93.3146000 102.0507450
 123.1025820  96.4407560  92.2841450 123.5419100  95.6029990  92.1379270
 123.8154240  97.0736960  92.3705590 121.2121200 101.3803630  96.2522690
 121.6517110 102.1227960  95.8378080 121.1508090 101.6230200  97.1761650
 113.2025100  95.0610170  95.0559830 113.0822700  95.7872260  94.4441100
 112.8925990  94.2913080  94.5787740 110.8410470  98.2325310 100.8628470
 110.9190890  98.3674080  99.9184190 111.4552150  97.5241200 101.0556590
 112.0858100  99.9325500  97.2734650 111.6786180 100.0740090  96.4188250
 112.9771110  99.6485660  97.0705860 123.8791380 104.3672750  93.6085700
 123.7192520 104.0775690  94.5067530 123.7138090 103.5912880  93.0730930
 116.3579760 104.1471280  95.3857320 116.1822240 103.2306820  95.1725120
 115.5035500 104.5058570  95.6255120 123.5817510 101.8760310  92.1683700
 122.8882670 101.8737600  91.5085980 124.3240370 101.4519630  91.7377870
 123.1467440 103.5023020  96.2432190 123.6024390 102.7212400  96.5570810
 123.4859960 104.2129840  96.7873370 115.6688760  88.4045240  98.4383500
 115.2256910  89.1854780  98.1068020 116.2273750  88.7275130  99.1454440
 118.7847580  88.0255940  93.3189330 118.1601760  88.0215810  94.0442640
 118.6977700  87.1586900  92.9225300 117.7064660  88.9492570 100.2973100
 118.0036990  89.8555400 100.2165120 118.2550220  88.4611350  99.6832670
 115.4602980  93.5278810  96.1664750 115.2343900  93.3115980  97.0711370
 114.6795510  93.9607270  95.8210720 122.6900740  93.5342180  94.7655400
 122.0909630  94.2577980  94.5819020 123.2380350  93.4718960  93.9831850
 121.2965610  92.1705720  96.7958680 121.6895180  92.4877920  95.9827370
 121.6582460  91.2917600  96.9103200 110.3329780  88.7606520  99.0188880
 110.0442830  89.3309380  99.7313860 111.0775540  88.2810970  99.3820110
 110.5200010  92.7026640  90.2291600 110.4374680  93.6457400  90.3706590
 110.1683070  92.5601550  89.3503950 121.8820750  94.7611470 100.8909460
 121.1501870  95.2698280 101.2399560 121.4845090  93.9441450 100.5898240
 118.3198140  91.4365670  99.2961950 118.3234200  90.9955620  98.4466490
 119.2149260  91.7583000  99.4033770 114.1700520  91.3192160  98.2556160
 113.8300570  91.7967390  99.0123210 113.4077840  90.8657280  97.8957260
 118.3818290  92.4377750  92.2868710 118.5031110  92.3964230  93.2354530
 117.9966800  93.3001900  92.1315440 122.3446660  90.2145150 100.3032400
 122.3619400  90.6653800 101.1474250 122.0962240  89.3150790 100.5165840
 117.3939790  94.7478890  91.6852010 116.8256690  94.2997140  91.0587920
 118.1028790  95.1071670  91.1517160 118.6206110  95.4967450 101.0427360
 118.9876240  95.0226020 101.7888700 118.4311170  96.3709020 101.3835700
 111.4846600  90.2411140  97.1720830 111.1993520  89.8766810  98.0099450
 111.4225460  89.5091600  96.5583970 114.9387270  98.7437080  93.9578420
 114.1649530  98.2034700  93.7977140 115.6681900  98.2243690  93.6196180
 121.1585190  89.1340400  93.8934200 120.3449800  88.6353570  93.8179510
 120.9647140  89.9738650  93.4770550 123.8733580  93.5060050  92.1896360
 124.7613200  93.8177280  92.0147700 123.8438670  92.6332300  91.7976940
 114.9824670  98.4117460  97.5957230 115.5003340  97.6085720  97.5414120
 114.5308690  98.3496600  98.4374060 119.8694170  99.6783740  92.8684530
 120.2109870 100.4225970  92.3727850 119.0406880  99.9914860  93.2309360
 122.7521580  98.9999580  98.2330040 123.1045400  98.4027710  97.5731410
 121.8683910  98.6743810  98.4038290 118.8384860  99.7597270  95.6400450
 119.5255990 100.3066480  96.0208040 118.0517280 100.3038000  95.6750060
 110.9777260  95.3770090  91.1317530 111.8472110  95.6594890  91.4153450
 110.4867580  96.1905960  91.0166340 118.1412070  96.7643300  95.2525810
 118.5974850  97.5748550  95.4786000 117.7900280  96.4466440  96.0844300
 114.0423850  87.1080950  95.7248330 113.9138480  87.0998850  96.6733250
 113.2185870  87.4464040  95.3739340 121.7176760 100.2781990 101.1995560
 122.3598990  99.5775150 101.3127730 122.2426110 101.0580430 101.0192450
 111.3448510 104.5897470  91.6979160 111.7046150 105.1886810  91.0436430
 111.2040850 105.1357360  92.4714190 117.3617130 101.9728670  92.5152830
 117.3527230 102.7058360  91.8997340 116.4415490 101.7260250  92.6079790
 112.9623770  97.1943560  93.2599590 112.3551720  97.9342460  93.2694890
 113.4373120  97.2842920  92.4337790 120.3476730 102.0356910  91.1778020
 120.4488710 101.8320900  90.2480000 119.4478470 101.7815190  91.3825800
 117.8702620  92.5937270  95.1601920 117.1618770  93.0623610  95.6015530
 118.1547100  91.9359280  95.7947110 121.9018050  89.3187930  96.5997710
 121.7785830  89.3374060  95.6507220 122.8502610  89.3666870  96.7196110
 118.9894840 104.5543230  95.8725690 119.2436340 104.5164620  94.9505060
 118.0407320 104.4276560  95.8653940 116.0737640  90.9022350  92.5352630
 116.9228170  91.3392500  92.4692820 115.7068910  91.2142610  93.3624690
 124.9947420  95.4735110  97.4484200 124.0537560  95.4885340  97.6231890
 125.3091490  94.6871070  97.8944500 114.9729060  97.1554710  91.0088160
 115.7392330  97.0436070  91.5713590 115.0503750  96.4592680  90.3564930
 113.6675820  94.5879780  91.6921050 113.7479410  93.6407290  91.8038450
 114.5595570  94.9186660  91.7981710 114.4690530 104.7375170  98.7955590
 115.2053010 104.1890630  99.0664160 114.8531450 105.6031180  98.6561580
 111.3536010 100.8048740  94.6697100 110.4275790 101.0469880  94.6602510
 111.8192440 101.6323000  94.5481850 117.5792840 103.9105480  90.6181160
 118.3721450 104.1994310  90.1662950 117.0597190 103.4797650  89.9393640
 118.0970240  99.1308890  90.4823510 117.9920880  98.5161240  91.2084890
 117.9294460  98.6074780  89.6986520 121.3372970  98.1928920  91.0865500
 120.7883070  98.6398220  91.7308240 121.9592230  97.6878170  91.6103170
 117.0048090  97.1519840  92.9830800 117.4264510  96.9859710  93.8262190
 117.1298930  96.3420070  92.4885940 119.5175730  96.1757450  90.2307900
 120.0381390  95.4606470  89.8649050 120.1644130  96.8143320  90.5308410
 115.9006990  93.2253070  89.9288960 115.6996050  92.3620430  90.2902300
 115.7299040  93.1386430  88.9910560 123.3795300  88.0361300  92.4575840
 123.6597590  87.1929200  92.8135260 122.6061030  88.2684410  92.9714590
 114.6989790  90.3253690  89.9166840 115.0015690  90.3321120  89.0085990
 115.4384380  89.9751550  90.4134500 117.9174720  89.2688310  90.9023040
 117.5696720  88.5912300  90.3225490 118.1187490  88.8077820  91.7166430
 120.0823760 104.2569060  92.5209640 120.9774550 104.5954030  92.5428400
 120.1141390 103.5348470  91.8933920 113.7219920  99.6296110  90.7496640
 114.1594790 100.1725780  91.4054220 114.2067650  98.8043060  90.7592980
 110.9365720 102.4185140  98.2016900 111.2668730 101.5506200  97.9695540
 111.3656720 102.6243660  99.0321860 115.5327640 100.7494150  95.8618870
 115.2323180 100.6259120  96.7622780 115.4265130  99.8902740  95.4534600
 111.4255930 103.2855730 100.9398530 110.9886920 103.4656530 101.7722680
 111.9933610 104.0430350 100.7980250 111.2580360  95.7975960  97.2987410
 110.6029200  95.5287600  96.6547110 112.0958310  95.6880440  96.8489390
 124.2070800  90.5917250  91.5205900 124.6255680  90.4048230  90.6802560
 123.9006860  89.7396300  91.8308830 112.2956290  96.1828530 101.8390750
 112.6629330  96.0955930 102.7186770 111.7267110  95.4195080 101.7397610
 110.4718440  93.0074890  93.2412740 109.5682520  93.2705090  93.0664400
 110.9559060  93.2786060  92.4612700 113.0145650  92.0640430  91.1507120
 113.7237350  91.6423650  90.6654400 112.2985590  92.1315660  90.5190470
 112.6619810  88.1179760  90.1909770 113.3847940  88.6588700  90.5090990
 112.9344330  87.8443180  89.3151310 112.3512000  87.3685950 100.0932390
 112.9988190  86.8183330  99.6527550 112.7713840  87.6229100 100.9148200
 117.4114400 102.2520810 102.6020620 117.1705760 102.5195370 101.7151140
 118.3517040 102.4226540 102.6571480 116.7853730 103.2226850  99.8566130
 117.3018750 102.6114210  99.3314390 117.4351110 103.7255630 100.3477140
 119.5249230 104.1135340 100.6835110 119.8127040 103.8589640  99.8068120
 120.0372450 103.5612700 101.2740680 120.7426240  87.8525540 101.2631620
 119.9598030  88.3271040 101.5428380 120.4489170  86.9480370 101.1544800
 111.4638630 104.3256240  96.2813480 111.2960670 103.6926920  96.9795370
 110.5973140 104.5315640  95.9307670 112.0866650  88.1573020  93.7845340
 112.8446010  88.2701900  93.2109370 111.6243820  88.9942220  93.7388770
 118.6280460  90.2712290  96.7747650 117.8154970  89.8969180  96.4343530
 119.1322100  89.5157370  97.0768840 123.1305440  86.9354740  98.0130720
 123.7334810  87.5074950  98.4879240 122.3898430  87.4994180  97.7904620
 113.0701330 103.0189470  93.7263620 112.5448950 103.3997500  93.0225580
 112.9945910 103.6440240  94.4473330 114.4591800  88.6837070  92.3247310
 114.9884560  87.8966870  92.1955260 115.0920120  89.3628260  92.5582840
 116.6529640  88.4212210  95.3792700 116.0232380  87.7199520  95.5462830
 116.1134780  89.1816340  95.1625860 115.6694300 104.9671850  92.6012870
 116.4013120 104.6831130  92.0536760 115.9287970 104.7285130  93.4912250
 114.8309090 101.0836580  92.6059200 114.2017970 101.5521680  93.1545030
 114.9456920 100.2385800  93.0405390 122.2858810  95.1342240  78.7560400
 122.2052860  94.2196850  78.4852110 121.8723230  95.6309310  78.0500110
 120.4176850  96.9121260  80.6369670 119.6418950  96.4321700  80.9268240
 121.0689780  96.2326910  80.4625830 114.4342680  97.2241070  81.5145430
 113.6027560  96.9689780  81.9141940 115.0423660  97.2951840  82.2503350
 124.4384280 101.3181450  79.4168800 123.9765810 100.5468690  79.7455970
 125.2509830 101.3447520  79.9221250 114.4143940 101.2581160  81.7103450
 114.7171980 100.3678900  81.5313670 115.1587530 101.8151380  81.4825700
 112.8434630  92.1842960  75.2987820 111.9551330  92.5258930  75.1967700
 113.1275820  91.9843280  74.4068650 110.8067640  94.7848610  81.1827520
 111.3783750  94.0170810  81.1831160 110.8069180  95.0837370  80.2734130
 120.6647590 103.6039460  79.0372790 120.0459030 104.0596960  78.4667230
 121.5199370 103.7590920  78.6362490 119.8585840  99.5878450  80.6439830
 119.7894120  98.6468390  80.4828960 120.6205700  99.6779860  81.2162400
 112.0492510  90.1932970  82.9696450 111.8695350  89.2958720  83.2499210
 111.6472590  90.7404840  83.6443400 120.8891010  92.3948830  80.8708760
 121.2655830  91.5220710  80.7582430 120.7910520  92.7307530  79.9799200
 115.0196020  90.7674460  76.3326200 115.1262770  91.6678190  76.6394960
 114.1088380  90.7192430  76.0420850 112.6679180  92.6893470  81.5778790
 113.3489290  92.9531840  82.1966190 112.3527230  91.8494340  81.9116800
 116.8603750  93.7360830  80.6651380 117.3681970  94.2341800  81.3056400
 117.3916990  92.9596030  80.4890740 115.1439850  88.3759390  84.9314800
 115.1458290  88.8931780  84.1260700 114.3144160  87.8989570  84.9084730
 121.5310940  98.4878700  76.4304700 120.9128210  98.9528150  75.8667420
 122.0434190  99.1806180  76.8474210 116.3942700  98.0154570  83.1088300
 116.0612080  98.6423490  83.7509370 116.5709380  98.5416450  82.3289970
 124.9076610  91.8299650  80.5764640 124.2032180  92.1184540  81.1567750
 125.2688770  92.6399760  80.2164200 114.8255180  90.0869350  82.9385250
 115.1671990  90.9311400  82.6439120 113.8870990  90.2353090  83.0550590
 115.6061800  99.9835370  84.9237480 116.2235800 100.6586450  84.6421930
 114.7454920 100.3923350  84.8324980 110.8994140  99.1735230  73.8044330
 110.5222120  99.6622330  73.0729230 111.1567210  99.8460510  74.4350860
 118.5083070  87.5751620  79.2629840 118.8158050  87.0198510  78.5465340
 117.5783770  87.7096080  79.0802830 124.0598130 103.2918910  81.5537300
 124.0725290 102.8881200  80.6859560 123.5073350 104.0666200  81.4498730
 123.4583570  98.1948750  82.8819910 123.8752360  97.9808860  82.0473370
 124.1823390  98.4521540  83.4528530 120.8963830  95.6400450  75.9989960
 119.9693110  95.5737830  76.2278430 121.0488650  96.5780580  75.8845200
 120.8832910  91.9117450  72.9957120 119.9436580  92.0731410  73.0809580
 121.2016170  92.6303130  72.4493110 124.9261120  97.2020750  76.5025210
 124.3073540  96.8640300  75.8551510 124.9085570  96.5580510  77.2104400
 124.3687680  93.3805290  83.9191020 123.9558860  94.2059000  84.1731010
 123.6363630  92.7950330  83.7267380 116.5020470  96.1665190  78.7809690
 116.0977470  95.4542440  78.2855590 116.5883590  95.8218430  79.6697730
 116.9702170  99.8532750  80.9448900 116.6730460  99.2478220  80.2656680
 117.9201990  99.8910060  80.8338260 115.2149090  92.9408400  82.5608730
 115.7663680  93.0503740  81.7861980 115.7292600  93.3146000  83.2763960
 125.0587780 103.4264620  84.6072000 124.5818340 104.2336810  84.4144610
 124.3749570 102.7742950  84.7598210 116.0620600  99.5914440  87.5956700
 115.1649130  99.8154410  87.8430100 116.0873470  99.7149380  86.6468100
 123.1025820  96.4407560  73.5097960 123.5419100  95.6029990  73.3635780
 123.8154240  97.0736960  73.5962100 114.8891820  96.4627760  86.1714070
 114.7499590  97.3350560  86.5401470 114.0073180  96.1200570  86.0262010
 121.2121200 101.3803630  77.4779200 121.6517110 102.1227960  77.0634590
 121.1508090 101.6230200  78.4018160 116.6872170 102.4049460  88.3799220
 116.6587600 102.8092410  87.5127650 116.5237140 101.4759820  88.2170820
 113.2025100  95.0610170  76.2816340 113.0822700  95.7872260  75.6697610
 112.8925990  94.2913080  75.8044250 110.8410470  98.2325310  82.0884980
 110.9190890  98.3674080  81.1440700 111.4552150  97.5241200  82.2813100
 112.0858100  99.9325500  78.4991160 111.6786180 100.0740090  77.6444760
 112.9771110  99.6485660  78.2962370 121.9036980 104.0817410  85.4058210
 122.4181650 103.9925420  86.2080640 121.0606060 104.4277110  85.6986120
 123.8791380 104.3672750  74.8342210 123.7192520 104.0775690  75.7324040
 123.7138090 103.5912880  74.2987440 116.3579760 104.1471280  76.6113830
 116.1822240 103.2306820  76.3981630 115.5035500 104.5058570  76.8511630
 123.5817510 101.8760310  73.3940210 122.8882670 101.8737600  72.7342490
 124.3240370 101.4519630  72.9634380 123.1467440 103.5023020  77.4688700
 123.6024390 102.7212400  77.7827320 123.4859960 104.2129840  78.0129880
 110.8969990  99.2739480  84.6279440 111.0601030  98.8044840  83.8098810
 111.3622440  98.7663040  85.2928280 115.6688760  88.4045240  79.6640010
 115.2256910  89.1854780  79.3324530 116.2273750  88.7275130  80.3710950
 119.9558570  91.2713760  85.2675330 119.4937940  91.4796780  86.0795270
 119.5536680  90.4573110  84.9646000 124.9563080  92.4922710  86.3971990
 124.1056670  92.1928460  86.7181060 124.7964870  92.7364720  85.4855810
 122.0512790  93.9924460  88.4970780 122.3766200  93.1588210  88.1573010
 122.8393120  94.5152980  88.6449110 118.7847580  88.0255940  74.5445840
 118.1601760  88.0215810  75.2699150 118.6977700  87.1586900  74.1481810
 117.7064660  88.9492570  81.5229610 118.0036990  89.8555400  81.4421630
 118.2550220  88.4611350  80.9089180 115.4602980  93.5278810  77.3921260
 115.2343900  93.3115980  78.2967880 114.6795510  93.9607270  77.0467230
 122.6900740  93.5342180  75.9911910 122.0909630  94.2577980  75.8075530
 123.2380350  93.4718960  75.2088360 117.9002190  94.4264390  88.0581530
 117.8045790  93.4859120  87.9081930 118.7434170  94.6479460  87.6629600
 121.2965610  92.1705720  78.0215190 121.6895180  92.4877920  77.2083880
 121.6582460  91.2917600  78.1359710 113.0312730  90.8378060  86.2115310
 112.6376120  91.6853270  86.4188090 112.3431130  90.2004430  86.4023950
 119.6057780  90.9213030  89.2812050 118.9156100  90.7285230  89.9158140
 120.3490080  91.2047670  89.8136350 110.3329780  88.7606520  80.2445390
 110.0442830  89.3309380  80.9570370 111.0775540  88.2810970  80.6076620
 110.5200010  92.7026640  71.4548110 110.4374680  93.6457400  71.5963100
 110.1683070  92.5601550  70.5760460 121.8820750  94.7611470  82.1165970
 121.1501870  95.2698280  82.4656070 121.4845090  93.9441450  81.8154750
 118.3198140  91.4365670  80.5218460 118.3234200  90.9955620  79.6723000
 119.2149260  91.7583000  80.6290280 114.1700520  91.3192160  79.4812670
 113.8300570  91.7967390  80.2379720 113.4077840  90.8657280  79.1213770
 118.3818290  92.4377750  73.5125220 118.5031110  92.3964230  74.4611040
 117.9966800  93.3001900  73.3571950 122.3446660  90.2145150  81.5288910
 122.3619400  90.6653800  82.3730760 122.0962240  89.3150790  81.7422350
 117.3939790  94.7478890  72.9108520 116.8256690  94.2997140  72.2844430
 118.1028790  95.1071670  72.3773670 112.4708970  98.6490910  86.7875250
 112.0863760  98.0084580  87.3858210 112.7821160  99.3527030  87.3569980
 118.6206110  95.4967450  82.2683870 118.9876240  95.0226020  83.0145210
 118.4311170  96.3709020  82.6092210 111.4846600  90.2411140  78.3977340
 111.1993520  89.8766810  79.2355960 111.4225460  89.5091600  77.7840480
 116.4105480  94.5376090  84.5868080 116.1062550  95.4168070  84.8118440
 117.3651940  94.5975880  84.6225520 114.9387270  98.7437080  75.1834930
 114.1649530  98.2034700  75.0233650 115.6681900  98.2243690  74.8452690
 121.1585190  89.1340400  75.1190710 120.3449800  88.6353570  75.0436020
 120.9647140  89.9738650  74.7027060 121.0794050  97.8111500  86.8630320
 121.0131360  96.8907170  86.6087910 120.4499190  97.9086940  87.5774960
 123.8733580  93.5060050  73.4152870 124.7613200  93.8177280  73.2404210
 123.8438670  92.6332300  73.0233450 114.9824670  98.4117460  78.8213740
 115.5003340  97.6085720  78.7670630 114.5308690  98.3496600  79.6630570
 119.8694170  99.6783740  74.0941040 120.2109870 100.4225970  73.5984360
 119.0406880  99.9914860  74.4565870 112.4669210  95.3778830  85.7339440
 112.1084150  96.0432680  86.3212780 112.1723770  94.5462380  86.1052060
 115.6682330  95.8363070  88.6178990 115.3682470  95.9820250  87.7206810
 116.4393570  95.2768360  88.5252380 121.0110780 100.6332070  86.6134120
 121.0255320  99.7013030  86.3953030 120.3035880 100.7191830  87.2523890
 122.7521580  98.9999580  79.4586550 123.1045400  98.4027710  78.7987920
 121.8683910  98.6743810  79.6294800 118.8384860  99.7597270  76.8656960
 119.5255990 100.3066480  77.2464550 118.0517280 100.3038000  76.9006570
 110.9777260  95.3770090  72.3574040 111.8472110  95.6594890  72.6409960
 110.4867580  96.1905960  72.2422850 118.1412070  96.7643300  76.4782320
 118.5974850  97.5748550  76.7042510 117.7900280  96.4466440  77.3100810
 120.4444680 102.2749640  83.7074620 121.0886900 102.4809020  84.3848040
 120.8074120 101.5138040  83.2545470 114.0423850  87.1080950  76.9504840
 113.9138480  87.0998850  77.8989760 113.2185870  87.4464040  76.5995850
 121.7176760 100.2781990  82.4252070 122.3598990  99.5775150  82.5384240
 122.2426110 101.0580430  82.2448960 123.4914380 101.0776890  85.6288130
 123.8270620 101.6643580  86.3066050 122.5714720 100.9469600  85.8585920
 111.3448510 104.5897470  72.9235670 111.7046150 105.1886810  72.2692940
 111.2040850 105.1357360  73.6970700 111.0417780  88.8672070  86.4111540
 110.3276300  89.0668990  87.0164150 111.4612820  88.0911640  86.7826340
 111.3290370 102.8552330  87.3978070 111.4381490 101.9147070  87.2573460
 110.6770930 103.1207080  86.7491800 119.3202960 101.1268220  88.7976190
 118.9999830 100.4077460  89.3421880 118.6461320 101.8023290  88.8712250
 117.3617130 101.9728670  73.7409340 117.3527230 102.7058360  73.1253850
 116.4415490 101.7260250  73.8336300 112.9623770  97.1943560  74.4856100
 112.3551720  97.9342460  74.4951400 113.4373120  97.2842920  73.6594300
 122.5356560  91.3594380  84.1612990 122.9037380  90.5389590  84.4892560
 121.6754760  91.4196270  84.5768640 120.3476730 102.0356910  72.4034530
 120.4488710 101.8320900  71.4736510 119.4478470 101.7815190  72.6082310
 117.8702620  92.5937270  76.3858430 117.1618770  93.0623610  76.8272040
 118.1547100  91.9359280  77.0203620 119.4958550  94.0133970  84.3850960
 119.9943800  94.4879790  85.0502810 119.6381500  93.0897490  84.5920990
 121.9018050  89.3187930  77.8254220 121.7785830  89.3374060  76.8763730
 122.8502610  89.3666870  77.9452620 118.9894840 104.5543230  77.0982200
 119.2436340 104.5164620  76.1761570 118.0407320 104.4276560  77.0910450
 116.0737640  90.9022350  73.7609140 116.9228170  91.3392500  73.6949330
 115.7068910  91.2142610  74.5881200 124.9947420  95.4735110  78.6740710
 124.0537560  95.4885340  78.8488400 125.3091490  94.6871070  79.1201010
 114.9729060  97.1554710  72.2344670 115.7392330  97.0436070  72.7970100
 115.0503750  96.4592680  71.5821440 113.6675820  94.5879780  72.9177560
 113.7479410  93.6407290  73.0294960 114.5595570  94.9186660  73.0238220
 114.4690530 104.7375170  80.0212100 115.2053010 104.1890630  80.2920670
 114.8531450 105.6031180  79.8818090 111.3536010 100.8048740  75.8953610
 110.4275790 101.0469880  75.8859020 111.8192440 101.6323000  75.7738360
 113.4748810 103.9221240  89.2097680 114.2761540 104.2433290  89.6233080
 112.9600630 103.5616820  89.9317590 117.5792840 103.9105480  71.8437670
 118.3721450 104.1994310  71.3919460 117.0597190 103.4797650  71.1650150
 122.3113440 100.0301110  89.1573090 121.7051600 100.0532710  88.4168840
 122.0067550  99.2984150  89.6940340 123.7413810 103.7581400  87.7682500
 124.6935560 103.6739420  87.7182740 123.5942030 104.4223110  88.4416290
 111.1946620  96.4094700  88.1533730 111.6985640  95.8301980  88.7249960
 110.4554040  96.6934930  88.6910100 118.0970240  99.1308890  71.7080020
 117.9920880  98.5161240  72.4341400 117.9294460  98.6074780  70.9243030
 118.2484560  97.8165690  87.6869250 117.4830230  98.3850690  87.6023920
 118.4300520  97.5241900  86.7937480 121.3372970  98.1928920  72.3122010
 120.7883070  98.6398220  72.9564750 121.9592230  97.6878170  72.8359680
 113.2269700  94.5524290  89.0483800 113.2675040  94.2538160  89.9569030
 114.0815200  94.9531900  88.8891320 117.0048090  97.1519840  74.2087310
 117.4264510  96.9859710  75.0518700 117.1298930  96.3420070  73.7142450
 115.1675510  93.1316390  87.0158290 114.6371970  92.6407340  86.3881630
 115.8363580  93.5600590  86.4816220 119.5175730  96.1757450  71.4564410
 120.0381390  95.4606470  71.0905560 120.1644130  96.8143320  71.7564920
 124.0653570  97.5985850  86.7799480 124.4794590  97.7530930  87.6289900
 123.1304570  97.7241070  86.9425260 124.5375740  94.9382010  88.7838630
 125.1196510  94.1834330  88.6959110 124.7137510  95.4689450  88.0070110
 115.6547810  90.0978760  87.0955580 115.5604680  89.4799510  86.3706450
 115.0745200  90.8245050  86.8685490 118.4209250  88.6552000  84.1282970
 117.9726550  88.6776260  83.2828520 117.7874450  88.2571020  84.7253270
 118.8268800  97.5506330  84.7495410 119.2456910  98.3939060  84.5771650
 117.9077430  97.6878370  84.5202190 121.1632700  95.2822510  86.1333250
 121.2828910  94.6863650  86.8728090 122.0226700  95.3192200  85.7134550
 123.5020600  95.8359700  84.7095760 122.9755820  96.3602320  84.1060900
 123.8451940  96.4687090  85.3405490 115.9006990  93.2253070  71.1545470
 115.6996050  92.3620430  71.5158810 115.7299040  93.1386430  70.2167070
 116.6776220 103.8559340  85.8653140 116.1397310 104.5805400  85.5461840
 116.9310180 103.3789680  85.0750480 117.9301470  91.8243860  87.3909070
 118.5201160  91.5159710  88.0786890 117.1121710  91.3523610  87.5468970
 122.7494900  91.4409670  87.6242090 122.0610420  90.7791210  87.5592080
 123.4700920  90.9947940  88.0690550 123.3795300  88.0361300  73.6832350
 123.6597590  87.1929200  74.0391770 122.6061030  88.2684410  74.1971100
 114.6989790  90.3253690  71.1423350 115.0015690  90.3321120  70.2342500
 115.4384380  89.9751550  71.6391010 119.5338430 105.0910550  86.1239790
 119.4597130 105.9945690  86.4312160 118.6317270 104.7722450  86.0961860
 117.9174720  89.2688310  72.1279550 117.5696720  88.5912300  71.5482000
 118.1187490  88.8077820  72.9422940 120.0823760 104.2569060  73.7466150
 120.9774550 104.5954030  73.7684910 120.1141390 103.5348470  73.1190430
 113.7219920  99.6296110  71.9753150 114.1594790 100.1725780  72.6310730
 114.2067650  98.8043060  71.9849490 110.9365720 102.4185140  79.4273410
 111.2668730 101.5506200  79.1952050 111.3656720 102.6243660  80.2578370
 115.5327640 100.7494150  77.0875380 115.2323180 100.6259120  77.9879290
 115.4265130  99.8902740  76.6791110 111.4255930 103.2855730  82.1655040
 110.9886920 103.4656530  82.9979190 111.9933610 104.0430350  82.0236760
 111.2580360  95.7975960  78.5243920 110.6029200  95.5287600  77.8803620
 112.0958310  95.6880440  78.0745900 124.2070800  90.5917250  72.7462410
 124.6255680  90.4048230  71.9059070 123.9006860  89.7396300  73.0565340
 112.2956290  96.1828530  83.0647260 112.6629330  96.0955930  83.9443280
 111.7267110  95.4195080  82.9654120 111.8472290  93.0937620  86.9705680
 110.9528340  93.0604380  87.3099390 112.3869840  93.2924410  87.7356930
 110.4718440  93.0074890  74.4669250 109.5682520  93.2705090  74.2920910
 110.9559060  93.2786060  73.6869210 113.0145650  92.0640430  72.3763630
 113.7237350  91.6423650  71.8910910 112.2985590  92.1315660  71.7446980
 112.6619810  88.1179760  71.4166280 113.3847940  88.6588700  71.7347500
 112.9344330  87.8443180  70.5407820 112.3512000  87.3685950  81.3188900
 112.9988190  86.8183330  80.8784060 112.7713840  87.6229100  82.1404710
 112.1044000  87.5241620  84.0614220 111.7558820  87.9805440  84.8272400
 111.7731700  86.6298750  84.1436650 113.7108370 100.6961220  88.2267410
 113.6678000 100.3254130  89.1081870 113.8419380 101.6338790  88.3669230
 117.4114400 102.2520810  83.8277130 117.1705760 102.5195370  82.9407650
 118.3517040 102.4226540  83.8827990 119.6168820  88.7153500  87.5833640
 119.5557710  89.3075330  88.3329050 120.5569200  88.6079460  87.4383900
 122.2543380  88.3723560  87.2225930 122.8683790  88.6902850  86.5607010
 122.7992940  87.8872150  87.8421790 112.7764640  87.0517820  87.3364990
 113.3247630  86.8705870  86.5731100 112.8419950  86.2611930  87.8721300
 113.5496400 103.6423470  85.3465190 112.9556720 103.5108170  86.0855230
 113.5420240 102.8061610  84.8807290 122.9951420  86.9355700  83.5495220
 122.1211260  87.2690810  83.3468150 122.8862170  86.4628880  84.3747090
 123.9023400  89.1426570  84.9336940 123.5736760  88.3278330  84.5538670
 124.8505700  89.0996380  84.8102630 113.1808630 101.0081850  84.2973230
 112.4542690 100.3887140  84.2299180 113.2417780 101.4022460  83.4271310
 116.7853730 103.2226850  81.0822640 117.3018750 102.6114210  80.5570900
 117.4351110 103.7255630  81.5733650 119.5249230 104.1135340  81.9091620
 119.8127040 103.8589640  81.0324630 120.0372450 103.5612700  82.4997190
 120.7426240  87.8525540  82.4888130 119.9598030  88.3271040  82.7684890
 120.4489170  86.9480370  82.3801310 111.4638630 104.3256240  77.5069990
 111.2960670 103.6926920  78.2051880 110.5973140 104.5315640  77.1564180
 112.0866650  88.1573020  75.0101850 112.8446010  88.2701900  74.4365880
 111.6243820  88.9942220  74.9645280 118.6280460  90.2712290  78.0004160
 117.8154970  89.8969180  77.6600040 119.1322100  89.5157370  78.3025350
 123.1305440  86.9354740  79.2387230 123.7334810  87.5074950  79.7135750
 122.3898430  87.4994180  79.0161130 113.0701330 103.0189470  74.9520130
 112.5448950 103.3997500  74.2482090 112.9945910 103.6440240  75.6729840
 114.4591800  88.6837070  73.5503820 114.9884560  87.8966870  73.4211770
 115.0920120  89.3628260  73.7839350 116.6529640  88.4212210  76.6049210
 116.0232380  87.7199520  76.7719340 116.1134780  89.1816340  76.3882370
 119.5921590 105.0351440  89.2759820 120.5188900 104.7995710  89.3195780
 119.5772020 105.8623440  88.7945850 116.7785200  87.6996190  89.0401700
 116.4969470  88.2029790  88.2762520 117.1604900  86.9017940  88.6743830
 115.6694300 104.9671850  73.8269380 116.4013120 104.6831130  73.2793270
 115.9287970 104.7285130  74.7168760 114.8309090 101.0836580  73.8315710
 114.2017970 101.5521680  74.3801540 114.9456920 100.2385800  74.2661900
 123.3800660  87.1149770  89.6182170 123.2666110  87.4344380  90.5133690
 124.1970400  87.5162280  89.3219450 122.2858810  95.1342240  59.9816910
 122.2052860  94.2196850  59.7108620 121.8723230  95.6309310  59.2756620
 120.4176850  96.9121260  61.8626180 119.6418950  96.4321700  62.1524750
 121.0689780  96.2326910  61.6882340 114.4342680  97.2241070  62.7401940
 113.6027560  96.9689780  63.1398450 115.0423660  97.2951840  63.4759860
 124.4384280 101.3181450  60.6425310 123.9765810 100.5468690  60.9712480
 125.2509830 101.3447520  61.1477760 114.4143940 101.2581160  62.9359960
 114.7171980 100.3678900  62.7570180 115.1587530 101.8151380  62.7082210
 112.8434630  92.1842960  56.5244330 111.9551330  92.5258930  56.4224210
 113.1275820  91.9843280  55.6325160 110.8067640  94.7848610  62.4084030
 111.3783750  94.0170810  62.4087670 110.8069180  95.0837370  61.4990640
 120.6647590 103.6039460  60.2629300 120.0459030 104.0596960  59.6923740
 121.5199370 103.7590920  59.8619000 119.8585840  99.5878450  61.8696340
 119.7894120  98.6468390  61.7085470 120.6205700  99.6779860  62.4418910
 112.0492510  90.1932970  64.1952960 111.8695350  89.2958720  64.4755720
 111.6472590  90.7404840  64.8699910 120.8891010  92.3948830  62.0965270
 121.2655830  91.5220710  61.9838940 120.7910520  92.7307530  61.2055710
 115.0196020  90.7674460  57.5582710 115.1262770  91.6678190  57.8651470
 114.1088380  90.7192430  57.2677360 112.6679180  92.6893470  62.8035300
 113.3489290  92.9531840  63.4222700 112.3527230  91.8494340  63.1373310
 116.8603750  93.7360830  61.8907890 117.3681970  94.2341800  62.5312910
 117.3916990  92.9596030  61.7147250 115.1439850  88.3759390  66.1571310
 115.1458290  88.8931780  65.3517210 114.3144160  87.8989570  66.1341240
 121.5310940  98.4878700  57.6561210 120.9128210  98.9528150  57.0923930
 122.0434190  99.1806180  58.0730720 116.3942700  98.0154570  64.3344810
 116.0612080  98.6423490  64.9765880 116.5709380  98.5416450  63.5546480
 124.9076610  91.8299650  61.8021150 124.2032180  92.1184540  62.3824260
 125.2688770  92.6399760  61.4420710 114.8255180  90.0869350  64.1641760
 115.1671990  90.9311400  63.8695630 113.8870990  90.2353090  64.2807100
 115.6061800  99.9835370  66.1493990 116.2235800 100.6586450  65.8678440
 114.7454920 100.3923350  66.0581490 110.8994140  99.1735230  55.0300840
 110.5222120  99.6622330  54.2985740 111.1567210  99.8460510  55.6607370
 118.5083070  87.5751620  60.4886350 118.8158050  87.0198510  59.7721850
 117.5783770  87.7096080  60.3059340 124.0598130 103.2918910  62.7793810
 124.0725290 102.8881200  61.9116070 123.5073350 104.0666200  62.6755240
 123.4583570  98.1948750  64.1076420 123.8752360  97.9808860  63.2729880
 124.1823390  98.4521540  64.6785040 120.8963830  95.6400450  57.2246470
 119.9693110  95.5737830  57.4534940 121.0488650  96.5780580  57.1101710
 120.8832910  91.9117450  54.2213630 119.9436580  92.0731410  54.3066090
 121.2016170  92.6303130  53.6749620 124.9261120  97.2020750  57.7281720
 124.3073540  96.8640300  57.0808020 124.9085570  96.5580510  58.4360910
 124.3687680  93.3805290  65.1447530 123.9558860  94.2059000  65.3987520
 123.6363630  92.7950330  64.9523890 116.5020470  96.1665190  60.0066200
 116.0977470  95.4542440  59.5112100 116.5883590  95.8218430  60.8954240
 116.9702170  99.8532750  62.1705410 116.6730460  99.2478220  61.4913190
 117.9201990  99.8910060  62.0594770 115.2149090  92.9408400  63.7865240
 115.7663680  93.0503740  63.0118490 115.7292600  93.3146000  64.5020470
 125.0587780 103.4264620  65.8328510 124.5818340 104.2336810  65.6401120
 124.3749570 102.7742950  65.9854720 116.0620600  99.5914440  68.8213210
 115.1649130  99.8154410  69.0686610 116.0873470  99.7149380  67.8724610
 123.1025820  96.4407560  54.7354470 123.5419100  95.6029990  54.5892290
 123.8154240  97.0736960  54.8218610 114.8891820  96.4627760  67.3970580
 114.7499590  97.3350560  67.7657980 114.0073180  96.1200570  67.2518520
 121.2121200 101.3803630  58.7035710 121.6517110 102.1227960  58.2891100
 121.1508090 101.6230200  59.6274670 116.6872170 102.4049460  69.6055730
 116.6587600 102.8092410  68.7384160 116.5237140 101.4759820  69.4427330
 113.2025100  95.0610170  57.5072850 113.0822700  95.7872260  56.8954120
 112.8925990  94.2913080  57.0300760 110.8410470  98.2325310  63.3141490
 110.9190890  98.3674080  62.3697210 111.4552150  97.5241200  63.5069610
 112.0858100  99.9325500  59.7247670 111.6786180 100.0740090  58.8701270
 112.9771110  99.6485660  59.5218880 121.9036980 104.0817410  66.6314720
 122.4181650 103.9925420  67.4337150 121.0606060 104.4277110  66.9242630
 123.8791380 104.3672750  56.0598720 123.7192520 104.0775690  56.9580550
 123.7138090 103.5912880  55.5243950 116.3579760 104.1471280  57.8370340
 116.1822240 103.2306820  57.6238140 115.5035500 104.5058570  58.0768140
 123.5817510 101.8760310  54.6196720 122.8882670 101.8737600  53.9599000
 124.3240370 101.4519630  54.1890890 123.1467440 103.5023020  58.6945210
 123.6024390 102.7212400  59.0083830 123.4859960 104.2129840  59.2386390
 110.8969990  99.2739480  65.8535950 111.0601030  98.8044840  65.0355320
 111.3622440  98.7663040  66.5184790 115.6688760  88.4045240  60.8896520
 115.2256910  89.1854780  60.5581040 116.2273750  88.7275130  61.5967460
 119.9558570  91.2713760  66.4931840 119.4937940  91.4796780  67.3051780
 119.5536680  90.4573110  66.1902510 124.9563080  92.4922710  67.6228500
 124.1056670  92.1928460  67.9437570 124.7964870  92.7364720  66.7112320
 122.0512790  93.9924460  69.7227290 122.3766200  93.1588210  69.3829520
 122.8393120  94.5152980  69.8705620 118.7847580  88.0255940  55.7702350
 118.1601760  88.0215810  56.4955660 118.6977700  87.1586900  55.3738320
 117.7064660  88.9492570  62.7486120 118.0036990  89.8555400  62.6678140
 118.2550220  88.4611350  62.1345690 115.4602980  93.5278810  58.6177770
 115.2343900  93.3115980  59.5224390 114.6795510  93.9607270  58.2723740
 122.6900740  93.5342180  57.2168420 122.0909630  94.2577980  57.0332040
 123.2380350  93.4718960  56.4344870 117.9002190  94.4264390  69.2838040
 117.8045790  93.4859120  69.1338440 118.7434170  94.6479460  68.8886110
 121.2965610  92.1705720  59.2471700 121.6895180  92.4877920  58.4340390
 121.6582460  91.2917600  59.3616220 113.0312730  90.8378060  67.4371820
 112.6376120  91.6853270  67.6444600 112.3431130  90.2004430  67.6280460
 119.6057780  90.9213030  70.5068560 118.9156100  90.7285230  71.1414650
 120.3490080  91.2047670  71.0392860 110.3329780  88.7606520  61.4701900
 110.0442830  89.3309380  62.1826880 111.0775540  88.2810970  61.8333130
 110.5200010  92.7026640  52.6804620 110.4374680  93.6457400  52.8219610
 110.1683070  92.5601550  51.8016970 121.8820750  94.7611470  63.3422480
 121.1501870  95.2698280  63.6912580 121.4845090  93.9441450  63.0411260
 118.3198140  91.4365670  61.7474970 118.3234200  90.9955620  60.8979510
 119.2149260  91.7583000  61.8546790 114.1700520  91.3192160  60.7069180
 113.8300570  91.7967390  61.4636230 113.4077840  90.8657280  60.3470280
 118.3818290  92.4377750  54.7381730 118.5031110  92.3964230  55.6867550
 117.9966800  93.3001900  54.5828460 122.3446660  90.2145150  62.7545420
 122.3619400  90.6653800  63.5987270 122.0962240  89.3150790  62.9678860
 117.3939790  94.7478890  54.1365030 116.8256690  94.2997140  53.5100940
 118.1028790  95.1071670  53.6030180 112.4708970  98.6490910  68.0131760
 112.0863760  98.0084580  68.6114720 112.7821160  99.3527030  68.5826490
 118.6206110  95.4967450  63.4940380 118.9876240  95.0226020  64.2401720
 118.4311170  96.3709020  63.8348720 111.4846600  90.2411140  59.6233850
 111.1993520  89.8766810  60.4612470 111.4225460  89.5091600  59.0096990
 116.4105480  94.5376090  65.8124590 116.1062550  95.4168070  66.0374950
 117.3651940  94.5975880  65.8482030 114.9387270  98.7437080  56.4091440
 114.1649530  98.2034700  56.2490160 115.6681900  98.2243690  56.0709200
 121.1585190  89.1340400  56.3447220 120.3449800  88.6353570  56.2692530
 120.9647140  89.9738650  55.9283570 121.0794050  97.8111500  68.0886830
 121.0131360  96.8907170  67.8344420 120.4499190  97.9086940  68.8031470
 123.8733580  93.5060050  54.6409380 124.7613200  93.8177280  54.4660720
 123.8438670  92.6332300  54.2489960 114.9824670  98.4117460  60.0470250
 115.5003340  97.6085720  59.9927140 114.5308690  98.3496600  60.8887080
 119.8694170  99.6783740  55.3197550 120.2109870 100.4225970  54.8240870
 119.0406880  99.9914860  55.6822380 112.4669210  95.3778830  66.9595950
 112.1084150  96.0432680  67.5469290 112.1723770  94.5462380  67.3308570
 115.6682330  95.8363070  69.8435500 115.3682470  95.9820250  68.9463320
 116.4393570  95.2768360  69.7508890 121.0110780 100.6332070  67.8390630
 121.0255320  99.7013030  67.6209540 120.3035880 100.7191830  68.4780400
 122.7521580  98.9999580  60.6843060 123.1045400  98.4027710  60.0244430
 121.8683910  98.6743810  60.8551310 118.8384860  99.7597270  58.0913470
 119.5255990 100.3066480  58.4721060 118.0517280 100.3038000  58.1263080
 110.9777260  95.3770090  53.5830550 111.8472110  95.6594890  53.8666470
 110.4867580  96.1905960  53.4679360 118.1412070  96.7643300  57.7038830
 118.5974850  97.5748550  57.9299020 117.7900280  96.4466440  58.5357320
 120.4444680 102.2749640  64.9331130 121.0886900 102.4809020  65.6104550
 120.8074120 101.5138040  64.4801980 114.0423850  87.1080950  58.1761350
 113.9138480  87.0998850  59.1246270 113.2185870  87.4464040  57.8252360
 121.7176760 100.2781990  63.6508580 122.3598990  99.5775150  63.7640750
 122.2426110 101.0580430  63.4705470 123.4914380 101.0776890  66.8544640
 123.8270620 101.6643580  67.5322560 122.5714720 100.9469600  67.0842430
 111.3448510 104.5897470  54.1492180 111.7046150 105.1886810  53.4949450
 111.2040850 105.1357360  54.9227210 111.0417780  88.8672070  67.6368050
 110.3276300  89.0668990  68.2420660 111.4612820  88.0911640  68.0082850
 111.3290370 102.8552330  68.6234580 111.4381490 101.9147070  68.4829970
 110.6770930 103.1207080  67.9748310 119.3202960 101.1268220  70.0232700
 118.9999830 100.4077460  70.5678390 118.6461320 101.8023290  70.0968760
 117.3617130 101.9728670  54.9665850 117.3527230 102.7058360  54.3510360
 116.4415490 101.7260250  55.0592810 112.9623770  97.1943560  55.7112610
 112.3551720  97.9342460  55.7207910 113.4373120  97.2842920  54.8850810
 122.5356560  91.3594380  65.3869500 122.9037380  90.5389590  65.7149070
 121.6754760  91.4196270  65.8025150 120.3476730 102.0356910  53.6291040
 120.4488710 101.8320900  52.6993020 119.4478470 101.7815190  53.8338820
 117.8702620  92.5937270  57.6114940 117.1618770  93.0623610  58.0528550
 118.1547100  91.9359280  58.2460130 119.4958550  94.0133970  65.6107470
 119.9943800  94.4879790  66.2759320 119.6381500  93.0897490  65.8177500
 121.9018050  89.3187930  59.0510730 121.7785830  89.3374060  58.1020240
 122.8502610  89.3666870  59.1709130 118.9894840 104.5543230  58.3238710
 119.2436340 104.5164620  57.4018080 118.0407320 104.4276560  58.3166960
 116.0737640  90.9022350  54.9865650 116.9228170  91.3392500  54.9205840
 115.7068910  91.2142610  55.8137710 124.9947420  95.4735110  59.8997220
 124.0537560  95.4885340  60.0744910 125.3091490  94.6871070  60.3457520
 114.9729060  97.1554710  53.4601180 115.7392330  97.0436070  54.0226610
 115.0503750  96.4592680  52.8077950 113.6675820  94.5879780  54.1434070
 113.7479410  93.6407290  54.2551470 114.5595570  94.9186660  54.2494730
 114.4690530 104.7375170  61.2468610 115.2053010 104.1890630  61.5177180
 114.8531450 105.6031180  61.1074600 111.3536010 100.8048740  57.1210120
 110.4275790 101.0469880  57.1115530 111.8192440 101.6323000  56.9994870
 113.4748810 103.9221240  70.4354190 114.2761540 104.2433290  70.8489590
 112.9600630 103.5616820  71.1574100 117.5792840 103.9105480  53.0694180
 118.3721450 104.1994310  52.6175970 117.0597190 103.4797650  52.3906660
 122.3113440 100.0301110  70.3829600 121.7051600 100.0532710  69.6425350
 122.0067550  99.2984150  70.9196850 123.7413810 103.7581400  68.9939010
 124.6935560 103.6739420  68.9439250 123.5942030 104.4223110  69.6672800
 111.1946620  96.4094700  69.3790240 111.6985640  95.8301980  69.9506470
 110.4554040  96.6934930  69.9166610 118.0970240  99.1308890  52.9336530
 117.9920880  98.5161240  53.6597910 117.9294460  98.6074780  52.1499540
 118.2484560  97.8165690  68.9125760 117.4830230  98.3850690  68.8280430
 118.4300520  97.5241900  68.0193990 121.3372970  98.1928920  53.5378520
 120.7883070  98.6398220  54.1821260 121.9592230  97.6878170  54.0616190
 113.2269700  94.5524290  70.2740310 113.2675040  94.2538160  71.1825540
 114.0815200  94.9531900  70.1147830 117.0048090  97.1519840  55.4343820
 117.4264510  96.9859710  56.2775210 117.1298930  96.3420070  54.9398960
 115.1675510  93.1316390  68.2414800 114.6371970  92.6407340  67.6138140
 115.8363580  93.5600590  67.7072730 119.5175730  96.1757450  52.6820920
 120.0381390  95.4606470  52.3162070 120.1644130  96.8143320  52.9821430
 124.0653570  97.5985850  68.0055990 124.4794590  97.7530930  68.8546410
 123.1304570  97.7241070  68.1681770 124.5375740  94.9382010  70.0095140
 125.1196510  94.1834330  69.9215620 124.7137510  95.4689450  69.2326620
 115.6547810  90.0978760  68.3212090 115.5604680  89.4799510  67.5962960
 115.0745200  90.8245050  68.0942000 118.4209250  88.6552000  65.3539480
 117.9726550  88.6776260  64.5085030 117.7874450  88.2571020  65.9509780
 118.8268800  97.5506330  65.9751920 119.2456910  98.3939060  65.8028160
 117.9077430  97.6878370  65.7458700 121.1632700  95.2822510  67.3589760
 121.2828910  94.6863650  68.0984600 122.0226700  95.3192200  66.9391060
 123.5020600  95.8359700  65.9352270 122.9755820  96.3602320  65.3317410
 123.8451940  96.4687090  66.5662000 115.9006990  93.2253070  52.3801980
 115.6996050  92.3620430  52.7415320 115.7299040  93.1386430  51.4423580
 116.6776220 103.8559340  67.0909650 116.1397310 104.5805400  66.7718350
 116.9310180 103.3789680  66.3006990 117.9301470  91.8243860  68.6165580
 118.5201160  91.5159710  69.3043400 117.1121710  91.3523610  68.7725480
 122.7494900  91.4409670  68.8498600 122.0610420  90.7791210  68.7848590
 123.4700920  90.9947940  69.2947060 123.3795300  88.0361300  54.9088860
 123.6597590  87.1929200  55.2648280 122.6061030  88.2684410  55.4227610
 114.6989790  90.3253690  52.3679860 115.0015690  90.3321120  51.4599010
 115.4384380  89.9751550  52.8647520 119.5338430 105.0910550  67.3496300
 119.4597130 105.9945690  67.6568670 118.6317270 104.7722450  67.3218370
 117.9174720  89.2688310  53.3536060 117.5696720  88.5912300  52.7738510
 118.1187490  88.8077820  54.1679450 120.0823760 104.2569060  54.9722660
 120.9774550 104.5954030  54.9941420 120.1141390 103.5348470  54.3446940
 113.7219920  99.6296110  53.2009660 114.1594790 100.1725780  53.8567240
 114.2067650  98.8043060  53.2106000 110.9365720 102.4185140  60.6529920
 111.2668730 101.5506200  60.4208560 111.3656720 102.6243660  61.4834880
 115.5327640 100.7494150  58.3131890 115.2323180 100.6259120  59.2135800
 115.4265130  99.8902740  57.9047620 111.4255930 103.2855730  63.3911550
 110.9886920 103.4656530  64.2235700 111.9933610 104.0430350  63.2493270
 111.2580360  95.7975960  59.7500430 110.6029200  95.5287600  59.1060130
 112.0958310  95.6880440  59.3002410 124.2070800  90.5917250  53.9718920
 124.6255680  90.4048230  53.1315580 123.9006860  89.7396300  54.2821850
 112.2956290  96.1828530  64.2903770 112.6629330  96.0955930  65.1699790
 111.7267110  95.4195080  64.1910630 111.8472290  93.0937620  68.1962190
 110.9528340  93.0604380  68.5355900 112.3869840  93.2924410  68.9613440
 110.4718440  93.0074890  55.6925760 109.5682520  93.2705090  55.5177420
 110.9559060  93.2786060  54.9125720 113.0145650  92.0640430  53.6020140
 113.7237350  91.6423650  53.1167420 112.2985590  92.1315660  52.9703490
 112.6619810  88.1179760  52.6422790 113.3847940  88.6588700  52.9604010
 112.9344330  87.8443180  51.7664330 112.3512000  87.3685950  62.5445410
 112.9988190  86.8183330  62.1040570 112.7713840  87.6229100  63.3661220
 112.1044000  87.5241620  65.2870730 111.7558820  87.9805440  66.0528910
 111.7731700  86.6298750  65.3693160 113.7108370 100.6961220  69.4523920
 113.6678000 100.3254130  70.3338380 113.8419380 101.6338790  69.5925740
 117.4114400 102.2520810  65.0533640 117.1705760 102.5195370  64.1664160
 118.3517040 102.4226540  65.1084500 119.6168820  88.7153500  68.8090150
 119.5557710  89.3075330  69.5585560 120.5569200  88.6079460  68.6640410
 122.2543380  88.3723560  68.4482440 122.8683790  88.6902850  67.7863520
 122.7992940  87.8872150  69.0678300 112.7764640  87.0517820  68.5621500
 113.3247630  86.8705870  67.7987610 112.8419950  86.2611930  69.0977810
 113.5496400 103.6423470  66.5721700 112.9556720 103.5108170  67.3111740
 113.5420240 102.8061610  66.1063800 122.9951420  86.9355700  64.7751730
 122.1211260  87.2690810  64.5724660 122.8862170  86.4628880  65.6003600
 123.9023400  89.1426570  66.1593450 123.5736760  88.3278330  65.7795180
 124.8505700  89.0996380  66.0359140 113.1808630 101.0081850  65.5229740
 112.4542690 100.3887140  65.4555690 113.2417780 101.4022460  64.6527820
 116.7853730 103.2226850  62.3079150 117.3018750 102.6114210  61.7827410
 117.4351110 103.7255630  62.7990160 119.5249230 104.1135340  63.1348130
 119.8127040 103.8589640  62.2581140 120.0372450 103.5612700  63.7253700
 120.7426240  87.8525540  63.7144640 119.9598030  88.3271040  63.9941400
 120.4489170  86.9480370  63.6057820 111.4638630 104.3256240  58.7326500
 111.2960670 103.6926920  59.4308390 110.5973140 104.5315640  58.3820690
 112.0866650  88.1573020  56.2358360 112.8446010  88.2701900  55.6622390
 111.6243820  88.9942220  56.1901790 118.6280460  90.2712290  59.2260670
 117.8154970  89.8969180  58.8856550 119.1322100  89.5157370  59.5281860
 123.1305440  86.9354740  60.4643740 123.7334810  87.5074950  60.9392260
 122.3898430  87.4994180  60.2417640 113.0701330 103.0189470  56.1776640
 112.5448950 103.3997500  55.4738600 112.9945910 103.6440240  56.8986350
 114.4591800  88.6837070  54.7760330 114.9884560  87.8966870  54.6468280
 115.0920120  89.3628260  55.0095860 116.6529640  88.4212210  57.8305720
 116.0232380  87.7199520  57.9975850 116.1134780  89.1816340  57.6138880
 119.5921590 105.0351440  70.5016330 120.5188900 104.7995710  70.5452290
 119.5772020 105.8623440  70.0202360 116.7785200  87.6996190  70.2658210
 116.4969470  88.2029790  69.5019030 117.1604900  86.9017940  69.9000340
 115.6694300 104.9671850  55.0525890 116.4013120 104.6831130  54.5049780
 115.9287970 104.7285130  55.9425270 114.8309090 101.0836580  55.0572220
 114.2017970 101.5521680  55.6058050 114.9456920 100.2385800  55.4918410
 123.3800660  87.1149770  70.8438680 123.2666110  87.4344380  71.7390200
 124.1970400  87.5162280  70.5475960 122.2858810  95.1342240  41.2073420
 122.2052860  94.2196850  40.9365130 121.8723230  95.6309310  40.5013130
 120.4176850  96.9121260  43.0882690 119.6418950  96.4321700  43.3781260
 121.0689780  96.2326910  42.9138850 114.4342680  97.2241070  43.9658450
 113.6027560  96.9689780  44.3654960 115.0423660  97.2951840  44.7016370
 124.4384280 101.3181450  41.8681820 123.9765810 100.5468690  42.1968990
 125.2509830 101.3447520  42.3734270 114.4143940 101.2581160  44.1616470
 114.7171980 100.3678900  43.9826690 115.1587530 101.8151380  43.9338720
 112.8434630  92.1842960  37.7500840 111.9551330  92.5258930  37.6480720
 113.1275820  91.9843280  36.8581670 110.8067640  94.7848610  43.6340540
 111.3783750  94.0170810  43.6344180 110.8069180  95.0837370  42.7247150
 120.6647590 103.6039460  41.4885810 120.0459030 104.0596960  40.9180250
 121.5199370 103.7590920  41.0875510 119.8585840  99.5878450  43.0952850
 119.7894120  98.6468390  42.9341980 120.6205700  99.6779860  43.6675420
 112.0492510  90.1932970  45.4209470 111.8695350  89.2958720  45.7012230
 111.6472590  90.7404840  46.0956420 120.8891010  92.3948830  43.3221780
 121.2655830  91.5220710  43.2095450 120.7910520  92.7307530  42.4312220
 115.0196020  90.7674460  38.7839220 115.1262770  91.6678190  39.0907980
 114.1088380  90.7192430  38.4933870 112.6679180  92.6893470  44.0291810
 113.3489290  92.9531840  44.6479210 112.3527230  91.8494340  44.3629820
 116.8603750  93.7360830  43.1164400 117.3681970  94.2341800  43.7569420
 117.3916990  92.9596030  42.9403760 115.1439850  88.3759390  47.3827820
 115.1458290  88.8931780  46.5773720 114.3144160  87.8989570  47.3597750
 121.5310940  98.4878700  38.8817720 120.9128210  98.9528150  38.3180440
 122.0434190  99.1806180  39.2987230 116.3942700  98.0154570  45.5601320
 116.0612080  98.6423490  46.2022390 116.5709380  98.5416450  44.7802990
 124.9076610  91.8299650  43.0277660 124.2032180  92.1184540  43.6080770
 125.2688770  92.6399760  42.6677220 114.8255180  90.0869350  45.3898270
 115.1671990  90.9311400  45.0952140 113.8870990  90.2353090  45.5063610
 115.6061800  99.9835370  47.3750500 116.2235800 100.6586450  47.0934950
 114.7454920 100.3923350  47.2838000 110.8994140  99.1735230  36.2557350
 110.5222120  99.6622330  35.5242250 111.1567210  99.8460510  36.8863880
 118.5083070  87.5751620  41.7142860 118.8158050  87.0198510  40.9978360
 117.5783770  87.7096080  41.5315850 124.0598130 103.2918910  44.0050320
 124.0725290 102.8881200  43.1372580 123.5073350 104.0666200  43.9011750
 123.4583570  98.1948750  45.3332930 123.8752360  97.9808860  44.4986390
 124.1823390  98.4521540  45.9041550 120.8963830  95.6400450  38.4502980
 119.9693110  95.5737830  38.6791450 121.0488650  96.5780580  38.3358220
 120.8832910  91.9117450  35.4470140 119.9436580  92.0731410  35.5322600
 121.2016170  92.6303130  34.9006130 124.9261120  97.2020750  38.9538230
 124.3073540  96.8640300  38.3064530 124.9085570  96.5580510  39.6617420
 124.3687680  93.3805290  46.3704040 123.9558860  94.2059000  46.6244030
 123.6363630  92.7950330  46.1780400 116.5020470  96.1665190  41.2322710
 116.0977470  95.4542440  40.7368610 116.5883590  95.8218430  42.1210750
 116.9702170  99.8532750  43.3961920 116.6730460  99.2478220  42.7169700
 117.9201990  99.8910060  43.2851280 115.2149090  92.9408400  45.0121750
 115.7663680  93.0503740  44.2375000 115.7292600  93.3146000  45.7276980
 125.0587780 103.4264620  47.0585020 124.5818340 104.2336810  46.8657630
 124.3749570 102.7742950  47.2111230 116.0620600  99.5914440  50.0469720
 115.1649130  99.8154410  50.2943120 116.0873470  99.7149380  49.0981120
 123.1025820  96.4407560  35.9610980 123.5419100  95.6029990  35.8148800
 123.8154240  97.0736960  36.0475120 114.8891820  96.4627760  48.6227090
 114.7499590  97.3350560  48.9914490 114.0073180  96.1200570  48.4775030
 121.2121200 101.3803630  39.9292220 121.6517110 102.1227960  39.5147610
 121.1508090 101.6230200  40.8531180 116.6872170 102.4049460  50.8312240
 116.6587600 102.8092410  49.9640670 116.5237140 101.4759820  50.6683840
 113.2025100  95.0610170  38.7329360 113.0822700  95.7872260  38.1210630
 112.8925990  94.2913080  38.2557270 110.8410470  98.2325310  44.5398000
 110.9190890  98.3674080  43.5953720 111.4552150  97.5241200  44.7326120
 112.0858100  99.9325500  40.9504180 111.6786180 100.0740090  40.0957780
 112.9771110  99.6485660  40.7475390 121.9036980 104.0817410  47.8571230
 122.4181650 103.9925420  48.6593660 121.0606060 104.4277110  48.1499140
 123.8791380 104.3672750  37.2855230 123.7192520 104.0775690  38.1837060
 123.7138090 103.5912880  36.7500460 116.3579760 104.1471280  39.0626850
 116.1822240 103.2306820  38.8494650 115.5035500 104.5058570  39.3024650
 123.5817510 101.8760310  35.8453230 122.8882670 101.8737600  35.1855510
 124.3240370 101.4519630  35.4147400 123.1467440 103.5023020  39.9201720
 123.6024390 102.7212400  40.2340340 123.4859960 104.2129840  40.4642900
 110.8969990  99.2739480  47.0792460 111.0601030  98.8044840  46.2611830
 111.3622440  98.7663040  47.7441300 115.6688760  88.4045240  42.1153030
 115.2256910  89.1854780  41.7837550 116.2273750  88.7275130  42.8223970
 119.9558570  91.2713760  47.7188350 119.4937940  91.4796780  48.5308290
 119.5536680  90.4573110  47.4159020 124.9563080  92.4922710  48.8485010
 124.1056670  92.1928460  49.1694080 124.7964870  92.7364720  47.9368830
 122.0512790  93.9924460  50.9483800 122.3766200  93.1588210  50.6086030
 122.8393120  94.5152980  51.0962130 118.7847580  88.0255940  36.9958860
 118.1601760  88.0215810  37.7212170 118.6977700  87.1586900  36.5994830
 117.7064660  88.9492570  43.9742630 118.0036990  89.8555400  43.8934650
 118.2550220  88.4611350  43.3602200 115.4602980  93.5278810  39.8434280
 115.2343900  93.3115980  40.7480900 114.6795510  93.9607270  39.4980250
 122.6900740  93.5342180  38.4424930 122.0909630  94.2577980  38.2588550
 123.2380350  93.4718960  37.6601380 117.9002190  94.4264390  50.5094550
 117.8045790  93.4859120  50.3594950 118.7434170  94.6479460  50.1142620
 121.2965610  92.1705720  40.4728210 121.6895180  92.4877920  39.6596900
 121.6582460  91.2917600  40.5872730 113.0312730  90.8378060  48.6628330
 112.6376120  91.6853270  48.8701110 112.3431130  90.2004430  48.8536970
 119.6057780  90.9213030  51.7325070 118.9156100  90.7285230  52.3671160
 120.3490080  91.2047670  52.2649370 110.3329780  88.7606520  42.6958410
 110.0442830  89.3309380  43.4083390 111.0775540  88.2810970  43.0589640
 110.5200010  92.7026640  33.9061130 110.4374680  93.6457400  34.0476120
 110.1683070  92.5601550  33.0273480 121.8820750  94.7611470  44.5678990
 121.1501870  95.2698280  44.9169090 121.4845090  93.9441450  44.2667770
 118.3198140  91.4365670  42.9731480 118.3234200  90.9955620  42.1236020
 119.2149260  91.7583000  43.0803300 114.1700520  91.3192160  41.9325690
 113.8300570  91.7967390  42.6892740 113.4077840  90.8657280  41.5726790
 118.3818290  92.4377750  35.9638240 118.5031110  92.3964230  36.9124060
 117.9966800  93.3001900  35.8084970 122.3446660  90.2145150  43.9801930
 122.3619400  90.6653800  44.8243780 122.0962240  89.3150790  44.1935370
 117.3939790  94.7478890  35.3621540 116.8256690  94.2997140  34.7357450
 118.1028790  95.1071670  34.8286690 112.4708970  98.6490910  49.2388270
 112.0863760  98.0084580  49.8371230 112.7821160  99.3527030  49.8083000
 118.6206110  95.4967450  44.7196890 118.9876240  95.0226020  45.4658230
 118.4311170  96.3709020  45.0605230 111.4846600  90.2411140  40.8490360
 111.1993520  89.8766810  41.6868980 111.4225460  89.5091600  40.2353500
 116.4105480  94.5376090  47.0381100 116.1062550  95.4168070  47.2631460
 117.3651940  94.5975880  47.0738540 114.9387270  98.7437080  37.6347950
 114.1649530  98.2034700  37.4746670 115.6681900  98.2243690  37.2965710
 121.1585190  89.1340400  37.5703730 120.3449800  88.6353570  37.4949040
 120.9647140  89.9738650  37.1540080 121.0794050  97.8111500  49.3143340
 121.0131360  96.8907170  49.0600930 120.4499190  97.9086940  50.0287980
 123.8733580  93.5060050  35.8665890 124.7613200  93.8177280  35.6917230
 123.8438670  92.6332300  35.4746470 114.9824670  98.4117460  41.2726760
 115.5003340  97.6085720  41.2183650 114.5308690  98.3496600  42.1143590
 119.8694170  99.6783740  36.5454060 120.2109870 100.4225970  36.0497380
 119.0406880  99.9914860  36.9078890 112.4669210  95.3778830  48.1852460
 112.1084150  96.0432680  48.7725800 112.1723770  94.5462380  48.5565080
 115.6682330  95.8363070  51.0692010 115.3682470  95.9820250  50.1719830
 116.4393570  95.2768360  50.9765400 121.0110780 100.6332070  49.0647140
 121.0255320  99.7013030  48.8466050 120.3035880 100.7191830  49.7036910
 122.7521580  98.9999580  41.9099570 123.1045400  98.4027710  41.2500940
 121.8683910  98.6743810  42.0807820 118.8384860  99.7597270  39.3169980
 119.5255990 100.3066480  39.6977570 118.0517280 100.3038000  39.3519590
 110.9777260  95.3770090  34.8087060 111.8472110  95.6594890  35.0922980
 110.4867580  96.1905960  34.6935870 118.1412070  96.7643300  38.9295340
 118.5974850  97.5748550  39.1555530 117.7900280  96.4466440  39.7613830
 120.4444680 102.2749640  46.1587640 121.0886900 102.4809020  46.8361060
 120.8074120 101.5138040  45.7058490 114.0423850  87.1080950  39.4017860
 113.9138480  87.0998850  40.3502780 113.2185870  87.4464040  39.0508870
 121.7176760 100.2781990  44.8765090 122.3598990  99.5775150  44.9897260
 122.2426110 101.0580430  44.6961980 123.4914380 101.0776890  48.0801150
 123.8270620 101.6643580  48.7579070 122.5714720 100.9469600  48.3098940
 111.3448510 104.5897470  35.3748690 111.7046150 105.1886810  34.7205960
 111.2040850 105.1357360  36.1483720 111.0417780  88.8672070  48.8624560
 110.3276300  89.0668990  49.4677170 111.4612820  88.0911640  49.2339360
 111.3290370 102.8552330  49.8491090 111.4381490 101.9147070  49.7086480
 110.6770930 103.1207080  49.2004820 119.3202960 101.1268220  51.2489210
 118.9999830 100.4077460  51.7934900 118.6461320 101.8023290  51.3225270
 117.3617130 101.9728670  36.1922360 117.3527230 102.7058360  35.5766870
 116.4415490 101.7260250  36.2849320 112.9623770  97.1943560  36.9369120
 112.3551720  97.9342460  36.9464420 113.4373120  97.2842920  36.1107320
 122.5356560  91.3594380  46.6126010 122.9037380  90.5389590  46.9405580
 121.6754760  91.4196270  47.0281660 120.3476730 102.0356910  34.8547550
 120.4488710 101.8320900  33.9249530 119.4478470 101.7815190  35.0595330
 117.8702620  92.5937270  38.8371450 117.1618770  93.0623610  39.2785060
 118.1547100  91.9359280  39.4716640 119.4958550  94.0133970  46.8363980
 119.9943800  94.4879790  47.5015830 119.6381500  93.0897490  47.0434010
 121.9018050  89.3187930  40.2767240 121.7785830  89.3374060  39.3276750
 122.8502610  89.3666870  40.3965640 118.9894840 104.5543230  39.5495220
 119.2436340 104.5164620  38.6274590 118.0407320 104.4276560  39.5423470
 116.0737640  90.9022350  36.2122160 116.9228170  91.3392500  36.1462350
 115.7068910  91.2142610  37.0394220 124.9947420  95.4735110  41.1253730
 124.0537560  95.4885340  41.3001420 125.3091490  94.6871070  41.5714030
 114.9729060  97.1554710  34.6857690 115.7392330  97.0436070  35.2483120
 115.0503750  96.4592680  34.0334460 113.6675820  94.5879780  35.3690580
 113.7479410  93.6407290  35.4807980 114.5595570  94.9186660  35.4751240
 114.4690530 104.7375170  42.4725120 115.2053010 104.1890630  42.7433690
 114.8531450 105.6031180  42.3331110 111.3536010 100.8048740  38.3466630
 110.4275790 101.0469880  38.3372040 111.8192440 101.6323000  38.2251380
 113.4748810 103.9221240  51.6610700 114.2761540 104.2433290  52.0746100
 112.9600630 103.5616820  52.3830610 117.5792840 103.9105480  34.2950690
 118.3721450 104.1994310  33.8432480 117.0597190 103.4797650  33.6163170
 122.3113440 100.0301110  51.6086110 121.7051600 100.0532710  50.8681860
 122.0067550  99.2984150  52.1453360 123.7413810 103.7581400  50.2195520
 124.6935560 103.6739420  50.1695760 123.5942030 104.4223110  50.8929310
 111.1946620  96.4094700  50.6046750 111.6985640  95.8301980  51.1762980
 110.4554040  96.6934930  51.1423120 118.0970240  99.1308890  34.1593040
 117.9920880  98.5161240  34.8854420 117.9294460  98.6074780  33.3756050
 118.2484560  97.8165690  50.1382270 117.4830230  98.3850690  50.0536940
 118.4300520  97.5241900  49.2450500 121.3372970  98.1928920  34.7635030
 120.7883070  98.6398220  35.4077770 121.9592230  97.6878170  35.2872700
 113.2269700  94.5524290  51.4996820 113.2675040  94.2538160  52.4082050
 114.0815200  94.9531900  51.3404340 117.0048090  97.1519840  36.6600330
 117.4264510  96.9859710  37.5031720 117.1298930  96.3420070  36.1655470
 115.1675510  93.1316390  49.4671310 114.6371970  92.6407340  48.8394650
 115.8363580  93.5600590  48.9329240 119.5175730  96.1757450  33.9077430
 120.0381390  95.4606470  33.5418580 120.1644130  96.8143320  34.2077940
 124.0653570  97.5985850  49.2312500 124.4794590  97.7530930  50.0802920
 123.1304570  97.7241070  49.3938280 124.5375740  94.9382010  51.2351650
 125.1196510  94.1834330  51.1472130 124.7137510  95.4689450  50.4583130
 115.6547810  90.0978760  49.5468600 115.5604680  89.4799510  48.8219470
 115.0745200  90.8245050  49.3198510 118.4209250  88.6552000  46.5795990
 117.9726550  88.6776260  45.7341540 117.7874450  88.2571020  47.1766290
 118.8268800  97.5506330  47.2008430 119.2456910  98.3939060  47.0284670
 117.9077430  97.6878370  46.9715210 121.1632700  95.2822510  48.5846270
 121.2828910  94.6863650  49.3241110 122.0226700  95.3192200  48.1647570
 123.5020600  95.8359700  47.1608780 122.9755820  96.3602320  46.5573920
 123.8451940  96.4687090  47.7918510 115.9006990  93.2253070  33.6058490
 115.6996050  92.3620430  33.9671830 115.7299040  93.1386430  32.6680090
 116.6776220 103.8559340  48.3166160 116.1397310 104.5805400  47.9974860
 116.9310180 103.3789680  47.5263500 117.9301470  91.8243860  49.8422090
 118.5201160  91.5159710  50.5299910 117.1121710  91.3523610  49.9981990
 122.7494900  91.4409670  50.0755110 122.0610420  90.7791210  50.0105100
 123.4700920  90.9947940  50.5203570 123.3795300  88.0361300  36.1345370
 123.6597590  87.1929200  36.4904790 122.6061030  88.2684410  36.6484120
 114.6989790  90.3253690  33.5936370 115.0015690  90.3321120  32.6855520
 115.4384380  89.9751550  34.0904030 119.5338430 105.0910550  48.5752810
 119.4597130 105.9945690  48.8825180 118.6317270 104.7722450  48.5474880
 117.9174720  89.2688310  34.5792570 117.5696720  88.5912300  33.9995020
 118.1187490  88.8077820  35.3935960 120.0823760 104.2569060  36.1979170
 120.9774550 104.5954030  36.2197930 120.1141390 103.5348470  35.5703450
 113.7219920  99.6296110  34.4266170 114.1594790 100.1725780  35.0823750
 114.2067650  98.8043060  34.4362510 110.9365720 102.4185140  41.8786430
 111.2668730 101.5506200  41.6465070 111.3656720 102.6243660  42.7091390
 115.5327640 100.7494150  39.5388400 115.2323180 100.6259120  40.4392310
 115.4265130  99.8902740  39.1304130 111.4255930 103.2855730  44.6168060
 110.9886920 103.4656530  45.4492210 111.9933610 104.0430350  44.4749780
 111.2580360  95.7975960  40.9756940 110.6029200  95.5287600  40.3316640
 112.0958310  95.6880440  40.5258920 124.2070800  90.5917250  35.1975430
 124.6255680  90.4048230  34.3572090 123.9006860  89.7396300  35.5078360
 112.2956290  96.1828530  45.5160280 112.6629330  96.0955930  46.3956300
 111.7267110  95.4195080  45.4167140 111.8472290  93.0937620  49.4218700
 110.9528340  93.0604380  49.7612410 112.3869840  93.2924410  50.1869950
 110.4718440  93.0074890  36.9182270 109.5682520  93.2705090  36.7433930
 110.9559060  93.2786060  36.1382230 113.0145650  92.0640430  34.8276650
 113.7237350  91.6423650  34.3423930 112.2985590  92.1315660  34.1960000
 112.6619810  88.1179760  33.8679300 113.3847940  88.6588700  34.1860520
 112.9344330  87.8443180  32.9920840 112.3512000  87.3685950  43.7701920
 112.9988190  86.8183330  43.3297080 112.7713840  87.6229100  44.5917730
 112.1044000  87.5241620  46.5127240 111.7558820  87.9805440  47.2785420
 111.7731700  86.6298750  46.5949670 113.7108370 100.6961220  50.6780430
 113.6678000 100.3254130  51.5594890 113.8419380 101.6338790  50.8182250
 117.4114400 102.2520810  46.2790150 117.1705760 102.5195370  45.3920670
 118.3517040 102.4226540  46.3341010 119.6168820  88.7153500  50.0346660
 119.5557710  89.3075330  50.7842070 120.5569200  88.6079460  49.8896920
 122.2543380  88.3723560  49.6738950 122.8683790  88.6902850  49.0120030
 122.7992940  87.8872150  50.2934810 112.7764640  87.0517820  49.7878010
 113.3247630  86.8705870  49.0244120 112.8419950  86.2611930  50.3234320
 113.5496400 103.6423470  47.7978210 112.9556720 103.5108170  48.5368250
 113.5420240 102.8061610  47.3320310 122.9951420  86.9355700  46.0008240
 122.1211260  87.2690810  45.7981170 122.8862170  86.4628880  46.8260110
 123.9023400  89.1426570  47.3849960 123.5736760  88.3278330  47.0051690
 124.8505700  89.0996380  47.2615650 113.1808630 101.0081850  46.7486250
 112.4542690 100.3887140  46.6812200 113.2417780 101.4022460  45.8784330
 116.7853730 103.2226850  43.5335660 117.3018750 102.6114210  43.0083920
 117.4351110 103.7255630  44.0246670 119.5249230 104.1135340  44.3604640
 119.8127040 103.8589640  43.4837650 120.0372450 103.5612700  44.9510210
 120.7426240  87.8525540  44.9401150 119.9598030  88.3271040  45.2197910
 120.4489170  86.9480370  44.8314330 111.4638630 104.3256240  39.9583010
 111.2960670 103.6926920  40.6564900 110.5973140 104.5315640  39.6077200
 112.0866650  88.1573020  37.4614870 112.8446010  88.2701900  36.8878900
 111.6243820  88.9942220  37.4158300 118.6280460  90.2712290  40.4517180
 117.8154970  89.8969180  40.1113060 119.1322100  89.5157370  40.7538370
 123.1305440  86.9354740  41.6900250 123.7334810  87.5074950  42.1648770
 122.3898430  87.4994180  41.4674150 113.0701330 103.0189470  37.4033150
 112.5448950 103.3997500  36.6995110 112.9945910 103.6440240  38.1242860
 114.4591800  88.6837070  36.0016840 114.9884560  87.8966870  35.8724790
 115.0920120  89.3628260  36.2352370 116.6529640  88.4212210  39.0562230
 116.0232380  87.7199520  39.2232360 116.1134780  89.1816340  38.8395390
 119.5921590 105.0351440  51.7272840 120.5188900 104.7995710  51.7708800
 119.5772020 105.8623440  51.2458870 116.7785200  87.6996190  51.4914720
 116.4969470  88.2029790  50.7275540 117.1604900  86.9017940  51.1256850
 115.6694300 104.9671850  36.2782400 116.4013120 104.6831130  35.7306290
 115.9287970 104.7285130  37.1681780 114.8309090 101.0836580  36.2828730
 114.2017970 101.5521680  36.8314560 114.9456920 100.2385800  36.7174920
 123.3800660  87.1149770  52.0695190 123.2666110  87.4344380  52.9646710
 124.1970400  87.5162280  51.7732470 122.2858810  95.1342240  22.4329930
 122.2052860  94.2196850  22.1621640 121.8723230  95.6309310  21.7269640
 120.4176850  96.9121260  24.3139200 119.6418950  96.4321700  24.6037770
 121.0689780  96.2326910  24.1395360 114.4342680  97.2241070  25.1914960
 113.6027560  96.9689780  25.5911470 115.0423660  97.2951840  25.9272880
 124.4384280 101.3181450  23.0938330 123.9765810 100.5468690  23.4225500
 125.2509830 101.3447520  23.5990780 114.4143940 101.2581160  25.3872980
 114.7171980 100.3678900  25.2083200 115.1587530 101.8151380  25.1595230
 112.8434630  92.1842960  18.9757350 111.9551330  92.5258930  18.8737230
 113.1275820  91.9843280  18.0838180 110.8067640  94.7848610  24.8597050
 111.3783750  94.0170810  24.8600690 110.8069180  95.0837370  23.9503660
 120.6647590 103.6039460  22.7142320 120.0459030 104.0596960  22.1436760
 121.5199370 103.7590920  22.3132020 119.8585840  99.5878450  24.3209360
 119.7894120  98.6468390  24.1598490 120.6205700  99.6779860  24.8931930
 112.0492510  90.1932970  26.6465980 111.8695350  89.2958720  26.9268740
 111.6472590  90.7404840  27.3212930 120.8891010  92.3948830  24.5478290
 121.2655830  91.5220710  24.4351960 120.7910520  92.7307530  23.6568730
 115.0196020  90.7674460  20.0095730 115.1262770  91.6678190  20.3164490
 114.1088380  90.7192430  19.7190380 112.6679180  92.6893470  25.2548320
 113.3489290  92.9531840  25.8735720 112.3527230  91.8494340  25.5886330
 116.8603750  93.7360830  24.3420910 117.3681970  94.2341800  24.9825930
 117.3916990  92.9596030  24.1660270 115.1439850  88.3759390  28.6084330
 115.1458290  88.8931780  27.8030230 114.3144160  87.8989570  28.5854260
 121.5310940  98.4878700  20.1074230 120.9128210  98.9528150  19.5436950
 122.0434190  99.1806180  20.5243740 116.3942700  98.0154570  26.7857830
 116.0612080  98.6423490  27.4278900 116.5709380  98.5416450  26.0059500
 124.9076610  91.8299650  24.2534170 124.2032180  92.1184540  24.8337280
 125.2688770  92.6399760  23.8933730 114.8255180  90.0869350  26.6154780
 115.1671990  90.9311400  26.3208650 113.8870990  90.2353090  26.7320120
 115.6061800  99.9835370  28.6007010 116.2235800 100.6586450  28.3191460
 114.7454920 100.3923350  28.5094510 110.8994140  99.1735230  17.4813860
 110.5222120  99.6622330  16.7498760 111.1567210  99.8460510  18.1120390
 118.5083070  87.5751620  22.9399370 118.8158050  87.0198510  22.2234870
 117.5783770  87.7096080  22.7572360 124.0598130 103.2918910  25.2306830
 124.0725290 102.8881200  24.3629090 123.5073350 104.0666200  25.1268260
 123.4583570  98.1948750  26.5589440 123.8752360  97.9808860  25.7242900
 124.1823390  98.4521540  27.1298060 120.8963830  95.6400450  19.6759490
 119.9693110  95.5737830  19.9047960 121.0488650  96.5780580  19.5614730
 120.8832910  91.9117450  16.6726650 119.9436580  92.0731410  16.7579110
 121.2016170  92.6303130  16.1262640 124.9261120  97.2020750  20.1794740
 124.3073540  96.8640300  19.5321040 124.9085570  96.5580510  20.8873930
 124.3687680  93.3805290  27.5960550 123.9558860  94.2059000  27.8500540
 123.6363630  92.7950330  27.4036910 116.5020470  96.1665190  22.4579220
 116.0977470  95.4542440  21.9625120 116.5883590  95.8218430  23.3467260
 116.9702170  99.8532750  24.6218430 116.6730460  99.2478220  23.9426210
 117.9201990  99.8910060  24.5107790 115.2149090  92.9408400  26.2378260
 115.7663680  93.0503740  25.4631510 115.7292600  93.3146000  26.9533490
 125.0587780 103.4264620  28.2841530 124.5818340 104.2336810  28.0914140
 124.3749570 102.7742950  28.4367740 116.0620600  99.5914440  31.2726230
 115.1649130  99.8154410  31.5199630 116.0873470  99.7149380  30.3237630
 123.1025820  96.4407560  17.1867490 123.5419100  95.6029990  17.0405310
 123.8154240  97.0736960  17.2731630 114.8891820  96.4627760  29.8483600
 114.7499590  97.3350560  30.2171000 114.0073180  96.1200570  29.7031540
 121.2121200 101.3803630  21.1548730 121.6517110 102.1227960  20.7404120
 121.1508090 101.6230200  22.0787690 116.6872170 102.4049460  32.0568750
 116.6587600 102.8092410  31.1897180 116.5237140 101.4759820  31.8940350
 113.2025100  95.0610170  19.9585870 113.0822700  95.7872260  19.3467140
 112.8925990  94.2913080  19.4813780 110.8410470  98.2325310  25.7654510
 110.9190890  98.3674080  24.8210230 111.4552150  97.5241200  25.9582630
 112.0858100  99.9325500  22.1760690 111.6786180 100.0740090  21.3214290
 112.9771110  99.6485660  21.9731900 121.9036980 104.0817410  29.0827740
 122.4181650 103.9925420  29.8850170 121.0606060 104.4277110  29.3755650
 123.8791380 104.3672750  18.5111740 123.7192520 104.0775690  19.4093570
 123.7138090 103.5912880  17.9756970 116.3579760 104.1471280  20.2883360
 116.1822240 103.2306820  20.0751160 115.5035500 104.5058570  20.5281160
 123.5817510 101.8760310  17.0709740 122.8882670 101.8737600  16.4112020
 124.3240370 101.4519630  16.6403910 123.1467440 103.5023020  21.1458230
 123.6024390 102.7212400  21.4596850 123.4859960 104.2129840  21.6899410
 110.8969990  99.2739480  28.3048970 111.0601030  98.8044840  27.4868340
 111.3622440  98.7663040  28.9697810 115.6688760  88.4045240  23.3409540
 115.2256910  89.1854780  23.0094060 116.2273750  88.7275130  24.0480480
 119.9558570  91.2713760  28.9444860 119.4937940  91.4796780  29.7564800
 119.5536680  90.4573110  28.6415530 124.9563080  92.4922710  30.0741520
 124.1056670  92.1928460  30.3950590 124.7964870  92.7364720  29.1625340
 122.0512790  93.9924460  32.1740310 122.3766200  93.1588210  31.8342540
 122.8393120  94.5152980  32.3218640 118.7847580  88.0255940  18.2215370
 118.1601760  88.0215810  18.9468680 118.6977700  87.1586900  17.8251340
 117.7064660  88.9492570  25.1999140 118.0036990  89.8555400  25.1191160
 118.2550220  88.4611350  24.5858710 115.4602980  93.5278810  21.0690790
 115.2343900  93.3115980  21.9737410 114.6795510  93.9607270  20.7236760
 122.6900740  93.5342180  19.6681440 122.0909630  94.2577980  19.4845060
 123.2380350  93.4718960  18.8857890 117.9002190  94.4264390  31.7351060
 117.8045790  93.4859120  31.5851460 118.7434170  94.6479460  31.3399130
 121.2965610  92.1705720  21.6984720 121.6895180  92.4877920  20.8853410
 121.6582460  91.2917600  21.8129240 113.0312730  90.8378060  29.8884840
 112.6376120  91.6853270  30.0957620 112.3431130  90.2004430  30.0793480
 119.6057780  90.9213030  32.9581580 118.9156100  90.7285230  33.5927670
 120.3490080  91.2047670  33.4905880 110.3329780  88.7606520  23.9214920
 110.0442830  89.3309380  24.6339900 111.0775540  88.2810970  24.2846150
 110.5200010  92.7026640  15.1317640 110.4374680  93.6457400  15.2732630
 110.1683070  92.5601550  14.2529990 121.8820750  94.7611470  25.7935500
 121.1501870  95.2698280  26.1425600 121.4845090  93.9441450  25.4924280
 118.3198140  91.4365670  24.1987990 118.3234200  90.9955620  23.3492530
 119.2149260  91.7583000  24.3059810 114.1700520  91.3192160  23.1582200
 113.8300570  91.7967390  23.9149250 113.4077840  90.8657280  22.7983300
 118.3818290  92.4377750  17.1894750 118.5031110  92.3964230  18.1380570
 117.9966800  93.3001900  17.0341480 122.3446660  90.2145150  25.2058440
 122.3619400  90.6653800  26.0500290 122.0962240  89.3150790  25.4191880
 117.3939790  94.7478890  16.5878050 116.8256690  94.2997140  15.9613960
 118.1028790  95.1071670  16.0543200 112.4708970  98.6490910  30.4644780
 112.0863760  98.0084580  31.0627740 112.7821160  99.3527030  31.0339510
 118.6206110  95.4967450  25.9453400 118.9876240  95.0226020  26.6914740
 118.4311170  96.3709020  26.2861740 111.4846600  90.2411140  22.0746870
 111.1993520  89.8766810  22.9125490 111.4225460  89.5091600  21.4610010
 116.4105480  94.5376090  28.2637610 116.1062550  95.4168070  28.4887970
 117.3651940  94.5975880  28.2995050 114.9387270  98.7437080  18.8604460
 114.1649530  98.2034700  18.7003180 115.6681900  98.2243690  18.5222220
 121.1585190  89.1340400  18.7960240 120.3449800  88.6353570  18.7205550
 120.9647140  89.9738650  18.3796590 121.0794050  97.8111500  30.5399850
 121.0131360  96.8907170  30.2857440 120.4499190  97.9086940  31.2544490
 123.8733580  93.5060050  17.0922400 124.7613200  93.8177280  16.9173740
 123.8438670  92.6332300  16.7002980 114.9824670  98.4117460  22.4983270
 115.5003340  97.6085720  22.4440160 114.5308690  98.3496600  23.3400100
 119.8694170  99.6783740  17.7710570 120.2109870 100.4225970  17.2753890
 119.0406880  99.9914860  18.1335400 112.4669210  95.3778830  29.4108970
 112.1084150  96.0432680  29.9982310 112.1723770  94.5462380  29.7821590
 115.6682330  95.8363070  32.2948520 115.3682470  95.9820250  31.3976340
 116.4393570  95.2768360  32.2021910 121.0110780 100.6332070  30.2903650
 121.0255320  99.7013030  30.0722560 120.3035880 100.7191830  30.9293420
 122.7521580  98.9999580  23.1356080 123.1045400  98.4027710  22.4757450
 121.8683910  98.6743810  23.3064330 118.8384860  99.7597270  20.5426490
 119.5255990 100.3066480  20.9234080 118.0517280 100.3038000  20.5776100
 110.9777260  95.3770090  16.0343570 111.8472110  95.6594890  16.3179490
 110.4867580  96.1905960  15.9192380 118.1412070  96.7643300  20.1551850
 118.5974850  97.5748550  20.3812040 117.7900280  96.4466440  20.9870340
 120.4444680 102.2749640  27.3844150 121.0886900 102.4809020  28.0617570
 120.8074120 101.5138040  26.9315000 114.0423850  87.1080950  20.6274370
 113.9138480  87.0998850  21.5759290 113.2185870  87.4464040  20.2765380
 121.7176760 100.2781990  26.1021600 122.3598990  99.5775150  26.2153770
 122.2426110 101.0580430  25.9218490 123.4914380 101.0776890  29.3057660
 123.8270620 101.6643580  29.9835580 122.5714720 100.9469600  29.5355450
 111.3448510 104.5897470  16.6005200 111.7046150 105.1886810  15.9462470
 111.2040850 105.1357360  17.3740230 111.0417780  88.8672070  30.0881070
 110.3276300  89.0668990  30.6933680 111.4612820  88.0911640  30.4595870
 111.3290370 102.8552330  31.0747600 111.4381490 101.9147070  30.9342990
 110.6770930 103.1207080  30.4261330 119.3202960 101.1268220  32.4745720
 118.9999830 100.4077460  33.0191410 118.6461320 101.8023290  32.5481780
 117.3617130 101.9728670  17.4178870 117.3527230 102.7058360  16.8023380
 116.4415490 101.7260250  17.5105830 112.9623770  97.1943560  18.1625630
 112.3551720  97.9342460  18.1720930 113.4373120  97.2842920  17.3363830
 122.5356560  91.3594380  27.8382520 122.9037380  90.5389590  28.1662090
 121.6754760  91.4196270  28.2538170 120.3476730 102.0356910  16.0804060
 120.4488710 101.8320900  15.1506040 119.4478470 101.7815190  16.2851840
 117.8702620  92.5937270  20.0627960 117.1618770  93.0623610  20.5041570
 118.1547100  91.9359280  20.6973150 119.4958550  94.0133970  28.0620490
 119.9943800  94.4879790  28.7272340 119.6381500  93.0897490  28.2690520
 121.9018050  89.3187930  21.5023750 121.7785830  89.3374060  20.5533260
 122.8502610  89.3666870  21.6222150 118.9894840 104.5543230  20.7751730
 119.2436340 104.5164620  19.8531100 118.0407320 104.4276560  20.7679980
 116.0737640  90.9022350  17.4378670 116.9228170  91.3392500  17.3718860
 115.7068910  91.2142610  18.2650730 124.9947420  95.4735110  22.3510240
 124.0537560  95.4885340  22.5257930 125.3091490  94.6871070  22.7970540
 114.9729060  97.1554710  15.9114200 115.7392330  97.0436070  16.4739630
 115.0503750  96.4592680  15.2590970 113.6675820  94.5879780  16.5947090
 113.7479410  93.6407290  16.7064490 114.5595570  94.9186660  16.7007750
 114.4690530 104.7375170  23.6981630 115.2053010 104.1890630  23.9690200
 114.8531450 105.6031180  23.5587620 111.3536010 100.8048740  19.5723140
 110.4275790 101.0469880  19.5628550 111.8192440 101.6323000  19.4507890
 113.4748810 103.9221240  32.8867210 114.2761540 104.2433290  33.3002610
 112.9600630 103.5616820  33.6087120 117.5792840 103.9105480  15.5207200
 118.3721450 104.1994310  15.0688990 117.0597190 103.4797650  14.8419680
 122.3113440 100.0301110  32.8342620 121.7051600 100.0532710  32.0938370
 122.0067550  99.2984150  33.3709870 123.7413810 103.7581400  31.4452030
 124.6935560 103.6739420  31.3952270 123.5942030 104.4223110  32.1185820
 111.1946620  96.4094700  31.8303260 111.6985640  95.8301980  32.4019490
 110.4554040  96.6934930  32.3679630 118.0970240  99.1308890  15.3849550
 117.9920880  98.5161240  16.1110930 117.9294460  98.6074780  14.6012560
 118.2484560  97.8165690  31.3638780 117.4830230  98.3850690  31.2793450
 118.4300520  97.5241900  30.4707010 121.3372970  98.1928920  15.9891540
 120.7883070  98.6398220  16.6334280 121.9592230  97.6878170  16.5129210
 113.2269700  94.5524290  32.7253330 113.2675040  94.2538160  33.6338560
 114.0815200  94.9531900  32.5660850 117.0048090  97.1519840  17.8856840
 117.4264510  96.9859710  18.7288230 117.1298930  96.3420070  17.3911980
 115.1675510  93.1316390  30.6927820 114.6371970  92.6407340  30.0651160
 115.8363580  93.5600590  30.1585750 119.5175730  96.1757450  15.1333940
 120.0381390  95.4606470  14.7675090 120.1644130  96.8143320  15.4334450
 124.0653570  97.5985850  30.4569010 124.4794590  97.7530930  31.3059430
 123.1304570  97.7241070  30.6194790 124.5375740  94.9382010  32.4608160
 125.1196510  94.1834330  32.3728640 124.7137510  95.4689450  31.6839640
 115.6547810  90.0978760  30.7725110 115.5604680  89.4799510  30.0475980
 115.0745200  90.8245050  30.5455020 118.4209250  88.6552000  27.8052500
 117.9726550  88.6776260  26.9598050 117.7874450  88.2571020  28.4022800
 118.8268800  97.5506330  28.4264940 119.2456910  98.3939060  28.2541180
 117.9077430  97.6878370  28.1971720 121.1632700  95.2822510  29.8102780
 121.2828910  94.6863650  30.5497620 122.0226700  95.3192200  29.3904080
 123.5020600  95.8359700  28.3865290 122.9755820  96.3602320  27.7830430
 123.8451940  96.4687090  29.0175020 115.9006990  93.2253070  14.8315000
 115.6996050  92.3620430  15.1928340 115.7299040  93.1386430  13.8936600
 116.6776220 103.8559340  29.5422670 116.1397310 104.5805400  29.2231370
 116.9310180 103.3789680  28.7520010 117.9301470  91.8243860  31.0678600
 118.5201160  91.5159710  31.7556420 117.1121710  91.3523610  31.2238500
 122.7494900  91.4409670  31.3011620 122.0610420  90.7791210  31.2361610
 123.4700920  90.9947940  31.7460080 123.3795300  88.0361300  17.3601880
 123.6597590  87.1929200  17.7161300 122.6061030  88.2684410  17.8740630
 114.6989790  90.3253690  14.8192880 115.0015690  90.3321120  13.9112030
 115.4384380  89.9751550  15.3160540 119.5338430 105.0910550  29.8009320
 119.4597130 105.9945690  30.1081690 118.6317270 104.7722450  29.7731390
 117.9174720  89.2688310  15.8049080 117.5696720  88.5912300  15.2251530
 118.1187490  88.8077820  16.6192470 120.0823760 104.2569060  17.4235680
 120.9774550 104.5954030  17.4454440 120.1141390 103.5348470  16.7959960
 113.7219920  99.6296110  15.6522680 114.1594790 100.1725780  16.3080260
 114.2067650  98.8043060  15.6619020 110.9365720 102.4185140  23.1042940
 111.2668730 101.5506200  22.8721580 111.3656720 102.6243660  23.9347900
 115.5327640 100.7494150  20.7644910 115.2323180 100.6259120  21.6648820
 115.4265130  99.8902740  20.3560640 111.4255930 103.2855730  25.8424570
 110.9886920 103.4656530  26.6748720 111.9933610 104.0430350  25.7006290
 111.2580360  95.7975960  22.2013450 110.6029200  95.5287600  21.5573150
 112.0958310  95.6880440  21.7515430 124.2070800  90.5917250  16.4231940
 124.6255680  90.4048230  15.5828600 123.9006860  89.7396300  16.7334870
 112.2956290  96.1828530  26.7416790 112.6629330  96.0955930  27.6212810
 111.7267110  95.4195080  26.6423650 111.8472290  93.0937620  30.6475210
 110.9528340  93.0604380  30.9868920 112.3869840  93.2924410  31.4126460
 110.4718440  93.0074890  18.1438780 109.5682520  93.2705090  17.9690440
 110.9559060  93.2786060  17.3638740 113.0145650  92.0640430  16.0533160
 113.7237350  91.6423650  15.5680440 112.2985590  92.1315660  15.4216510
 112.6619810  88.1179760  15.0935810 113.3847940  88.6588700  15.4117030
 112.9344330  87.8443180  14.2177350 112.3512000  87.3685950  24.9958430
 112.9988190  86.8183330  24.5553590 112.7713840  87.6229100  25.8174240
 112.1044000  87.5241620  27.7383750 111.7558820  87.9805440  28.5041930
 111.7731700  86.6298750  27.8206180 113.7108370 100.6961220  31.9036940
 113.6678000 100.3254130  32.7851400 113.8419380 101.6338790  32.0438760
 117.4114400 102.2520810  27.5046660 117.1705760 102.5195370  26.6177180
 118.3517040 102.4226540  27.5597520 119.6168820  88.7153500  31.2603170
 119.5557710  89.3075330  32.0098580 120.5569200  88.6079460  31.1153430
 122.2543380  88.3723560  30.8995460 122.8683790  88.6902850  30.2376540
 122.7992940  87.8872150  31.5191320 112.7764640  87.0517820  31.0134520
 113.3247630  86.8705870  30.2500630 112.8419950  86.2611930  31.5490830
 113.5496400 103.6423470  29.0234720 112.9556720 103.5108170  29.7624760
 113.5420240 102.8061610  28.5576820 122.9951420  86.9355700  27.2264750
 122.1211260  87.2690810  27.0237680 122.8862170  86.4628880  28.0516620
 123.9023400  89.1426570  28.6106470 123.5736760  88.3278330  28.2308200
 124.8505700  89.0996380  28.4872160 113.1808630 101.0081850  27.9742760
 112.4542690 100.3887140  27.9068710 113.2417780 101.4022460  27.1040840
 116.7853730 103.2226850  24.7592170 117.3018750 102.6114210  24.2340430
 117.4351110 103.7255630  25.2503180 119.5249230 104.1135340  25.5861150
 119.8127040 103.8589640  24.7094160 120.0372450 103.5612700  26.1766720
 120.7426240  87.8525540  26.1657660 119.9598030  88.3271040  26.4454420
 120.4489170  86.9480370  26.0570840 111.4638630 104.3256240  21.1839520
 111.2960670 103.6926920  21.8821410 110.5973140 104.5315640  20.8333710
 112.0866650  88.1573020  18.6871380 112.8446010  88.2701900  18.1135410
 111.6243820  88.9942220  18.6414810 118.6280460  90.2712290  21.6773690
 117.8154970  89.8969180  21.3369570 119.1322100  89.5157370  21.9794880
 123.1305440  86.9354740  22.9156760 123.7334810  87.5074950  23.3905280
 122.3898430  87.4994180  22.6930660 113.0701330 103.0189470  18.6289660
 112.5448950 103.3997500  17.9251620 112.9945910 103.6440240  19.3499370
 114.4591800  88.6837070  17.2273350 114.9884560  87.8966870  17.0981300
 115.0920120  89.3628260  17.4608880 116.6529640  88.4212210  20.2818740
 116.0232380  87.7199520  20.4488870 116.1134780  89.1816340  20.0651900
 119.5921590 105.0351440  32.9529350 120.5188900 104.7995710  32.9965310
 119.5772020 105.8623440  32.4715380 116.7785200  87.6996190  32.7171230
 116.4969470  88.2029790  31.9532050 117.1604900  86.9017940  32.3513360
 115.6694300 104.9671850  17.5038910 116.4013120 104.6831130  16.9562800
 115.9287970 104.7285130  18.3938290 114.8309090 101.0836580  17.5085240
 114.2017970 101.5521680  18.0571070 114.9456920 100.2385800  17.9431430
 123.3800660  87.1149770  33.2951700 123.2666110  87.4344380  34.1903220
 124.1970400  87.5162280  32.9988980 122.2858810  95.1342240   3.6586440
 122.2052860  94.2196850   3.3878150 121.8723230  95.6309310   2.9526150
 120.4176850  96.9121260   5.5395710 119.6418950  96.4321700   5.8294280
 121.0689780  96.2326910   5.3651870 114.4342680  97.2241070   6.4171470
 113.6027560  96.9689780   6.8167980 115.0423660  97.2951840   7.1529390
 124.4384280 101.3181450   4.3194840 123.9765810 100.5468690   4.6482010
 125.2509830 101.3447520   4.8247290 114.4143940 101.2581160   6.6129490
 114.7171980 100.3678900   6.4339710 115.1587530 101.8151380   6.3851740
 110.8067640  94.7848610   6.0853560 111.3783750  94.0170810   6.0857200
 110.8069180  95.0837370   5.1760170 120.6647590 103.6039460   3.9398830
 120.0459030 104.0596960   3.3693270 121.5199370 103.7590920   3.5388530
 119.8585840  99.5878450   5.5465870 119.7894120  98.6468390   5.3855000
 120.6205700  99.6779860   6.1188440 112.0492510  90.1932970   7.8722490
 111.8695350  89.2958720   8.1525250 111.6472590  90.7404840   8.5469440
 120.8891010  92.3948830   5.7734800 121.2655830  91.5220710   5.6608470
 120.7910520  92.7307530   4.8825240 112.6679180  92.6893470   6.4804830
 113.3489290  92.9531840   7.0992230 112.3527230  91.8494340   6.8142840
 116.8603750  93.7360830   5.5677420 117.3681970  94.2341800   6.2082440
 117.3916990  92.9596030   5.3916780 115.1439850  88.3759390   9.8340840
 115.1458290  88.8931780   9.0286740 114.3144160  87.8989570   9.8110770
 116.3942700  98.0154570   8.0114340 116.0612080  98.6423490   8.6535410
 116.5709380  98.5416450   7.2316010 124.9076610  91.8299650   5.4790680
 124.2032180  92.1184540   6.0593790 125.2688770  92.6399760   5.1190240
 114.8255180  90.0869350   7.8411290 115.1671990  90.9311400   7.5465160
 113.8870990  90.2353090   7.9576630 115.6061800  99.9835370   9.8263520
 116.2235800 100.6586450   9.5447970 114.7454920 100.3923350   9.7351020
 118.5083070  87.5751620   4.1655880 118.8158050  87.0198510   3.4491380
 117.5783770  87.7096080   3.9828870 124.0598130 103.2918910   6.4563340
 124.0725290 102.8881200   5.5885600 123.5073350 104.0666200   6.3524770
 123.4583570  98.1948750   7.7845950 123.8752360  97.9808860   6.9499410
 124.1823390  98.4521540   8.3554570 124.3687680  93.3805290   8.8217060
 123.9558860  94.2059000   9.0757050 123.6363630  92.7950330   8.6293420
 116.5020470  96.1665190   3.6835730 116.0977470  95.4542440   3.1881630
 116.5883590  95.8218430   4.5723770 116.9702170  99.8532750   5.8474940
 116.6730460  99.2478220   5.1682720 117.9201990  99.8910060   5.7364300
 115.2149090  92.9408400   7.4634770 115.7663680  93.0503740   6.6888020
 115.7292600  93.3146000   8.1790000 125.0587780 103.4264620   9.5098040
 124.5818340 104.2336810   9.3170650 124.3749570 102.7742950   9.6624250
 116.0620600  99.5914440  12.4982740 115.1649130  99.8154410  12.7456140
 116.0873470  99.7149380  11.5494140 114.8891820  96.4627760  11.0740110
 114.7499590  97.3350560  11.4427510 114.0073180  96.1200570  10.9288050
 121.2121200 101.3803630   2.3805240 121.6517110 102.1227960   1.9660630
 121.1508090 101.6230200   3.3044200 116.6872170 102.4049460  13.2825260
 116.6587600 102.8092410  12.4153690 116.5237140 101.4759820  13.1196860
 110.8410470  98.2325310   6.9911020 110.9190890  98.3674080   6.0466740
 111.4552150  97.5241200   7.1839140 112.0858100  99.9325500   3.4017200
 111.6786180 100.0740090   2.5470800 112.9771110  99.6485660   3.1988410
 121.9036980 104.0817410  10.3084250 122.4181650 103.9925420  11.1106680
 121.0606060 104.4277110  10.6012160 123.1467440 103.5023020   2.3714740
 123.6024390 102.7212400   2.6853360 123.4859960 104.2129840   2.9155920
 110.8969990  99.2739480   9.5305480 111.0601030  98.8044840   8.7124850
 111.3622440  98.7663040  10.1954320 115.6688760  88.4045240   4.5666050
 115.2256910  89.1854780   4.2350570 116.2273750  88.7275130   5.2736990
 119.9558570  91.2713760  10.1701370 119.4937940  91.4796780  10.9821310
 119.5536680  90.4573110   9.8672040 124.9563080  92.4922710  11.2998030
 124.1056670  92.1928460  11.6207100 124.7964870  92.7364720  10.3881850
 122.0512790  93.9924460  13.3996820 122.3766200  93.1588210  13.0599050
 122.8393120  94.5152980  13.5475150 117.7064660  88.9492570   6.4255650
 118.0036990  89.8555400   6.3447670 118.2550220  88.4611350   5.8115220
 115.4602980  93.5278810   2.2947300 115.2343900  93.3115980   3.1993920
 114.6795510  93.9607270   1.9493270 117.9002190  94.4264390  12.9607570
 117.8045790  93.4859120  12.8107970 118.7434170  94.6479460  12.5655640
 121.2965610  92.1705720   2.9241230 121.6895180  92.4877920   2.1109920
 121.6582460  91.2917600   3.0385750 113.0312730  90.8378060  11.1141350
 112.6376120  91.6853270  11.3214130 112.3431130  90.2004430  11.3049990
 119.6057780  90.9213030  14.1838090 118.9156100  90.7285230  14.8184180
 120.3490080  91.2047670  14.7162390 110.3329780  88.7606520   5.1471430
 110.0442830  89.3309380   5.8596410 111.0775540  88.2810970   5.5102660
 121.8820750  94.7611470   7.0192010 121.1501870  95.2698280   7.3682110
 121.4845090  93.9441450   6.7180790 118.3198140  91.4365670   5.4244500
 118.3234200  90.9955620   4.5749040 119.2149260  91.7583000   5.5316320
 114.1700520  91.3192160   4.3838710 113.8300570  91.7967390   5.1405760
 113.4077840  90.8657280   4.0239810 122.3446660  90.2145150   6.4314950
 122.3619400  90.6653800   7.2756800 122.0962240  89.3150790   6.6448390
 112.4708970  98.6490910  11.6901290 112.0863760  98.0084580  12.2884250
 112.7821160  99.3527030  12.2596020 118.6206110  95.4967450   7.1709910
 118.9876240  95.0226020   7.9171250 118.4311170  96.3709020   7.5118250
 111.4846600  90.2411140   3.3003380 111.1993520  89.8766810   4.1382000
 111.4225460  89.5091600   2.6866520 116.4105480  94.5376090   9.4894120
 116.1062550  95.4168070   9.7144480 117.3651940  94.5975880   9.5251560
 121.0794050  97.8111500  11.7656360 121.0131360  96.8907170  11.5113950
 120.4499190  97.9086940  12.4801000 114.9824670  98.4117460   3.7239780
 115.5003340  97.6085720   3.6696670 114.5308690  98.3496600   4.5656610
 112.4669210  95.3778830  10.6365480 112.1084150  96.0432680  11.2238820
 112.1723770  94.5462380  11.0078100 115.6682330  95.8363070  13.5205030
 115.3682470  95.9820250  12.6232850 116.4393570  95.2768360  13.4278420
 121.0110780 100.6332070  11.5160160 121.0255320  99.7013030  11.2979070
 120.3035880 100.7191830  12.1549930 122.7521580  98.9999580   4.3612590
 123.1045400  98.4027710   3.7013960 121.8683910  98.6743810   4.5320840
 118.8384860  99.7597270   1.7683000 119.5255990 100.3066480   2.1490590
 118.0517280 100.3038000   1.8032610 120.4444680 102.2749640   8.6100660
 121.0886900 102.4809020   9.2874080 120.8074120 101.5138040   8.1571510
 121.7176760 100.2781990   7.3278110 122.3598990  99.5775150   7.4410280
 122.2426110 101.0580430   7.1475000 123.4914380 101.0776890  10.5314170
 123.8270620 101.6643580  11.2092090 122.5714720 100.9469600  10.7611960
 111.0417780  88.8672070  11.3137580 110.3276300  89.0668990  11.9190190
 111.4612820  88.0911640  11.6852380 111.3290370 102.8552330  12.3004110
 111.4381490 101.9147070  12.1599500 110.6770930 103.1207080  11.6517840
 119.3202960 101.1268220  13.7002230 118.9999830 100.4077460  14.2447920
 118.6461320 101.8023290  13.7738290 122.5356560  91.3594380   9.0639030
 122.9037380  90.5389590   9.3918600 121.6754760  91.4196270   9.4794680
 119.4958550  94.0133970   9.2877000 119.9943800  94.4879790   9.9528850
 119.6381500  93.0897490   9.4947030 121.9018050  89.3187930   2.7280260
 121.7785830  89.3374060   1.7789770 122.8502610  89.3666870   2.8478660
 124.9947420  95.4735110   3.5766750 124.0537560  95.4885340   3.7514440
 125.3091490  94.6871070   4.0227050 114.4690530 104.7375170   4.9238140
 115.2053010 104.1890630   5.1946710 114.8531450 105.6031180   4.7844130
 113.4748810 103.9221240  14.1123720 114.2761540 104.2433290  14.5259120
 112.9600630 103.5616820  14.8343630 122.3113440 100.0301110  14.0599130
 121.7051600 100.0532710  13.3194880 122.0067550  99.2984150  14.5966380
 123.7413810 103.7581400  12.6708540 124.6935560 103.6739420  12.6208780
 123.5942030 104.4223110  13.3442330 111.1946620  96.4094700  13.0559770
 111.6985640  95.8301980  13.6276000 110.4554040  96.6934930  13.5936140
 118.2484560  97.8165690  12.5895290 117.4830230  98.3850690  12.5049960
 118.4300520  97.5241900  11.6963520 113.2269700  94.5524290  13.9509840
 113.2675040  94.2538160  14.8595070 114.0815200  94.9531900  13.7917360
 115.1675510  93.1316390  11.9184330 114.6371970  92.6407340  11.2907670
 115.8363580  93.5600590  11.3842260 124.0653570  97.5985850  11.6825520
 124.4794590  97.7530930  12.5315940 123.1304570  97.7241070  11.8451300
 124.5375740  94.9382010  13.6864670 125.1196510  94.1834330  13.5985150
 124.7137510  95.4689450  12.9096150 115.6547810  90.0978760  11.9981620
 115.5604680  89.4799510  11.2732490 115.0745200  90.8245050  11.7711530
 118.4209250  88.6552000   9.0309010 117.9726550  88.6776260   8.1854560
 117.7874450  88.2571020   9.6279310 118.8268800  97.5506330   9.6521450
 119.2456910  98.3939060   9.4797690 117.9077430  97.6878370   9.4228230
 121.1632700  95.2822510  11.0359290 121.2828910  94.6863650  11.7754130
 122.0226700  95.3192200  10.6160590 123.5020600  95.8359700   9.6121800
 122.9755820  96.3602320   9.0086940 123.8451940  96.4687090  10.2431530
 116.6776220 103.8559340  10.7679180 116.1397310 104.5805400  10.4487880
 116.9310180 103.3789680   9.9776520 117.9301470  91.8243860  12.2935110
 118.5201160  91.5159710  12.9812930 117.1121710  91.3523610  12.4495010
 122.7494900  91.4409670  12.5268130 122.0610420  90.7791210  12.4618120
 123.4700920  90.9947940  12.9716590 119.5338430 105.0910550  11.0265830
 119.4597130 105.9945690  11.3338200 118.6317270 104.7722450  10.9987900
 110.9365720 102.4185140   4.3299450 111.2668730 101.5506200   4.0978090
 111.3656720 102.6243660   5.1604410 111.4255930 103.2855730   7.0681080
 110.9886920 103.4656530   7.9005230 111.9933610 104.0430350   6.9262800
 111.2580360  95.7975960   3.4269960 110.6029200  95.5287600   2.7829660
 112.0958310  95.6880440   2.9771940 112.2956290  96.1828530   7.9673300
 112.6629330  96.0955930   8.8469320 111.7267110  95.4195080   7.8680160
 111.8472290  93.0937620  11.8731720 110.9528340  93.0604380  12.2125430
 112.3869840  93.2924410  12.6382970 112.3512000  87.3685950   6.2214940
 112.9988190  86.8183330   5.7810100 112.7713840  87.6229100   7.0430750
 112.1044000  87.5241620   8.9640260 111.7558820  87.9805440   9.7298440
 111.7731700  86.6298750   9.0462690 113.7108370 100.6961220  13.1293450
 113.6678000 100.3254130  14.0107910 113.8419380 101.6338790  13.2695270
 117.4114400 102.2520810   8.7303170 117.1705760 102.5195370   7.8433690
 118.3517040 102.4226540   8.7854030 119.6168820  88.7153500  12.4859680
 119.5557710  89.3075330  13.2355090 120.5569200  88.6079460  12.3409940
 122.2543380  88.3723560  12.1251970 122.8683790  88.6902850  11.4633050
 122.7992940  87.8872150  12.7447830 112.7764640  87.0517820  12.2391030
 113.3247630  86.8705870  11.4757140 112.8419950  86.2611930  12.7747340
 113.5496400 103.6423470  10.2491230 112.9556720 103.5108170  10.9881270
 113.5420240 102.8061610   9.7833330 122.9951420  86.9355700   8.4521260
 122.1211260  87.2690810   8.2494190 122.8862170  86.4628880   9.2773130
 123.9023400  89.1426570   9.8362980 123.5736760  88.3278330   9.4564710
 124.8505700  89.0996380   9.7128670 113.1808630 101.0081850   9.1999270
 112.4542690 100.3887140   9.1325220 113.2417780 101.4022460   8.3297350
 116.7853730 103.2226850   5.9848680 117.3018750 102.6114210   5.4596940
 117.4351110 103.7255630   6.4759690 119.5249230 104.1135340   6.8117660
 119.8127040 103.8589640   5.9350670 120.0372450 103.5612700   7.4023230
 120.7426240  87.8525540   7.3914170 119.9598030  88.3271040   7.6710930
 120.4489170  86.9480370   7.2827350 111.4638630 104.3256240   2.4096030
 111.2960670 103.6926920   3.1077920 110.5973140 104.5315640   2.0590220
 118.6280460  90.2712290   2.9030200 117.8154970  89.8969180   2.5626080
 119.1322100  89.5157370   3.2051390 123.1305440  86.9354740   4.1413270
 123.7334810  87.5074950   4.6161790 122.3898430  87.4994180   3.9187170
 119.5921590 105.0351440  14.1785860 120.5188900 104.7995710  14.2221820
 119.5772020 105.8623440  13.6971890 116.7785200  87.6996190  13.9427740
 116.4969470  88.2029790  13.1788560 117.1604900  86.9017940  13.5769870
 123.3800660  87.1149770  14.5208210 123.2666110  87.4344380  15.4159730
 124.1970400  87.5162280  14.2245490 122.2858810  76.3598750  97.5303890
 122.2052860  75.4453360  97.2595600 121.8723230  76.8565820  96.8243600
 120.4176850  78.1377770  99.4113160 119.6418950  77.6578210  99.7011730
 121.0689780  77.4583420  99.2369320 114.4342680  78.4497580 100.2888920
 113.6027560  78.1946290 100.6885430 115.0423660  78.5208350 101.0246840
 124.4384280  82.5437960  98.1912290 123.9765810  81.7725200  98.5199460
 125.2509830  82.5704030  98.6964740 114.4143940  82.4837670 100.4846940
 114.7171980  81.5935410 100.3057160 115.1587530  83.0407890 100.2569190
 112.8434630  73.4099470  94.0731310 111.9551330  73.7515440  93.9711190
 113.1275820  73.2099790  93.1812140 110.8067640  76.0105120  99.9571010
 111.3783750  75.2427320  99.9574650 110.8069180  76.3093880  99.0477620
 120.6647590  84.8295970  97.8116280 120.0459030  85.2853470  97.2410720
 121.5199370  84.9847430  97.4105980 119.8585840  80.8134960  99.4183320
 119.7894120  79.8724900  99.2572450 120.6205700  80.9036370  99.9905890
 112.0492510  71.4189480 101.7439940 111.8695350  70.5215230 102.0242700
 111.6472590  71.9661350 102.4186890 120.8891010  73.6205340  99.6452250
 121.2655830  72.7477220  99.5325920 120.7910520  73.9564040  98.7542690
 115.0196020  71.9930970  95.1069690 115.1262770  72.8934700  95.4138450
 114.1088380  71.9448940  94.8164340 112.6679180  73.9149980 100.3522280
 113.3489290  74.1788350 100.9709680 112.3527230  73.0750850 100.6860290
 116.8603750  74.9617340  99.4394870 117.3681970  75.4598310 100.0799890
 117.3916990  74.1852540  99.2634230 121.5310940  79.7135210  95.2048190
 120.9128210  80.1784660  94.6410910 122.0434190  80.4062690  95.6217700
 116.3942700  79.2411080 101.8831790 116.0612080  79.8680000 102.5252860
 116.5709380  79.7672960 101.1033460 124.9076610  73.0556160  99.3508130
 124.2032180  73.3441050  99.9311240 125.2688770  73.8656270  98.9907690
 114.8255180  71.3125860 101.7128740 115.1671990  72.1567910 101.4182610
 113.8870990  71.4609600 101.8294080 110.8994140  80.3991740  92.5787820
 110.5222120  80.8878840  91.8472720 111.1567210  81.0717020  93.2094350
 118.5083070  68.8008130  98.0373330 118.8158050  68.2455020  97.3208830
 117.5783770  68.9352590  97.8546320 124.0598130  84.5175420 100.3280790
 124.0725290  84.1137710  99.4603050 123.5073350  85.2922710 100.2242220
 123.4583570  79.4205260 101.6563400 123.8752360  79.2065370 100.8216860
 124.1823390  79.6778050 102.2272020 120.8963830  76.8656960  94.7733450
 119.9693110  76.7994340  95.0021920 121.0488650  77.8037090  94.6588690
 120.8832910  73.1373960  91.7700610 119.9436580  73.2987920  91.8553070
 121.2016170  73.8559640  91.2236600 124.9261120  78.4277260  95.2768700
 124.3073540  78.0896810  94.6295000 124.9085570  77.7837020  95.9847890
 116.5020470  77.3921700  97.5553180 116.0977470  76.6798950  97.0599080
 116.5883590  77.0474940  98.4441220 116.9702170  81.0789260  99.7192390
 116.6730460  80.4734730  99.0400170 117.9201990  81.1166570  99.6081750
 115.2149090  74.1664910 101.3352220 115.7663680  74.2760250 100.5605470
 115.7292600  74.5402510 102.0507450 123.1025820  77.6664070  92.2841450
 123.5419100  76.8286500  92.1379270 123.8154240  78.2993470  92.3705590
 121.2121200  82.6060140  96.2522690 121.6517110  83.3484470  95.8378080
 121.1508090  82.8486710  97.1761650 113.2025100  76.2866680  95.0559830
 113.0822700  77.0128770  94.4441100 112.8925990  75.5169590  94.5787740
 110.8410470  79.4581820 100.8628470 110.9190890  79.5930590  99.9184190
 111.4552150  78.7497710 101.0556590 112.0858100  81.1582010  97.2734650
 111.6786180  81.2996600  96.4188250 112.9771110  80.8742170  97.0705860
 123.8791380  85.5929260  93.6085700 123.7192520  85.3032200  94.5067530
 123.7138090  84.8169390  93.0730930 116.3579760  85.3727790  95.3857320
 116.1822240  84.4563330  95.1725120 115.5035500  85.7315080  95.6255120
 123.5817510  83.1016820  92.1683700 122.8882670  83.0994110  91.5085980
 124.3240370  82.6776140  91.7377870 123.1467440  84.7279530  96.2432190
 123.6024390  83.9468910  96.5570810 123.4859960  85.4386350  96.7873370
 115.6688760  69.6301750  98.4383500 115.2256910  70.4111290  98.1068020
 116.2273750  69.9531640  99.1454440 118.7847580  69.2512450  93.3189330
 118.1601760  69.2472320  94.0442640 118.6977700  68.3843410  92.9225300
 117.7064660  70.1749080 100.2973100 118.0036990  71.0811910 100.2165120
 118.2550220  69.6867860  99.6832670 115.4602980  74.7535320  96.1664750
 115.2343900  74.5372490  97.0711370 114.6795510  75.1863780  95.8210720
 122.6900740  74.7598690  94.7655400 122.0909630  75.4834490  94.5819020
 123.2380350  74.6975470  93.9831850 121.2965610  73.3962230  96.7958680
 121.6895180  73.7134430  95.9827370 121.6582460  72.5174110  96.9103200
 110.3329780  69.9863030  99.0188880 110.0442830  70.5565890  99.7313860
 111.0775540  69.5067480  99.3820110 110.5200010  73.9283150  90.2291600
 110.4374680  74.8713910  90.3706590 110.1683070  73.7858060  89.3503950
 121.8820750  75.9867980 100.8909460 121.1501870  76.4954790 101.2399560
 121.4845090  75.1697960 100.5898240 118.3198140  72.6622180  99.2961950
 118.3234200  72.2212130  98.4466490 119.2149260  72.9839510  99.4033770
 114.1700520  72.5448670  98.2556160 113.8300570  73.0223900  99.0123210
 113.4077840  72.0913790  97.8957260 118.3818290  73.6634260  92.2868710
 118.5031110  73.6220740  93.2354530 117.9966800  74.5258410  92.1315440
 122.3446660  71.4401660 100.3032400 122.3619400  71.8910310 101.1474250
 122.0962240  70.5407300 100.5165840 117.3939790  75.9735400  91.6852010
 116.8256690  75.5253650  91.0587920 118.1028790  76.3328180  91.1517160
 118.6206110  76.7223960 101.0427360 118.9876240  76.2482530 101.7888700
 118.4311170  77.5965530 101.3835700 111.4846600  71.4667650  97.1720830
 111.1993520  71.1023320  98.0099450 111.4225460  70.7348110  96.5583970
 114.9387270  79.9693590  93.9578420 114.1649530  79.4291210  93.7977140
 115.6681900  79.4500200  93.6196180 121.1585190  70.3596910  93.8934200
 120.3449800  69.8610080  93.8179510 120.9647140  71.1995160  93.4770550
 123.8733580  74.7316560  92.1896360 124.7613200  75.0433790  92.0147700
 123.8438670  73.8588810  91.7976940 114.9824670  79.6373970  97.5957230
 115.5003340  78.8342230  97.5414120 114.5308690  79.5753110  98.4374060
 119.8694170  80.9040250  92.8684530 120.2109870  81.6482480  92.3727850
 119.0406880  81.2171370  93.2309360 122.7521580  80.2256090  98.2330040
 123.1045400  79.6284220  97.5731410 121.8683910  79.9000320  98.4038290
 118.8384860  80.9853780  95.6400450 119.5255990  81.5322990  96.0208040
 118.0517280  81.5294510  95.6750060 110.9777260  76.6026600  91.1317530
 111.8472110  76.8851400  91.4153450 110.4867580  77.4162470  91.0166340
 118.1412070  77.9899810  95.2525810 118.5974850  78.8005060  95.4786000
 117.7900280  77.6722950  96.0844300 114.0423850  68.3337460  95.7248330
 113.9138480  68.3255360  96.6733250 113.2185870  68.6720550  95.3739340
 121.7176760  81.5038500 101.1995560 122.3598990  80.8031660 101.3127730
 122.2426110  82.2836940 101.0192450 111.3448510  85.8153980  91.6979160
 111.7046150  86.4143320  91.0436430 111.2040850  86.3613870  92.4714190
 117.3617130  83.1985180  92.5152830 117.3527230  83.9314870  91.8997340
 116.4415490  82.9516760  92.6079790 112.9623770  78.4200070  93.2599590
 112.3551720  79.1598970  93.2694890 113.4373120  78.5099430  92.4337790
 120.3476730  83.2613420  91.1778020 120.4488710  83.0577410  90.2480000
 119.4478470  83.0071700  91.3825800 117.8702620  73.8193780  95.1601920
 117.1618770  74.2880120  95.6015530 118.1547100  73.1615790  95.7947110
 121.9018050  70.5444440  96.5997710 121.7785830  70.5630570  95.6507220
 122.8502610  70.5923380  96.7196110 118.9894840  85.7799740  95.8725690
 119.2436340  85.7421130  94.9505060 118.0407320  85.6533070  95.8653940
 116.0737640  72.1278860  92.5352630 116.9228170  72.5649010  92.4692820
 115.7068910  72.4399120  93.3624690 124.9947420  76.6991620  97.4484200
 124.0537560  76.7141850  97.6231890 125.3091490  75.9127580  97.8944500
 114.9729060  78.3811220  91.0088160 115.7392330  78.2692580  91.5713590
 115.0503750  77.6849190  90.3564930 113.6675820  75.8136290  91.6921050
 113.7479410  74.8663800  91.8038450 114.5595570  76.1443170  91.7981710
 114.4690530  85.9631680  98.7955590 115.2053010  85.4147140  99.0664160
 114.8531450  86.8287690  98.6561580 111.3536010  82.0305250  94.6697100
 110.4275790  82.2726390  94.6602510 111.8192440  82.8579510  94.5481850
 117.5792840  85.1361990  90.6181160 118.3721450  85.4250820  90.1662950
 117.0597190  84.7054160  89.9393640 118.0970240  80.3565400  90.4823510
 117.9920880  79.7417750  91.2084890 117.9294460  79.8331290  89.6986520
 121.3372970  79.4185430  91.0865500 120.7883070  79.8654730  91.7308240
 121.9592230  78.9134680  91.6103170 117.0048090  78.3776350  92.9830800
 117.4264510  78.2116220  93.8262190 117.1298930  77.5676580  92.4885940
 119.5175730  77.4013960  90.2307900 120.0381390  76.6862980  89.8649050
 120.1644130  78.0399830  90.5308410 115.9006990  74.4509580  89.9288960
 115.6996050  73.5876940  90.2902300 115.7299040  74.3642940  88.9910560
 123.3795300  69.2617810  92.4575840 123.6597590  68.4185710  92.8135260
 122.6061030  69.4940920  92.9714590 114.6989790  71.5510200  89.9166840
 115.0015690  71.5577630  89.0085990 115.4384380  71.2008060  90.4134500
 117.9174720  70.4944820  90.9023040 117.5696720  69.8168810  90.3225490
 118.1187490  70.0334330  91.7166430 120.0823760  85.4825570  92.5209640
 120.9774550  85.8210540  92.5428400 120.1141390  84.7604980  91.8933920
 113.7219920  80.8552620  90.7496640 114.1594790  81.3982290  91.4054220
 114.2067650  80.0299570  90.7592980 110.9365720  83.6441650  98.2016900
 111.2668730  82.7762710  97.9695540 111.3656720  83.8500170  99.0321860
 115.5327640  81.9750660  95.8618870 115.2323180  81.8515630  96.7622780
 115.4265130  81.1159250  95.4534600 111.4255930  84.5112240 100.9398530
 110.9886920  84.6913040 101.7722680 111.9933610  85.2686860 100.7980250
 111.2580360  77.0232470  97.2987410 110.6029200  76.7544110  96.6547110
 112.0958310  76.9136950  96.8489390 124.2070800  71.8173760  91.5205900
 124.6255680  71.6304740  90.6802560 123.9006860  70.9652810  91.8308830
 112.2956290  77.4085040 101.8390750 112.6629330  77.3212440 102.7186770
 111.7267110  76.6451590 101.7397610 110.4718440  74.2331400  93.2412740
 109.5682520  74.4961600  93.0664400 110.9559060  74.5042570  92.4612700
 113.0145650  73.2896940  91.1507120 113.7237350  72.8680160  90.6654400
 112.2985590  73.3572170  90.5190470 112.6619810  69.3436270  90.1909770
 113.3847940  69.8845210  90.5090990 112.9344330  69.0699690  89.3151310
 112.3512000  68.5942460 100.0932390 112.9988190  68.0439840  99.6527550
 112.7713840  68.8485610 100.9148200 117.4114400  83.4777320 102.6020620
 117.1705760  83.7451880 101.7151140 118.3517040  83.6483050 102.6571480
 116.7853730  84.4483360  99.8566130 117.3018750  83.8370720  99.3314390
 117.4351110  84.9512140 100.3477140 119.5249230  85.3391850 100.6835110
 119.8127040  85.0846150  99.8068120 120.0372450  84.7869210 101.2740680
 120.7426240  69.0782050 101.2631620 119.9598030  69.5527550 101.5428380
 120.4489170  68.1736880 101.1544800 111.4638630  85.5512750  96.2813480
 111.2960670  84.9183430  96.9795370 110.5973140  85.7572150  95.9307670
 112.0866650  69.3829530  93.7845340 112.8446010  69.4958410  93.2109370
 111.6243820  70.2198730  93.7388770 118.6280460  71.4968800  96.7747650
 117.8154970  71.1225690  96.4343530 119.1322100  70.7413880  97.0768840
 123.1305440  68.1611250  98.0130720 123.7334810  68.7331460  98.4879240
 122.3898430  68.7250690  97.7904620 113.0701330  84.2445980  93.7263620
 112.5448950  84.6254010  93.0225580 112.9945910  84.8696750  94.4473330
 114.4591800  69.9093580  92.3247310 114.9884560  69.1223380  92.1955260
 115.0920120  70.5884770  92.5582840 116.6529640  69.6468720  95.3792700
 116.0232380  68.9456030  95.5462830 116.1134780  70.4072850  95.1625860
 115.6694300  86.1928360  92.6012870 116.4013120  85.9087640  92.0536760
 115.9287970  85.9541640  93.4912250 114.8309090  82.3093090  92.6059200
 114.2017970  82.7778190  93.1545030 114.9456920  81.4642310  93.0405390
 122.2858810  76.3598750  78.7560400 122.2052860  75.4453360  78.4852110
 121.8723230  76.8565820  78.0500110 120.4176850  78.1377770  80.6369670
 119.6418950  77.6578210  80.9268240 121.0689780  77.4583420  80.4625830
 114.4342680  78.4497580  81.5145430 113.6027560  78.1946290  81.9141940
 115.0423660  78.5208350  82.2503350 124.4384280  82.5437960  79.4168800
 123.9765810  81.7725200  79.7455970 125.2509830  82.5704030  79.9221250
 114.4143940  82.4837670  81.7103450 114.7171980  81.5935410  81.5313670
 115.1587530  83.0407890  81.4825700 112.8434630  73.4099470  75.2987820
 111.9551330  73.7515440  75.1967700 113.1275820  73.2099790  74.4068650
 110.8067640  76.0105120  81.1827520 111.3783750  75.2427320  81.1831160
 110.8069180  76.3093880  80.2734130 120.6647590  84.8295970  79.0372790
 120.0459030  85.2853470  78.4667230 121.5199370  84.9847430  78.6362490
 119.8585840  80.8134960  80.6439830 119.7894120  79.8724900  80.4828960
 120.6205700  80.9036370  81.2162400 112.0492510  71.4189480  82.9696450
 111.8695350  70.5215230  83.2499210 111.6472590  71.9661350  83.6443400
 120.8891010  73.6205340  80.8708760 121.2655830  72.7477220  80.7582430
 120.7910520  73.9564040  79.9799200 115.0196020  71.9930970  76.3326200
 115.1262770  72.8934700  76.6394960 114.1088380  71.9448940  76.0420850
 112.6679180  73.9149980  81.5778790 113.3489290  74.1788350  82.1966190
 112.3527230  73.0750850  81.9116800 116.8603750  74.9617340  80.6651380
 117.3681970  75.4598310  81.3056400 117.3916990  74.1852540  80.4890740
 115.1439850  69.6015900  84.9314800 115.1458290  70.1188290  84.1260700
 114.3144160  69.1246080  84.9084730 121.5310940  79.7135210  76.4304700
 120.9128210  80.1784660  75.8667420 122.0434190  80.4062690  76.8474210
 116.3942700  79.2411080  83.1088300 116.0612080  79.8680000  83.7509370
 116.5709380  79.7672960  82.3289970 124.9076610  73.0556160  80.5764640
 124.2032180  73.3441050  81.1567750 125.2688770  73.8656270  80.2164200
 114.8255180  71.3125860  82.9385250 115.1671990  72.1567910  82.6439120
 113.8870990  71.4609600  83.0550590 115.6061800  81.2091880  84.9237480
 116.2235800  81.8842960  84.6421930 114.7454920  81.6179860  84.8324980
 110.8994140  80.3991740  73.8044330 110.5222120  80.8878840  73.0729230
 111.1567210  81.0717020  74.4350860 118.5083070  68.8008130  79.2629840
 118.8158050  68.2455020  78.5465340 117.5783770  68.9352590  79.0802830
 124.0598130  84.5175420  81.5537300 124.0725290  84.1137710  80.6859560
 123.5073350  85.2922710  81.4498730 123.4583570  79.4205260  82.8819910
 123.8752360  79.2065370  82.0473370 124.1823390  79.6778050  83.4528530
 120.8963830  76.8656960  75.9989960 119.9693110  76.7994340  76.2278430
 121.0488650  77.8037090  75.8845200 120.8832910  73.1373960  72.9957120
 119.9436580  73.2987920  73.0809580 121.2016170  73.8559640  72.4493110
 124.9261120  78.4277260  76.5025210 124.3073540  78.0896810  75.8551510
 124.9085570  77.7837020  77.2104400 124.3687680  74.6061800  83.9191020
 123.9558860  75.4315510  84.1731010 123.6363630  74.0206840  83.7267380
 116.5020470  77.3921700  78.7809690 116.0977470  76.6798950  78.2855590
 116.5883590  77.0474940  79.6697730 116.9702170  81.0789260  80.9448900
 116.6730460  80.4734730  80.2656680 117.9201990  81.1166570  80.8338260
 115.2149090  74.1664910  82.5608730 115.7663680  74.2760250  81.7861980
 115.7292600  74.5402510  83.2763960 125.0587780  84.6521130  84.6072000
 124.5818340  85.4593320  84.4144610 124.3749570  83.9999460  84.7598210
 116.0620600  80.8170950  87.5956700 115.1649130  81.0410920  87.8430100
 116.0873470  80.9405890  86.6468100 123.1025820  77.6664070  73.5097960
 123.5419100  76.8286500  73.3635780 123.8154240  78.2993470  73.5962100
 114.8891820  77.6884270  86.1714070 114.7499590  78.5607070  86.5401470
 114.0073180  77.3457080  86.0262010 121.2121200  82.6060140  77.4779200
 121.6517110  83.3484470  77.0634590 121.1508090  82.8486710  78.4018160
 116.6872170  83.6305970  88.3799220 116.6587600  84.0348920  87.5127650
 116.5237140  82.7016330  88.2170820 113.2025100  76.2866680  76.2816340
 113.0822700  77.0128770  75.6697610 112.8925990  75.5169590  75.8044250
 110.8410470  79.4581820  82.0884980 110.9190890  79.5930590  81.1440700
 111.4552150  78.7497710  82.2813100 112.0858100  81.1582010  78.4991160
 111.6786180  81.2996600  77.6444760 112.9771110  80.8742170  78.2962370
 121.9036980  85.3073920  85.4058210 122.4181650  85.2181930  86.2080640
 121.0606060  85.6533620  85.6986120 123.8791380  85.5929260  74.8342210
 123.7192520  85.3032200  75.7324040 123.7138090  84.8169390  74.2987440
 116.3579760  85.3727790  76.6113830 116.1822240  84.4563330  76.3981630
 115.5035500  85.7315080  76.8511630 123.5817510  83.1016820  73.3940210
 122.8882670  83.0994110  72.7342490 124.3240370  82.6776140  72.9634380
 123.1467440  84.7279530  77.4688700 123.6024390  83.9468910  77.7827320
 123.4859960  85.4386350  78.0129880 110.8969990  80.4995990  84.6279440
 111.0601030  80.0301350  83.8098810 111.3622440  79.9919550  85.2928280
 115.6688760  69.6301750  79.6640010 115.2256910  70.4111290  79.3324530
 116.2273750  69.9531640  80.3710950 119.9558570  72.4970270  85.2675330
 119.4937940  72.7053290  86.0795270 119.5536680  71.6829620  84.9646000
 124.9563080  73.7179220  86.3971990 124.1056670  73.4184970  86.7181060
 124.7964870  73.9621230  85.4855810 122.0512790  75.2180970  88.4970780
 122.3766200  74.3844720  88.1573010 122.8393120  75.7409490  88.6449110
 118.7847580  69.2512450  74.5445840 118.1601760  69.2472320  75.2699150
 118.6977700  68.3843410  74.1481810 117.7064660  70.1749080  81.5229610
 118.0036990  71.0811910  81.4421630 118.2550220  69.6867860  80.9089180
 115.4602980  74.7535320  77.3921260 115.2343900  74.5372490  78.2967880
 114.6795510  75.1863780  77.0467230 122.6900740  74.7598690  75.9911910
 122.0909630  75.4834490  75.8075530 123.2380350  74.6975470  75.2088360
 117.9002190  75.6520900  88.0581530 117.8045790  74.7115630  87.9081930
 118.7434170  75.8735970  87.6629600 121.2965610  73.3962230  78.0215190
 121.6895180  73.7134430  77.2083880 121.6582460  72.5174110  78.1359710
 113.0312730  72.0634570  86.2115310 112.6376120  72.9109780  86.4188090
 112.3431130  71.4260940  86.4023950 119.6057780  72.1469540  89.2812050
 118.9156100  71.9541740  89.9158140 120.3490080  72.4304180  89.8136350
 110.3329780  69.9863030  80.2445390 110.0442830  70.5565890  80.9570370
 111.0775540  69.5067480  80.6076620 110.5200010  73.9283150  71.4548110
 110.4374680  74.8713910  71.5963100 110.1683070  73.7858060  70.5760460
 121.8820750  75.9867980  82.1165970 121.1501870  76.4954790  82.4656070
 121.4845090  75.1697960  81.8154750 118.3198140  72.6622180  80.5218460
 118.3234200  72.2212130  79.6723000 119.2149260  72.9839510  80.6290280
 114.1700520  72.5448670  79.4812670 113.8300570  73.0223900  80.2379720
 113.4077840  72.0913790  79.1213770 118.3818290  73.6634260  73.5125220
 118.5031110  73.6220740  74.4611040 117.9966800  74.5258410  73.3571950
 122.3446660  71.4401660  81.5288910 122.3619400  71.8910310  82.3730760
 122.0962240  70.5407300  81.7422350 117.3939790  75.9735400  72.9108520
 116.8256690  75.5253650  72.2844430 118.1028790  76.3328180  72.3773670
 112.4708970  79.8747420  86.7875250 112.0863760  79.2341090  87.3858210
 112.7821160  80.5783540  87.3569980 118.6206110  76.7223960  82.2683870
 118.9876240  76.2482530  83.0145210 118.4311170  77.5965530  82.6092210
 111.4846600  71.4667650  78.3977340 111.1993520  71.1023320  79.2355960
 111.4225460  70.7348110  77.7840480 116.4105480  75.7632600  84.5868080
 116.1062550  76.6424580  84.8118440 117.3651940  75.8232390  84.6225520
 114.9387270  79.9693590  75.1834930 114.1649530  79.4291210  75.0233650
 115.6681900  79.4500200  74.8452690 121.1585190  70.3596910  75.1190710
 120.3449800  69.8610080  75.0436020 120.9647140  71.1995160  74.7027060
 121.0794050  79.0368010  86.8630320 121.0131360  78.1163680  86.6087910
 120.4499190  79.1343450  87.5774960 123.8733580  74.7316560  73.4152870
 124.7613200  75.0433790  73.2404210 123.8438670  73.8588810  73.0233450
 114.9824670  79.6373970  78.8213740 115.5003340  78.8342230  78.7670630
 114.5308690  79.5753110  79.6630570 119.8694170  80.9040250  74.0941040
 120.2109870  81.6482480  73.5984360 119.0406880  81.2171370  74.4565870
 112.4669210  76.6035340  85.7339440 112.1084150  77.2689190  86.3212780
 112.1723770  75.7718890  86.1052060 115.6682330  77.0619580  88.6178990
 115.3682470  77.2076760  87.7206810 116.4393570  76.5024870  88.5252380
 121.0110780  81.8588580  86.6134120 121.0255320  80.9269540  86.3953030
 120.3035880  81.9448340  87.2523890 122.7521580  80.2256090  79.4586550
 123.1045400  79.6284220  78.7987920 121.8683910  79.9000320  79.6294800
 118.8384860  80.9853780  76.8656960 119.5255990  81.5322990  77.2464550
 118.0517280  81.5294510  76.9006570 110.9777260  76.6026600  72.3574040
 111.8472110  76.8851400  72.6409960 110.4867580  77.4162470  72.2422850
 118.1412070  77.9899810  76.4782320 118.5974850  78.8005060  76.7042510
 117.7900280  77.6722950  77.3100810 120.4444680  83.5006150  83.7074620
 121.0886900  83.7065530  84.3848040 120.8074120  82.7394550  83.2545470
 114.0423850  68.3337460  76.9504840 113.9138480  68.3255360  77.8989760
 113.2185870  68.6720550  76.5995850 121.7176760  81.5038500  82.4252070
 122.3598990  80.8031660  82.5384240 122.2426110  82.2836940  82.2448960
 123.4914380  82.3033400  85.6288130 123.8270620  82.8900090  86.3066050
 122.5714720  82.1726110  85.8585920 111.3448510  85.8153980  72.9235670
 111.7046150  86.4143320  72.2692940 111.2040850  86.3613870  73.6970700
 111.0417780  70.0928580  86.4111540 110.3276300  70.2925500  87.0164150
 111.4612820  69.3168150  86.7826340 111.3290370  84.0808840  87.3978070
 111.4381490  83.1403580  87.2573460 110.6770930  84.3463590  86.7491800
 119.3202960  82.3524730  88.7976190 118.9999830  81.6333970  89.3421880
 118.6461320  83.0279800  88.8712250 117.3617130  83.1985180  73.7409340
 117.3527230  83.9314870  73.1253850 116.4415490  82.9516760  73.8336300
 112.9623770  78.4200070  74.4856100 112.3551720  79.1598970  74.4951400
 113.4373120  78.5099430  73.6594300 122.5356560  72.5850890  84.1612990
 122.9037380  71.7646100  84.4892560 121.6754760  72.6452780  84.5768640
 120.3476730  83.2613420  72.4034530 120.4488710  83.0577410  71.4736510
 119.4478470  83.0071700  72.6082310 117.8702620  73.8193780  76.3858430
 117.1618770  74.2880120  76.8272040 118.1547100  73.1615790  77.0203620
 119.4958550  75.2390480  84.3850960 119.9943800  75.7136300  85.0502810
 119.6381500  74.3154000  84.5920990 121.9018050  70.5444440  77.8254220
 121.7785830  70.5630570  76.8763730 122.8502610  70.5923380  77.9452620
 118.9894840  85.7799740  77.0982200 119.2436340  85.7421130  76.1761570
 118.0407320  85.6533070  77.0910450 116.0737640  72.1278860  73.7609140
 116.9228170  72.5649010  73.6949330 115.7068910  72.4399120  74.5881200
 124.9947420  76.6991620  78.6740710 124.0537560  76.7141850  78.8488400
 125.3091490  75.9127580  79.1201010 114.9729060  78.3811220  72.2344670
 115.7392330  78.2692580  72.7970100 115.0503750  77.6849190  71.5821440
 113.6675820  75.8136290  72.9177560 113.7479410  74.8663800  73.0294960
 114.5595570  76.1443170  73.0238220 114.4690530  85.9631680  80.0212100
 115.2053010  85.4147140  80.2920670 114.8531450  86.8287690  79.8818090
 111.3536010  82.0305250  75.8953610 110.4275790  82.2726390  75.8859020
 111.8192440  82.8579510  75.7738360 113.4748810  85.1477750  89.2097680
 114.2761540  85.4689800  89.6233080 112.9600630  84.7873330  89.9317590
 117.5792840  85.1361990  71.8437670 118.3721450  85.4250820  71.3919460
 117.0597190  84.7054160  71.1650150 122.3113440  81.2557620  89.1573090
 121.7051600  81.2789220  88.4168840 122.0067550  80.5240660  89.6940340
 123.7413810  84.9837910  87.7682500 124.6935560  84.8995930  87.7182740
 123.5942030  85.6479620  88.4416290 111.1946620  77.6351210  88.1533730
 111.6985640  77.0558490  88.7249960 110.4554040  77.9191440  88.6910100
 118.0970240  80.3565400  71.7080020 117.9920880  79.7417750  72.4341400
 117.9294460  79.8331290  70.9243030 118.2484560  79.0422200  87.6869250
 117.4830230  79.6107200  87.6023920 118.4300520  78.7498410  86.7937480
 121.3372970  79.4185430  72.3122010 120.7883070  79.8654730  72.9564750
 121.9592230  78.9134680  72.8359680 113.2269700  75.7780800  89.0483800
 113.2675040  75.4794670  89.9569030 114.0815200  76.1788410  88.8891320
 117.0048090  78.3776350  74.2087310 117.4264510  78.2116220  75.0518700
 117.1298930  77.5676580  73.7142450 115.1675510  74.3572900  87.0158290
 114.6371970  73.8663850  86.3881630 115.8363580  74.7857100  86.4816220
 119.5175730  77.4013960  71.4564410 120.0381390  76.6862980  71.0905560
 120.1644130  78.0399830  71.7564920 124.0653570  78.8242360  86.7799480
 124.4794590  78.9787440  87.6289900 123.1304570  78.9497580  86.9425260
 124.5375740  76.1638520  88.7838630 125.1196510  75.4090840  88.6959110
 124.7137510  76.6945960  88.0070110 115.6547810  71.3235270  87.0955580
 115.5604680  70.7056020  86.3706450 115.0745200  72.0501560  86.8685490
 118.4209250  69.8808510  84.1282970 117.9726550  69.9032770  83.2828520
 117.7874450  69.4827530  84.7253270 118.8268800  78.7762840  84.7495410
 119.2456910  79.6195570  84.5771650 117.9077430  78.9134880  84.5202190
 121.1632700  76.5079020  86.1333250 121.2828910  75.9120160  86.8728090
 122.0226700  76.5448710  85.7134550 123.5020600  77.0616210  84.7095760
 122.9755820  77.5858830  84.1060900 123.8451940  77.6943600  85.3405490
 115.9006990  74.4509580  71.1545470 115.6996050  73.5876940  71.5158810
 115.7299040  74.3642940  70.2167070 116.6776220  85.0815850  85.8653140
 116.1397310  85.8061910  85.5461840 116.9310180  84.6046190  85.0750480
 117.9301470  73.0500370  87.3909070 118.5201160  72.7416220  88.0786890
 117.1121710  72.5780120  87.5468970 122.7494900  72.6666180  87.6242090
 122.0610420  72.0047720  87.5592080 123.4700920  72.2204450  88.0690550
 123.3795300  69.2617810  73.6832350 123.6597590  68.4185710  74.0391770
 122.6061030  69.4940920  74.1971100 114.6989790  71.5510200  71.1423350
 115.0015690  71.5577630  70.2342500 115.4384380  71.2008060  71.6391010
 119.5338430  86.3167060  86.1239790 119.4597130  87.2202200  86.4312160
 118.6317270  85.9978960  86.0961860 117.9174720  70.4944820  72.1279550
 117.5696720  69.8168810  71.5482000 118.1187490  70.0334330  72.9422940
 120.0823760  85.4825570  73.7466150 120.9774550  85.8210540  73.7684910
 120.1141390  84.7604980  73.1190430 113.7219920  80.8552620  71.9753150
 114.1594790  81.3982290  72.6310730 114.2067650  80.0299570  71.9849490
 110.9365720  83.6441650  79.4273410 111.2668730  82.7762710  79.1952050
 111.3656720  83.8500170  80.2578370 115.5327640  81.9750660  77.0875380
 115.2323180  81.8515630  77.9879290 115.4265130  81.1159250  76.6791110
 111.4255930  84.5112240  82.1655040 110.9886920  84.6913040  82.9979190
 111.9933610  85.2686860  82.0236760 111.2580360  77.0232470  78.5243920
 110.6029200  76.7544110  77.8803620 112.0958310  76.9136950  78.0745900
 124.2070800  71.8173760  72.7462410 124.6255680  71.6304740  71.9059070
 123.9006860  70.9652810  73.0565340 112.2956290  77.4085040  83.0647260
 112.6629330  77.3212440  83.9443280 111.7267110  76.6451590  82.9654120
 111.8472290  74.3194130  86.9705680 110.9528340  74.2860890  87.3099390
 112.3869840  74.5180920  87.7356930 110.4718440  74.2331400  74.4669250
 109.5682520  74.4961600  74.2920910 110.9559060  74.5042570  73.6869210
 113.0145650  73.2896940  72.3763630 113.7237350  72.8680160  71.8910910
 112.2985590  73.3572170  71.7446980 112.6619810  69.3436270  71.4166280
 113.3847940  69.8845210  71.7347500 112.9344330  69.0699690  70.5407820
 112.3512000  68.5942460  81.3188900 112.9988190  68.0439840  80.8784060
 112.7713840  68.8485610  82.1404710 112.1044000  68.7498130  84.0614220
 111.7558820  69.2061950  84.8272400 111.7731700  67.8555260  84.1436650
 113.7108370  81.9217730  88.2267410 113.6678000  81.5510640  89.1081870
 113.8419380  82.8595300  88.3669230 117.4114400  83.4777320  83.8277130
 117.1705760  83.7451880  82.9407650 118.3517040  83.6483050  83.8827990
 119.6168820  69.9410010  87.5833640 119.5557710  70.5331840  88.3329050
 120.5569200  69.8335970  87.4383900 122.2543380  69.5980070  87.2225930
 122.8683790  69.9159360  86.5607010 122.7992940  69.1128660  87.8421790
 112.7764640  68.2774330  87.3364990 113.3247630  68.0962380  86.5731100
 112.8419950  67.4868440  87.8721300 113.5496400  84.8679980  85.3465190
 112.9556720  84.7364680  86.0855230 113.5420240  84.0318120  84.8807290
 122.9951420  68.1612210  83.5495220 122.1211260  68.4947320  83.3468150
 122.8862170  67.6885390  84.3747090 123.9023400  70.3683080  84.9336940
 123.5736760  69.5534840  84.5538670 124.8505700  70.3252890  84.8102630
 113.1808630  82.2338360  84.2973230 112.4542690  81.6143650  84.2299180
 113.2417780  82.6278970  83.4271310 116.7853730  84.4483360  81.0822640
 117.3018750  83.8370720  80.5570900 117.4351110  84.9512140  81.5733650
 119.5249230  85.3391850  81.9091620 119.8127040  85.0846150  81.0324630
 120.0372450  84.7869210  82.4997190 120.7426240  69.0782050  82.4888130
 119.9598030  69.5527550  82.7684890 120.4489170  68.1736880  82.3801310
 111.4638630  85.5512750  77.5069990 111.2960670  84.9183430  78.2051880
 110.5973140  85.7572150  77.1564180 112.0866650  69.3829530  75.0101850
 112.8446010  69.4958410  74.4365880 111.6243820  70.2198730  74.9645280
 118.6280460  71.4968800  78.0004160 117.8154970  71.1225690  77.6600040
 119.1322100  70.7413880  78.3025350 123.1305440  68.1611250  79.2387230
 123.7334810  68.7331460  79.7135750 122.3898430  68.7250690  79.0161130
 113.0701330  84.2445980  74.9520130 112.5448950  84.6254010  74.2482090
 112.9945910  84.8696750  75.6729840 114.4591800  69.9093580  73.5503820
 114.9884560  69.1223380  73.4211770 115.0920120  70.5884770  73.7839350
 116.6529640  69.6468720  76.6049210 116.0232380  68.9456030  76.7719340
 116.1134780  70.4072850  76.3882370 119.5921590  86.2607950  89.2759820
 120.5188900  86.0252220  89.3195780 119.5772020  87.0879950  88.7945850
 116.7785200  68.9252700  89.0401700 116.4969470  69.4286300  88.2762520
 117.1604900  68.1274450  88.6743830 115.6694300  86.1928360  73.8269380
 116.4013120  85.9087640  73.2793270 115.9287970  85.9541640  74.7168760
 114.8309090  82.3093090  73.8315710 114.2017970  82.7778190  74.3801540
 114.9456920  81.4642310  74.2661900 123.3800660  68.3406280  89.6182170
 123.2666110  68.6600890  90.5133690 124.1970400  68.7418790  89.3219450
 122.2858810  76.3598750  59.9816910 122.2052860  75.4453360  59.7108620
 121.8723230  76.8565820  59.2756620 120.4176850  78.1377770  61.8626180
 119.6418950  77.6578210  62.1524750 121.0689780  77.4583420  61.6882340
 114.4342680  78.4497580  62.7401940 113.6027560  78.1946290  63.1398450
 115.0423660  78.5208350  63.4759860 124.4384280  82.5437960  60.6425310
 123.9765810  81.7725200  60.9712480 125.2509830  82.5704030  61.1477760
 114.4143940  82.4837670  62.9359960 114.7171980  81.5935410  62.7570180
 115.1587530  83.0407890  62.7082210 112.8434630  73.4099470  56.5244330
 111.9551330  73.7515440  56.4224210 113.1275820  73.2099790  55.6325160
 110.8067640  76.0105120  62.4084030 111.3783750  75.2427320  62.4087670
 110.8069180  76.3093880  61.4990640 120.6647590  84.8295970  60.2629300
 120.0459030  85.2853470  59.6923740 121.5199370  84.9847430  59.8619000
 119.8585840  80.8134960  61.8696340 119.7894120  79.8724900  61.7085470
 120.6205700  80.9036370  62.4418910 112.0492510  71.4189480  64.1952960
 111.8695350  70.5215230  64.4755720 111.6472590  71.9661350  64.8699910
 120.8891010  73.6205340  62.0965270 121.2655830  72.7477220  61.9838940
 120.7910520  73.9564040  61.2055710 115.0196020  71.9930970  57.5582710
 115.1262770  72.8934700  57.8651470 114.1088380  71.9448940  57.2677360
 112.6679180  73.9149980  62.8035300 113.3489290  74.1788350  63.4222700
 112.3527230  73.0750850  63.1373310 116.8603750  74.9617340  61.8907890
 117.3681970  75.4598310  62.5312910 117.3916990  74.1852540  61.7147250
 115.1439850  69.6015900  66.1571310 115.1458290  70.1188290  65.3517210
 114.3144160  69.1246080  66.1341240 121.5310940  79.7135210  57.6561210
 120.9128210  80.1784660  57.0923930 122.0434190  80.4062690  58.0730720
 116.3942700  79.2411080  64.3344810 116.0612080  79.8680000  64.9765880
 116.5709380  79.7672960  63.5546480 124.9076610  73.0556160  61.8021150
 124.2032180  73.3441050  62.3824260 125.2688770  73.8656270  61.4420710
 114.8255180  71.3125860  64.1641760 115.1671990  72.1567910  63.8695630
 113.8870990  71.4609600  64.2807100 115.6061800  81.2091880  66.1493990
 116.2235800  81.8842960  65.8678440 114.7454920  81.6179860  66.0581490
 110.8994140  80.3991740  55.0300840 110.5222120  80.8878840  54.2985740
 111.1567210  81.0717020  55.6607370 118.5083070  68.8008130  60.4886350
 118.8158050  68.2455020  59.7721850 117.5783770  68.9352590  60.3059340
 124.0598130  84.5175420  62.7793810 124.0725290  84.1137710  61.9116070
 123.5073350  85.2922710  62.6755240 123.4583570  79.4205260  64.1076420
 123.8752360  79.2065370  63.2729880 124.1823390  79.6778050  64.6785040
 120.8963830  76.8656960  57.2246470 119.9693110  76.7994340  57.4534940
 121.0488650  77.8037090  57.1101710 120.8832910  73.1373960  54.2213630
 119.9436580  73.2987920  54.3066090 121.2016170  73.8559640  53.6749620
 124.9261120  78.4277260  57.7281720 124.3073540  78.0896810  57.0808020
 124.9085570  77.7837020  58.4360910 124.3687680  74.6061800  65.1447530
 123.9558860  75.4315510  65.3987520 123.6363630  74.0206840  64.9523890
 116.5020470  77.3921700  60.0066200 116.0977470  76.6798950  59.5112100
 116.5883590  77.0474940  60.8954240 116.9702170  81.0789260  62.1705410
 116.6730460  80.4734730  61.4913190 117.9201990  81.1166570  62.0594770
 115.2149090  74.1664910  63.7865240 115.7663680  74.2760250  63.0118490
 115.7292600  74.5402510  64.5020470 125.0587780  84.6521130  65.8328510
 124.5818340  85.4593320  65.6401120 124.3749570  83.9999460  65.9854720
 116.0620600  80.8170950  68.8213210 115.1649130  81.0410920  69.0686610
 116.0873470  80.9405890  67.8724610 123.1025820  77.6664070  54.7354470
 123.5419100  76.8286500  54.5892290 123.8154240  78.2993470  54.8218610
 114.8891820  77.6884270  67.3970580 114.7499590  78.5607070  67.7657980
 114.0073180  77.3457080  67.2518520 121.2121200  82.6060140  58.7035710
 121.6517110  83.3484470  58.2891100 121.1508090  82.8486710  59.6274670
 116.6872170  83.6305970  69.6055730 116.6587600  84.0348920  68.7384160
 116.5237140  82.7016330  69.4427330 113.2025100  76.2866680  57.5072850
 113.0822700  77.0128770  56.8954120 112.8925990  75.5169590  57.0300760
 110.8410470  79.4581820  63.3141490 110.9190890  79.5930590  62.3697210
 111.4552150  78.7497710  63.5069610 112.0858100  81.1582010  59.7247670
 111.6786180  81.2996600  58.8701270 112.9771110  80.8742170  59.5218880
 121.9036980  85.3073920  66.6314720 122.4181650  85.2181930  67.4337150
 121.0606060  85.6533620  66.9242630 123.8791380  85.5929260  56.0598720
 123.7192520  85.3032200  56.9580550 123.7138090  84.8169390  55.5243950
 116.3579760  85.3727790  57.8370340 116.1822240  84.4563330  57.6238140
 115.5035500  85.7315080  58.0768140 123.5817510  83.1016820  54.6196720
 122.8882670  83.0994110  53.9599000 124.3240370  82.6776140  54.1890890
 123.1467440  84.7279530  58.6945210 123.6024390  83.9468910  59.0083830
 123.4859960  85.4386350  59.2386390 110.8969990  80.4995990  65.8535950
 111.0601030  80.0301350  65.0355320 111.3622440  79.9919550  66.5184790
 115.6688760  69.6301750  60.8896520 115.2256910  70.4111290  60.5581040
 116.2273750  69.9531640  61.5967460 119.9558570  72.4970270  66.4931840
 119.4937940  72.7053290  67.3051780 119.5536680  71.6829620  66.1902510
 124.9563080  73.7179220  67.6228500 124.1056670  73.4184970  67.9437570
 124.7964870  73.9621230  66.7112320 122.0512790  75.2180970  69.7227290
 122.3766200  74.3844720  69.3829520 122.8393120  75.7409490  69.8705620
 118.7847580  69.2512450  55.7702350 118.1601760  69.2472320  56.4955660
 118.6977700  68.3843410  55.3738320 117.7064660  70.1749080  62.7486120
 118.0036990  71.0811910  62.6678140 118.2550220  69.6867860  62.1345690
 115.4602980  74.7535320  58.6177770 115.2343900  74.5372490  59.5224390
 114.6795510  75.1863780  58.2723740 122.6900740  74.7598690  57.2168420
 122.0909630  75.4834490  57.0332040 123.2380350  74.6975470  56.4344870
 117.9002190  75.6520900  69.2838040 117.8045790  74.7115630  69.1338440
 118.7434170  75.8735970  68.8886110 121.2965610  73.3962230  59.2471700
 121.6895180  73.7134430  58.4340390 121.6582460  72.5174110  59.3616220
 113.0312730  72.0634570  67.4371820 112.6376120  72.9109780  67.6444600
 112.3431130  71.4260940  67.6280460 119.6057780  72.1469540  70.5068560
 118.9156100  71.9541740  71.1414650 120.3490080  72.4304180  71.0392860
 110.3329780  69.9863030  61.4701900 110.0442830  70.5565890  62.1826880
 111.0775540  69.5067480  61.8333130 110.5200010  73.9283150  52.6804620
 110.4374680  74.8713910  52.8219610 110.1683070  73.7858060  51.8016970
 121.8820750  75.9867980  63.3422480 121.1501870  76.4954790  63.6912580
 121.4845090  75.1697960  63.0411260 118.3198140  72.6622180  61.7474970
 118.3234200  72.2212130  60.8979510 119.2149260  72.9839510  61.8546790
 114.1700520  72.5448670  60.7069180 113.8300570  73.0223900  61.4636230
 113.4077840  72.0913790  60.3470280 118.3818290  73.6634260  54.7381730
 118.5031110  73.6220740  55.6867550 117.9966800  74.5258410  54.5828460
 122.3446660  71.4401660  62.7545420 122.3619400  71.8910310  63.5987270
 122.0962240  70.5407300  62.9678860 117.3939790  75.9735400  54.1365030
 116.8256690  75.5253650  53.5100940 118.1028790  76.3328180  53.6030180
 112.4708970  79.8747420  68.0131760 112.0863760  79.2341090  68.6114720
 112.7821160  80.5783540  68.5826490 118.6206110  76.7223960  63.4940380
 118.9876240  76.2482530  64.2401720 118.4311170  77.5965530  63.8348720
 111.4846600  71.4667650  59.6233850 111.1993520  71.1023320  60.4612470
 111.4225460  70.7348110  59.0096990 116.4105480  75.7632600  65.8124590
 116.1062550  76.6424580  66.0374950 117.3651940  75.8232390  65.8482030
 114.9387270  79.9693590  56.4091440 114.1649530  79.4291210  56.2490160
 115.6681900  79.4500200  56.0709200 121.1585190  70.3596910  56.3447220
 120.3449800  69.8610080  56.2692530 120.9647140  71.1995160  55.9283570
 121.0794050  79.0368010  68.0886830 121.0131360  78.1163680  67.8344420
 120.4499190  79.1343450  68.8031470 123.8733580  74.7316560  54.6409380
 124.7613200  75.0433790  54.4660720 123.8438670  73.8588810  54.2489960
 114.9824670  79.6373970  60.0470250 115.5003340  78.8342230  59.9927140
 114.5308690  79.5753110  60.8887080 119.8694170  80.9040250  55.3197550
 120.2109870  81.6482480  54.8240870 119.0406880  81.2171370  55.6822380
 112.4669210  76.6035340  66.9595950 112.1084150  77.2689190  67.5469290
 112.1723770  75.7718890  67.3308570 115.6682330  77.0619580  69.8435500
 115.3682470  77.2076760  68.9463320 116.4393570  76.5024870  69.7508890
 121.0110780  81.8588580  67.8390630 121.0255320  80.9269540  67.6209540
 120.3035880  81.9448340  68.4780400 122.7521580  80.2256090  60.6843060
 123.1045400  79.6284220  60.0244430 121.8683910  79.9000320  60.8551310
 118.8384860  80.9853780  58.0913470 119.5255990  81.5322990  58.4721060
 118.0517280  81.5294510  58.1263080 110.9777260  76.6026600  53.5830550
 111.8472110  76.8851400  53.8666470 110.4867580  77.4162470  53.4679360
 118.1412070  77.9899810  57.7038830 118.5974850  78.8005060  57.9299020
 117.7900280  77.6722950  58.5357320 120.4444680  83.5006150  64.9331130
 121.0886900  83.7065530  65.6104550 120.8074120  82.7394550  64.4801980
 114.0423850  68.3337460  58.1761350 113.9138480  68.3255360  59.1246270
 113.2185870  68.6720550  57.8252360 121.7176760  81.5038500  63.6508580
 122.3598990  80.8031660  63.7640750 122.2426110  82.2836940  63.4705470
 123.4914380  82.3033400  66.8544640 123.8270620  82.8900090  67.5322560
 122.5714720  82.1726110  67.0842430 111.3448510  85.8153980  54.1492180
 111.7046150  86.4143320  53.4949450 111.2040850  86.3613870  54.9227210
 111.0417780  70.0928580  67.6368050 110.3276300  70.2925500  68.2420660
 111.4612820  69.3168150  68.0082850 111.3290370  84.0808840  68.6234580
 111.4381490  83.1403580  68.4829970 110.6770930  84.3463590  67.9748310
 119.3202960  82.3524730  70.0232700 118.9999830  81.6333970  70.5678390
 118.6461320  83.0279800  70.0968760 117.3617130  83.1985180  54.9665850
 117.3527230  83.9314870  54.3510360 116.4415490  82.9516760  55.0592810
 112.9623770  78.4200070  55.7112610 112.3551720  79.1598970  55.7207910
 113.4373120  78.5099430  54.8850810 122.5356560  72.5850890  65.3869500
 122.9037380  71.7646100  65.7149070 121.6754760  72.6452780  65.8025150
 120.3476730  83.2613420  53.6291040 120.4488710  83.0577410  52.6993020
 119.4478470  83.0071700  53.8338820 117.8702620  73.8193780  57.6114940
 117.1618770  74.2880120  58.0528550 118.1547100  73.1615790  58.2460130
 119.4958550  75.2390480  65.6107470 119.9943800  75.7136300  66.2759320
 119.6381500  74.3154000  65.8177500 121.9018050  70.5444440  59.0510730
 121.7785830  70.5630570  58.1020240 122.8502610  70.5923380  59.1709130
 118.9894840  85.7799740  58.3238710 119.2436340  85.7421130  57.4018080
 118.0407320  85.6533070  58.3166960 116.0737640  72.1278860  54.9865650
 116.9228170  72.5649010  54.9205840 115.7068910  72.4399120  55.8137710
 124.9947420  76.6991620  59.8997220 124.0537560  76.7141850  60.0744910
 125.3091490  75.9127580  60.3457520 114.9729060  78.3811220  53.4601180
 115.7392330  78.2692580  54.0226610 115.0503750  77.6849190  52.8077950
 113.6675820  75.8136290  54.1434070 113.7479410  74.8663800  54.2551470
 114.5595570  76.1443170  54.2494730 114.4690530  85.9631680  61.2468610
 115.2053010  85.4147140  61.5177180 114.8531450  86.8287690  61.1074600
 111.3536010  82.0305250  57.1210120 110.4275790  82.2726390  57.1115530
 111.8192440  82.8579510  56.9994870 113.4748810  85.1477750  70.4354190
 114.2761540  85.4689800  70.8489590 112.9600630  84.7873330  71.1574100
 117.5792840  85.1361990  53.0694180 118.3721450  85.4250820  52.6175970
 117.0597190  84.7054160  52.3906660 122.3113440  81.2557620  70.3829600
 121.7051600  81.2789220  69.6425350 122.0067550  80.5240660  70.9196850
 123.7413810  84.9837910  68.9939010 124.6935560  84.8995930  68.9439250
 123.5942030  85.6479620  69.6672800 111.1946620  77.6351210  69.3790240
 111.6985640  77.0558490  69.9506470 110.4554040  77.9191440  69.9166610
 118.0970240  80.3565400  52.9336530 117.9920880  79.7417750  53.6597910
 117.9294460  79.8331290  52.1499540 118.2484560  79.0422200  68.9125760
 117.4830230  79.6107200  68.8280430 118.4300520  78.7498410  68.0193990
 121.3372970  79.4185430  53.5378520 120.7883070  79.8654730  54.1821260
 121.9592230  78.9134680  54.0616190 113.2269700  75.7780800  70.2740310
 113.2675040  75.4794670  71.1825540 114.0815200  76.1788410  70.1147830
 117.0048090  78.3776350  55.4343820 117.4264510  78.2116220  56.2775210
 117.1298930  77.5676580  54.9398960 115.1675510  74.3572900  68.2414800
 114.6371970  73.8663850  67.6138140 115.8363580  74.7857100  67.7072730
 119.5175730  77.4013960  52.6820920 120.0381390  76.6862980  52.3162070
 120.1644130  78.0399830  52.9821430 124.0653570  78.8242360  68.0055990
 124.4794590  78.9787440  68.8546410 123.1304570  78.9497580  68.1681770
 124.5375740  76.1638520  70.0095140 125.1196510  75.4090840  69.9215620
 124.7137510  76.6945960  69.2326620 115.6547810  71.3235270  68.3212090
 115.5604680  70.7056020  67.5962960 115.0745200  72.0501560  68.0942000
 118.4209250  69.8808510  65.3539480 117.9726550  69.9032770  64.5085030
 117.7874450  69.4827530  65.9509780 118.8268800  78.7762840  65.9751920
 119.2456910  79.6195570  65.8028160 117.9077430  78.9134880  65.7458700
 121.1632700  76.5079020  67.3589760 121.2828910  75.9120160  68.0984600
 122.0226700  76.5448710  66.9391060 123.5020600  77.0616210  65.9352270
 122.9755820  77.5858830  65.3317410 123.8451940  77.6943600  66.5662000
 115.9006990  74.4509580  52.3801980 115.6996050  73.5876940  52.7415320
 115.7299040  74.3642940  51.4423580 116.6776220  85.0815850  67.0909650
 116.1397310  85.8061910  66.7718350 116.9310180  84.6046190  66.3006990
 117.9301470  73.0500370  68.6165580 118.5201160  72.7416220  69.3043400
 117.1121710  72.5780120  68.7725480 122.7494900  72.6666180  68.8498600
 122.0610420  72.0047720  68.7848590 123.4700920  72.2204450  69.2947060
 123.3795300  69.2617810  54.9088860 123.6597590  68.4185710  55.2648280
 122.6061030  69.4940920  55.4227610 114.6989790  71.5510200  52.3679860
 115.0015690  71.5577630  51.4599010 115.4384380  71.2008060  52.8647520
 119.5338430  86.3167060  67.3496300 119.4597130  87.2202200  67.6568670
 118.6317270  85.9978960  67.3218370 117.9174720  70.4944820  53.3536060
 117.5696720  69.8168810  52.7738510 118.1187490  70.0334330  54.1679450
 120.0823760  85.4825570  54.9722660 120.9774550  85.8210540  54.9941420
 120.1141390  84.7604980  54.3446940 113.7219920  80.8552620  53.2009660
 114.1594790  81.3982290  53.8567240 114.2067650  80.0299570  53.2106000
 110.9365720  83.6441650  60.6529920 111.2668730  82.7762710  60.4208560
 111.3656720  83.8500170  61.4834880 115.5327640  81.9750660  58.3131890
 115.2323180  81.8515630  59.2135800 115.4265130  81.1159250  57.9047620
 111.4255930  84.5112240  63.3911550 110.9886920  84.6913040  64.2235700
 111.9933610  85.2686860  63.2493270 111.2580360  77.0232470  59.7500430
 110.6029200  76.7544110  59.1060130 112.0958310  76.9136950  59.3002410
 124.2070800  71.8173760  53.9718920 124.6255680  71.6304740  53.1315580
 123.9006860  70.9652810  54.2821850 112.2956290  77.4085040  64.2903770
 112.6629330  77.3212440  65.1699790 111.7267110  76.6451590  64.1910630
 111.8472290  74.3194130  68.1962190 110.9528340  74.2860890  68.5355900
 112.3869840  74.5180920  68.9613440 110.4718440  74.2331400  55.6925760
 109.5682520  74.4961600  55.5177420 110.9559060  74.5042570  54.9125720
 113.0145650  73.2896940  53.6020140 113.7237350  72.8680160  53.1167420
 112.2985590  73.3572170  52.9703490 112.6619810  69.3436270  52.6422790
 113.3847940  69.8845210  52.9604010 112.9344330  69.0699690  51.7664330
 112.3512000  68.5942460  62.5445410 112.9988190  68.0439840  62.1040570
 112.7713840  68.8485610  63.3661220 112.1044000  68.7498130  65.2870730
 111.7558820  69.2061950  66.0528910 111.7731700  67.8555260  65.3693160
 113.7108370  81.9217730  69.4523920 113.6678000  81.5510640  70.3338380
 113.8419380  82.8595300  69.5925740 117.4114400  83.4777320  65.0533640
 117.1705760  83.7451880  64.1664160 118.3517040  83.6483050  65.1084500
 119.6168820  69.9410010  68.8090150 119.5557710  70.5331840  69.5585560
 120.5569200  69.8335970  68.6640410 122.2543380  69.5980070  68.4482440
 122.8683790  69.9159360  67.7863520 122.7992940  69.1128660  69.0678300
 112.7764640  68.2774330  68.5621500 113.3247630  68.0962380  67.7987610
 112.8419950  67.4868440  69.0977810 113.5496400  84.8679980  66.5721700
 112.9556720  84.7364680  67.3111740 113.5420240  84.0318120  66.1063800
 122.9951420  68.1612210  64.7751730 122.1211260  68.4947320  64.5724660
 122.8862170  67.6885390  65.6003600 123.9023400  70.3683080  66.1593450
 123.5736760  69.5534840  65.7795180 124.8505700  70.3252890  66.0359140
 113.1808630  82.2338360  65.5229740 112.4542690  81.6143650  65.4555690
 113.2417780  82.6278970  64.6527820 116.7853730  84.4483360  62.3079150
 117.3018750  83.8370720  61.7827410 117.4351110  84.9512140  62.7990160
 119.5249230  85.3391850  63.1348130 119.8127040  85.0846150  62.2581140
 120.0372450  84.7869210  63.7253700 120.7426240  69.0782050  63.7144640
 119.9598030  69.5527550  63.9941400 120.4489170  68.1736880  63.6057820
 111.4638630  85.5512750  58.7326500 111.2960670  84.9183430  59.4308390
 110.5973140  85.7572150  58.3820690 112.0866650  69.3829530  56.2358360
 112.8446010  69.4958410  55.6622390 111.6243820  70.2198730  56.1901790
 118.6280460  71.4968800  59.2260670 117.8154970  71.1225690  58.8856550
 119.1322100  70.7413880  59.5281860 123.1305440  68.1611250  60.4643740
 123.7334810  68.7331460  60.9392260 122.3898430  68.7250690  60.2417640
 113.0701330  84.2445980  56.1776640 112.5448950  84.6254010  55.4738600
 112.9945910  84.8696750  56.8986350 114.4591800  69.9093580  54.7760330
 114.9884560  69.1223380  54.6468280 115.0920120  70.5884770  55.0095860
 116.6529640  69.6468720  57.8305720 116.0232380  68.9456030  57.9975850
 116.1134780  70.4072850  57.6138880 119.5921590  86.2607950  70.5016330
 120.5188900  86.0252220  70.5452290 119.5772020  87.0879950  70.0202360
 116.7785200  68.9252700  70.2658210 116.4969470  69.4286300  69.5019030
 117.1604900  68.1274450  69.9000340 115.6694300  86.1928360  55.0525890
 116.4013120  85.9087640  54.5049780 115.9287970  85.9541640  55.9425270
 114.8309090  82.3093090  55.0572220 114.2017970  82.7778190  55.6058050
 114.9456920  81.4642310  55.4918410 123.3800660  68.3406280  70.8438680
 123.2666110  68.6600890  71.7390200 124.1970400  68.7418790  70.5475960
 122.2858810  76.3598750  41.2073420 122.2052860  75.4453360  40.9365130
 121.8723230  76.8565820  40.5013130 120.4176850  78.1377770  43.0882690
 119.6418950  77.6578210  43.3781260 121.0689780  77.4583420  42.9138850
 114.4342680  78.4497580  43.9658450 113.6027560  78.1946290  44.3654960
 115.0423660  78.5208350  44.7016370 124.4384280  82.5437960  41.8681820
 123.9765810  81.7725200  42.1968990 125.2509830  82.5704030  42.3734270
 114.4143940  82.4837670  44.1616470 114.7171980  81.5935410  43.9826690
 115.1587530  83.0407890  43.9338720 112.8434630  73.4099470  37.7500840
 111.9551330  73.7515440  37.6480720 113.1275820  73.2099790  36.8581670
 110.8067640  76.0105120  43.6340540 111.3783750  75.2427320  43.6344180
 110.8069180  76.3093880  42.7247150 120.6647590  84.8295970  41.4885810
 120.0459030  85.2853470  40.9180250 121.5199370  84.9847430  41.0875510
 119.8585840  80.8134960  43.0952850 119.7894120  79.8724900  42.9341980
 120.6205700  80.9036370  43.6675420 112.0492510  71.4189480  45.4209470
 111.8695350  70.5215230  45.7012230 111.6472590  71.9661350  46.0956420
 120.8891010  73.6205340  43.3221780 121.2655830  72.7477220  43.2095450
 120.7910520  73.9564040  42.4312220 115.0196020  71.9930970  38.7839220
 115.1262770  72.8934700  39.0907980 114.1088380  71.9448940  38.4933870
 112.6679180  73.9149980  44.0291810 113.3489290  74.1788350  44.6479210
 112.3527230  73.0750850  44.3629820 116.8603750  74.9617340  43.1164400
 117.3681970  75.4598310  43.7569420 117.3916990  74.1852540  42.9403760
 115.1439850  69.6015900  47.3827820 115.1458290  70.1188290  46.5773720
 114.3144160  69.1246080  47.3597750 121.5310940  79.7135210  38.8817720
 120.9128210  80.1784660  38.3180440 122.0434190  80.4062690  39.2987230
 116.3942700  79.2411080  45.5601320 116.0612080  79.8680000  46.2022390
 116.5709380  79.7672960  44.7802990 124.9076610  73.0556160  43.0277660
 124.2032180  73.3441050  43.6080770 125.2688770  73.8656270  42.6677220
 114.8255180  71.3125860  45.3898270 115.1671990  72.1567910  45.0952140
 113.8870990  71.4609600  45.5063610 115.6061800  81.2091880  47.3750500
 116.2235800  81.8842960  47.0934950 114.7454920  81.6179860  47.2838000
 110.8994140  80.3991740  36.2557350 110.5222120  80.8878840  35.5242250
 111.1567210  81.0717020  36.8863880 118.5083070  68.8008130  41.7142860
 118.8158050  68.2455020  40.9978360 117.5783770  68.9352590  41.5315850
 124.0598130  84.5175420  44.0050320 124.0725290  84.1137710  43.1372580
 123.5073350  85.2922710  43.9011750 123.4583570  79.4205260  45.3332930
 123.8752360  79.2065370  44.4986390 124.1823390  79.6778050  45.9041550
 120.8963830  76.8656960  38.4502980 119.9693110  76.7994340  38.6791450
 121.0488650  77.8037090  38.3358220 120.8832910  73.1373960  35.4470140
 119.9436580  73.2987920  35.5322600 121.2016170  73.8559640  34.9006130
 124.9261120  78.4277260  38.9538230 124.3073540  78.0896810  38.3064530
 124.9085570  77.7837020  39.6617420 124.3687680  74.6061800  46.3704040
 123.9558860  75.4315510  46.6244030 123.6363630  74.0206840  46.1780400
 116.5020470  77.3921700  41.2322710 116.0977470  76.6798950  40.7368610
 116.5883590  77.0474940  42.1210750 116.9702170  81.0789260  43.3961920
 116.6730460  80.4734730  42.7169700 117.9201990  81.1166570  43.2851280
 115.2149090  74.1664910  45.0121750 115.7663680  74.2760250  44.2375000
 115.7292600  74.5402510  45.7276980 125.0587780  84.6521130  47.0585020
 124.5818340  85.4593320  46.8657630 124.3749570  83.9999460  47.2111230
 116.0620600  80.8170950  50.0469720 115.1649130  81.0410920  50.2943120
 116.0873470  80.9405890  49.0981120 123.1025820  77.6664070  35.9610980
 123.5419100  76.8286500  35.8148800 123.8154240  78.2993470  36.0475120
 114.8891820  77.6884270  48.6227090 114.7499590  78.5607070  48.9914490
 114.0073180  77.3457080  48.4775030 121.2121200  82.6060140  39.9292220
 121.6517110  83.3484470  39.5147610 121.1508090  82.8486710  40.8531180
 116.6872170  83.6305970  50.8312240 116.6587600  84.0348920  49.9640670
 116.5237140  82.7016330  50.6683840 113.2025100  76.2866680  38.7329360
 113.0822700  77.0128770  38.1210630 112.8925990  75.5169590  38.2557270
 110.8410470  79.4581820  44.5398000 110.9190890  79.5930590  43.5953720
 111.4552150  78.7497710  44.7326120 112.0858100  81.1582010  40.9504180
 111.6786180  81.2996600  40.0957780 112.9771110  80.8742170  40.7475390
 121.9036980  85.3073920  47.8571230 122.4181650  85.2181930  48.6593660
 121.0606060  85.6533620  48.1499140 123.8791380  85.5929260  37.2855230
 123.7192520  85.3032200  38.1837060 123.7138090  84.8169390  36.7500460
 116.3579760  85.3727790  39.0626850 116.1822240  84.4563330  38.8494650
 115.5035500  85.7315080  39.3024650 123.5817510  83.1016820  35.8453230
 122.8882670  83.0994110  35.1855510 124.3240370  82.6776140  35.4147400
 123.1467440  84.7279530  39.9201720 123.6024390  83.9468910  40.2340340
 123.4859960  85.4386350  40.4642900 110.8969990  80.4995990  47.0792460
 111.0601030  80.0301350  46.2611830 111.3622440  79.9919550  47.7441300
 115.6688760  69.6301750  42.1153030 115.2256910  70.4111290  41.7837550
 116.2273750  69.9531640  42.8223970 119.9558570  72.4970270  47.7188350
 119.4937940  72.7053290  48.5308290 119.5536680  71.6829620  47.4159020
 124.9563080  73.7179220  48.8485010 124.1056670  73.4184970  49.1694080
 124.7964870  73.9621230  47.9368830 122.0512790  75.2180970  50.9483800
 122.3766200  74.3844720  50.6086030 122.8393120  75.7409490  51.0962130
 118.7847580  69.2512450  36.9958860 118.1601760  69.2472320  37.7212170
 118.6977700  68.3843410  36.5994830 117.7064660  70.1749080  43.9742630
 118.0036990  71.0811910  43.8934650 118.2550220  69.6867860  43.3602200
 115.4602980  74.7535320  39.8434280 115.2343900  74.5372490  40.7480900
 114.6795510  75.1863780  39.4980250 122.6900740  74.7598690  38.4424930
 122.0909630  75.4834490  38.2588550 123.2380350  74.6975470  37.6601380
 117.9002190  75.6520900  50.5094550 117.8045790  74.7115630  50.3594950
 118.7434170  75.8735970  50.1142620 121.2965610  73.3962230  40.4728210
 121.6895180  73.7134430  39.6596900 121.6582460  72.5174110  40.5872730
 113.0312730  72.0634570  48.6628330 112.6376120  72.9109780  48.8701110
 112.3431130  71.4260940  48.8536970 119.6057780  72.1469540  51.7325070
 118.9156100  71.9541740  52.3671160 120.3490080  72.4304180  52.2649370
 110.3329780  69.9863030  42.6958410 110.0442830  70.5565890  43.4083390
 111.0775540  69.5067480  43.0589640 110.5200010  73.9283150  33.9061130
 110.4374680  74.8713910  34.0476120 110.1683070  73.7858060  33.0273480
 121.8820750  75.9867980  44.5678990 121.1501870  76.4954790  44.9169090
 121.4845090  75.1697960  44.2667770 118.3198140  72.6622180  42.9731480
 118.3234200  72.2212130  42.1236020 119.2149260  72.9839510  43.0803300
 114.1700520  72.5448670  41.9325690 113.8300570  73.0223900  42.6892740
 113.4077840  72.0913790  41.5726790 118.3818290  73.6634260  35.9638240
 118.5031110  73.6220740  36.9124060 117.9966800  74.5258410  35.8084970
 122.3446660  71.4401660  43.9801930 122.3619400  71.8910310  44.8243780
 122.0962240  70.5407300  44.1935370 117.3939790  75.9735400  35.3621540
 116.8256690  75.5253650  34.7357450 118.1028790  76.3328180  34.8286690
 112.4708970  79.8747420  49.2388270 112.0863760  79.2341090  49.8371230
 112.7821160  80.5783540  49.8083000 118.6206110  76.7223960  44.7196890
 118.9876240  76.2482530  45.4658230 118.4311170  77.5965530  45.0605230
 111.4846600  71.4667650  40.8490360 111.1993520  71.1023320  41.6868980
 111.4225460  70.7348110  40.2353500 116.4105480  75.7632600  47.0381100
 116.1062550  76.6424580  47.2631460 117.3651940  75.8232390  47.0738540
 114.9387270  79.9693590  37.6347950 114.1649530  79.4291210  37.4746670
 115.6681900  79.4500200  37.2965710 121.1585190  70.3596910  37.5703730
 120.3449800  69.8610080  37.4949040 120.9647140  71.1995160  37.1540080
 121.0794050  79.0368010  49.3143340 121.0131360  78.1163680  49.0600930
 120.4499190  79.1343450  50.0287980 123.8733580  74.7316560  35.8665890
 124.7613200  75.0433790  35.6917230 123.8438670  73.8588810  35.4746470
 114.9824670  79.6373970  41.2726760 115.5003340  78.8342230  41.2183650
 114.5308690  79.5753110  42.1143590 119.8694170  80.9040250  36.5454060
 120.2109870  81.6482480  36.0497380 119.0406880  81.2171370  36.9078890
 112.4669210  76.6035340  48.1852460 112.1084150  77.2689190  48.7725800
 112.1723770  75.7718890  48.5565080 115.6682330  77.0619580  51.0692010
 115.3682470  77.2076760  50.1719830 116.4393570  76.5024870  50.9765400
 121.0110780  81.8588580  49.0647140 121.0255320  80.9269540  48.8466050
 120.3035880  81.9448340  49.7036910 122.7521580  80.2256090  41.9099570
 123.1045400  79.6284220  41.2500940 121.8683910  79.9000320  42.0807820
 118.8384860  80.9853780  39.3169980 119.5255990  81.5322990  39.6977570
 118.0517280  81.5294510  39.3519590 110.9777260  76.6026600  34.8087060
 111.8472110  76.8851400  35.0922980 110.4867580  77.4162470  34.6935870
 118.1412070  77.9899810  38.9295340 118.5974850  78.8005060  39.1555530
 117.7900280  77.6722950  39.7613830 120.4444680  83.5006150  46.1587640
 121.0886900  83.7065530  46.8361060 120.8074120  82.7394550  45.7058490
 114.0423850  68.3337460  39.4017860 113.9138480  68.3255360  40.3502780
 113.2185870  68.6720550  39.0508870 121.7176760  81.5038500  44.8765090
 122.3598990  80.8031660  44.9897260 122.2426110  82.2836940  44.6961980
 123.4914380  82.3033400  48.0801150 123.8270620  82.8900090  48.7579070
 122.5714720  82.1726110  48.3098940 111.3448510  85.8153980  35.3748690
 111.7046150  86.4143320  34.7205960 111.2040850  86.3613870  36.1483720
 111.0417780  70.0928580  48.8624560 110.3276300  70.2925500  49.4677170
 111.4612820  69.3168150  49.2339360 111.3290370  84.0808840  49.8491090
 111.4381490  83.1403580  49.7086480 110.6770930  84.3463590  49.2004820
 119.3202960  82.3524730  51.2489210 118.9999830  81.6333970  51.7934900
 118.6461320  83.0279800  51.3225270 117.3617130  83.1985180  36.1922360
 117.3527230  83.9314870  35.5766870 116.4415490  82.9516760  36.2849320
 112.9623770  78.4200070  36.9369120 112.3551720  79.1598970  36.9464420
 113.4373120  78.5099430  36.1107320 122.5356560  72.5850890  46.6126010
 122.9037380  71.7646100  46.9405580 121.6754760  72.6452780  47.0281660
 120.3476730  83.2613420  34.8547550 120.4488710  83.0577410  33.9249530
 119.4478470  83.0071700  35.0595330 117.8702620  73.8193780  38.8371450
 117.1618770  74.2880120  39.2785060 118.1547100  73.1615790  39.4716640
 119.4958550  75.2390480  46.8363980 119.9943800  75.7136300  47.5015830
 119.6381500  74.3154000  47.0434010 121.9018050  70.5444440  40.2767240
 121.7785830  70.5630570  39.3276750 122.8502610  70.5923380  40.3965640
 118.9894840  85.7799740  39.5495220 119.2436340  85.7421130  38.6274590
 118.0407320  85.6533070  39.5423470 116.0737640  72.1278860  36.2122160
 116.9228170  72.5649010  36.1462350 115.7068910  72.4399120  37.0394220
 124.9947420  76.6991620  41.1253730 124.0537560  76.7141850  41.3001420
 125.3091490  75.9127580  41.5714030 114.9729060  78.3811220  34.6857690
 115.7392330  78.2692580  35.2483120 115.0503750  77.6849190  34.0334460
 113.6675820  75.8136290  35.3690580 113.7479410  74.8663800  35.4807980
 114.5595570  76.1443170  35.4751240 114.4690530  85.9631680  42.4725120
 115.2053010  85.4147140  42.7433690 114.8531450  86.8287690  42.3331110
 111.3536010  82.0305250  38.3466630 110.4275790  82.2726390  38.3372040
 111.8192440  82.8579510  38.2251380 113.4748810  85.1477750  51.6610700
 114.2761540  85.4689800  52.0746100 112.9600630  84.7873330  52.3830610
 117.5792840  85.1361990  34.2950690 118.3721450  85.4250820  33.8432480
 117.0597190  84.7054160  33.6163170 122.3113440  81.2557620  51.6086110
 121.7051600  81.2789220  50.8681860 122.0067550  80.5240660  52.1453360
 123.7413810  84.9837910  50.2195520 124.6935560  84.8995930  50.1695760
 123.5942030  85.6479620  50.8929310 111.1946620  77.6351210  50.6046750
 111.6985640  77.0558490  51.1762980 110.4554040  77.9191440  51.1423120
 118.0970240  80.3565400  34.1593040 117.9920880  79.7417750  34.8854420
 117.9294460  79.8331290  33.3756050 118.2484560  79.0422200  50.1382270
 117.4830230  79.6107200  50.0536940 118.4300520  78.7498410  49.2450500
 121.3372970  79.4185430  34.7635030 120.7883070  79.8654730  35.4077770
 121.9592230  78.9134680  35.2872700 113.2269700  75.7780800  51.4996820
 113.2675040  75.4794670  52.4082050 114.0815200  76.1788410  51.3404340
 117.0048090  78.3776350  36.6600330 117.4264510  78.2116220  37.5031720
 117.1298930  77.5676580  36.1655470 115.1675510  74.3572900  49.4671310
 114.6371970  73.8663850  48.8394650 115.8363580  74.7857100  48.9329240
 119.5175730  77.4013960  33.9077430 120.0381390  76.6862980  33.5418580
 120.1644130  78.0399830  34.2077940 124.0653570  78.8242360  49.2312500
 124.4794590  78.9787440  50.0802920 123.1304570  78.9497580  49.3938280
 124.5375740  76.1638520  51.2351650 125.1196510  75.4090840  51.1472130
 124.7137510  76.6945960  50.4583130 115.6547810  71.3235270  49.5468600
 115.5604680  70.7056020  48.8219470 115.0745200  72.0501560  49.3198510
 118.4209250  69.8808510  46.5795990 117.9726550  69.9032770  45.7341540
 117.7874450  69.4827530  47.1766290 118.8268800  78.7762840  47.2008430
 119.2456910  79.6195570  47.0284670 117.9077430  78.9134880  46.9715210
 121.1632700  76.5079020  48.5846270 121.2828910  75.9120160  49.3241110
 122.0226700  76.5448710  48.1647570 123.5020600  77.0616210  47.1608780
 122.9755820  77.5858830  46.5573920 123.8451940  77.6943600  47.7918510
 115.9006990  74.4509580  33.6058490 115.6996050  73.5876940  33.9671830
 115.7299040  74.3642940  32.6680090 116.6776220  85.0815850  48.3166160
 116.1397310  85.8061910  47.9974860 116.9310180  84.6046190  47.5263500
 117.9301470  73.0500370  49.8422090 118.5201160  72.7416220  50.5299910
 117.1121710  72.5780120  49.9981990 122.7494900  72.6666180  50.0755110
 122.0610420  72.0047720  50.0105100 123.4700920  72.2204450  50.5203570
 123.3795300  69.2617810  36.1345370 123.6597590  68.4185710  36.4904790
 122.6061030  69.4940920  36.6484120 114.6989790  71.5510200  33.5936370
 115.0015690  71.5577630  32.6855520 115.4384380  71.2008060  34.0904030
 119.5338430  86.3167060  48.5752810 119.4597130  87.2202200  48.8825180
 118.6317270  85.9978960  48.5474880 117.9174720  70.4944820  34.5792570
 117.5696720  69.8168810  33.9995020 118.1187490  70.0334330  35.3935960
 120.0823760  85.4825570  36.1979170 120.9774550  85.8210540  36.2197930
 120.1141390  84.7604980  35.5703450 113.7219920  80.8552620  34.4266170
 114.1594790  81.3982290  35.0823750 114.2067650  80.0299570  34.4362510
 110.9365720  83.6441650  41.8786430 111.2668730  82.7762710  41.6465070
 111.3656720  83.8500170  42.7091390 115.5327640  81.9750660  39.5388400
 115.2323180  81.8515630  40.4392310 115.4265130  81.1159250  39.1304130
 111.4255930  84.5112240  44.6168060 110.9886920  84.6913040  45.4492210
 111.9933610  85.2686860  44.4749780 111.2580360  77.0232470  40.9756940
 110.6029200  76.7544110  40.3316640 112.0958310  76.9136950  40.5258920
 124.2070800  71.8173760  35.1975430 124.6255680  71.6304740  34.3572090
 123.9006860  70.9652810  35.5078360 112.2956290  77.4085040  45.5160280
 112.6629330  77.3212440  46.3956300 111.7267110  76.6451590  45.4167140
 111.8472290  74.3194130  49.4218700 110.9528340  74.2860890  49.7612410
 112.3869840  74.5180920  50.1869950 110.4718440  74.2331400  36.9182270
 109.5682520  74.4961600  36.7433930 110.9559060  74.5042570  36.1382230
 113.0145650  73.2896940  34.8276650 113.7237350  72.8680160  34.3423930
 112.2985590  73.3572170  34.1960000 112.6619810  69.3436270  33.8679300
 113.3847940  69.8845210  34.1860520 112.9344330  69.0699690  32.9920840
 112.3512000  68.5942460  43.7701920 112.9988190  68.0439840  43.3297080
 112.7713840  68.8485610  44.5917730 112.1044000  68.7498130  46.5127240
 111.7558820  69.2061950  47.2785420 111.7731700  67.8555260  46.5949670
 113.7108370  81.9217730  50.6780430 113.6678000  81.5510640  51.5594890
 113.8419380  82.8595300  50.8182250 117.4114400  83.4777320  46.2790150
 117.1705760  83.7451880  45.3920670 118.3517040  83.6483050  46.3341010
 119.6168820  69.9410010  50.0346660 119.5557710  70.5331840  50.7842070
 120.5569200  69.8335970  49.8896920 122.2543380  69.5980070  49.6738950
 122.8683790  69.9159360  49.0120030 122.7992940  69.1128660  50.2934810
 112.7764640  68.2774330  49.7878010 113.3247630  68.0962380  49.0244120
 112.8419950  67.4868440  50.3234320 113.5496400  84.8679980  47.7978210
 112.9556720  84.7364680  48.5368250 113.5420240  84.0318120  47.3320310
 122.9951420  68.1612210  46.0008240 122.1211260  68.4947320  45.7981170
 122.8862170  67.6885390  46.8260110 123.9023400  70.3683080  47.3849960
 123.5736760  69.5534840  47.0051690 124.8505700  70.3252890  47.2615650
 113.1808630  82.2338360  46.7486250 112.4542690  81.6143650  46.6812200
 113.2417780  82.6278970  45.8784330 116.7853730  84.4483360  43.5335660
 117.3018750  83.8370720  43.0083920 117.4351110  84.9512140  44.0246670
 119.5249230  85.3391850  44.3604640 119.8127040  85.0846150  43.4837650
 120.0372450  84.7869210  44.9510210 120.7426240  69.0782050  44.9401150
 119.9598030  69.5527550  45.2197910 120.4489170  68.1736880  44.8314330
 111.4638630  85.5512750  39.9583010 111.2960670  84.9183430  40.6564900
 110.5973140  85.7572150  39.6077200 112.0866650  69.3829530  37.4614870
 112.8446010  69.4958410  36.8878900 111.6243820  70.2198730  37.4158300
 118.6280460  71.4968800  40.4517180 117.8154970  71.1225690  40.1113060
 119.1322100  70.7413880  40.7538370 123.1305440  68.1611250  41.6900250
 123.7334810  68.7331460  42.1648770 122.3898430  68.7250690  41.4674150
 113.0701330  84.2445980  37.4033150 112.5448950  84.6254010  36.6995110
 112.9945910  84.8696750  38.1242860 114.4591800  69.9093580  36.0016840
 114.9884560  69.1223380  35.8724790 115.0920120  70.5884770  36.2352370
 116.6529640  69.6468720  39.0562230 116.0232380  68.9456030  39.2232360
 116.1134780  70.4072850  38.8395390 119.5921590  86.2607950  51.7272840
 120.5188900  86.0252220  51.7708800 119.5772020  87.0879950  51.2458870
 116.7785200  68.9252700  51.4914720 116.4969470  69.4286300  50.7275540
 117.1604900  68.1274450  51.1256850 115.6694300  86.1928360  36.2782400
 116.4013120  85.9087640  35.7306290 115.9287970  85.9541640  37.1681780
 114.8309090  82.3093090  36.2828730 114.2017970  82.7778190  36.8314560
 114.9456920  81.4642310  36.7174920 123.3800660  68.3406280  52.0695190
 123.2666110  68.6600890  52.9646710 124.1970400  68.7418790  51.7732470
 122.2858810  76.3598750  22.4329930 122.2052860  75.4453360  22.1621640
 121.8723230  76.8565820  21.7269640 120.4176850  78.1377770  24.3139200
 119.6418950  77.6578210  24.6037770 121.0689780  77.4583420  24.1395360
 114.4342680  78.4497580  25.1914960 113.6027560  78.1946290  25.5911470
 115.0423660  78.5208350  25.9272880 124.4384280  82.5437960  23.0938330
 123.9765810  81.7725200  23.4225500 125.2509830  82.5704030  23.5990780
 114.4143940  82.4837670  25.3872980 114.7171980  81.5935410  25.2083200
 115.1587530  83.0407890  25.1595230 112.8434630  73.4099470  18.9757350
 111.9551330  73.7515440  18.8737230 113.1275820  73.2099790  18.0838180
 110.8067640  76.0105120  24.8597050 111.3783750  75.2427320  24.8600690
 110.8069180  76.3093880  23.9503660 120.6647590  84.8295970  22.7142320
 120.0459030  85.2853470  22.1436760 121.5199370  84.9847430  22.3132020
 119.8585840  80.8134960  24.3209360 119.7894120  79.8724900  24.1598490
 120.6205700  80.9036370  24.8931930 112.0492510  71.4189480  26.6465980
 111.8695350  70.5215230  26.9268740 111.6472590  71.9661350  27.3212930
 120.8891010  73.6205340  24.5478290 121.2655830  72.7477220  24.4351960
 120.7910520  73.9564040  23.6568730 115.0196020  71.9930970  20.0095730
 115.1262770  72.8934700  20.3164490 114.1088380  71.9448940  19.7190380
 112.6679180  73.9149980  25.2548320 113.3489290  74.1788350  25.8735720
 112.3527230  73.0750850  25.5886330 116.8603750  74.9617340  24.3420910
 117.3681970  75.4598310  24.9825930 117.3916990  74.1852540  24.1660270
 115.1439850  69.6015900  28.6084330 115.1458290  70.1188290  27.8030230
 114.3144160  69.1246080  28.5854260 121.5310940  79.7135210  20.1074230
 120.9128210  80.1784660  19.5436950 122.0434190  80.4062690  20.5243740
 116.3942700  79.2411080  26.7857830 116.0612080  79.8680000  27.4278900
 116.5709380  79.7672960  26.0059500 124.9076610  73.0556160  24.2534170
 124.2032180  73.3441050  24.8337280 125.2688770  73.8656270  23.8933730
 114.8255180  71.3125860  26.6154780 115.1671990  72.1567910  26.3208650
 113.8870990  71.4609600  26.7320120 115.6061800  81.2091880  28.6007010
 116.2235800  81.8842960  28.3191460 114.7454920  81.6179860  28.5094510
 110.8994140  80.3991740  17.4813860 110.5222120  80.8878840  16.7498760
 111.1567210  81.0717020  18.1120390 118.5083070  68.8008130  22.9399370
 118.8158050  68.2455020  22.2234870 117.5783770  68.9352590  22.7572360
 124.0598130  84.5175420  25.2306830 124.0725290  84.1137710  24.3629090
 123.5073350  85.2922710  25.1268260 123.4583570  79.4205260  26.5589440
 123.8752360  79.2065370  25.7242900 124.1823390  79.6778050  27.1298060
 120.8963830  76.8656960  19.6759490 119.9693110  76.7994340  19.9047960
 121.0488650  77.8037090  19.5614730 120.8832910  73.1373960  16.6726650
 119.9436580  73.2987920  16.7579110 121.2016170  73.8559640  16.1262640
 124.9261120  78.4277260  20.1794740 124.3073540  78.0896810  19.5321040
 124.9085570  77.7837020  20.8873930 124.3687680  74.6061800  27.5960550
 123.9558860  75.4315510  27.8500540 123.6363630  74.0206840  27.4036910
 116.5020470  77.3921700  22.4579220 116.0977470  76.6798950  21.9625120
 116.5883590  77.0474940  23.3467260 116.9702170  81.0789260  24.6218430
 116.6730460  80.4734730  23.9426210 117.9201990  81.1166570  24.5107790
 115.2149090  74.1664910  26.2378260 115.7663680  74.2760250  25.4631510
 115.7292600  74.5402510  26.9533490 125.0587780  84.6521130  28.2841530
 124.5818340  85.4593320  28.0914140 124.3749570  83.9999460  28.4367740
 116.0620600  80.8170950  31.2726230 115.1649130  81.0410920  31.5199630
 116.0873470  80.9405890  30.3237630 123.1025820  77.6664070  17.1867490
 123.5419100  76.8286500  17.0405310 123.8154240  78.2993470  17.2731630
 114.8891820  77.6884270  29.8483600 114.7499590  78.5607070  30.2171000
 114.0073180  77.3457080  29.7031540 121.2121200  82.6060140  21.1548730
 121.6517110  83.3484470  20.7404120 121.1508090  82.8486710  22.0787690
 116.6872170  83.6305970  32.0568750 116.6587600  84.0348920  31.1897180
 116.5237140  82.7016330  31.8940350 113.2025100  76.2866680  19.9585870
 113.0822700  77.0128770  19.3467140 112.8925990  75.5169590  19.4813780
 110.8410470  79.4581820  25.7654510 110.9190890  79.5930590  24.8210230
 111.4552150  78.7497710  25.9582630 112.0858100  81.1582010  22.1760690
 111.6786180  81.2996600  21.3214290 112.9771110  80.8742170  21.9731900
 121.9036980  85.3073920  29.0827740 122.4181650  85.2181930  29.8850170
 121.0606060  85.6533620  29.3755650 123.8791380  85.5929260  18.5111740
 123.7192520  85.3032200  19.4093570 123.7138090  84.8169390  17.9756970
 116.3579760  85.3727790  20.2883360 116.1822240  84.4563330  20.0751160
 115.5035500  85.7315080  20.5281160 123.5817510  83.1016820  17.0709740
 122.8882670  83.0994110  16.4112020 124.3240370  82.6776140  16.6403910
 123.1467440  84.7279530  21.1458230 123.6024390  83.9468910  21.4596850
 123.4859960  85.4386350  21.6899410 110.8969990  80.4995990  28.3048970
 111.0601030  80.0301350  27.4868340 111.3622440  79.9919550  28.9697810
 115.6688760  69.6301750  23.3409540 115.2256910  70.4111290  23.0094060
 116.2273750  69.9531640  24.0480480 119.9558570  72.4970270  28.9444860
 119.4937940  72.7053290  29.7564800 119.5536680  71.6829620  28.6415530
 124.9563080  73.7179220  30.0741520 124.1056670  73.4184970  30.3950590
 124.7964870  73.9621230  29.1625340 122.0512790  75.2180970  32.1740310
 122.3766200  74.3844720  31.8342540 122.8393120  75.7409490  32.3218640
 118.7847580  69.2512450  18.2215370 118.1601760  69.2472320  18.9468680
 118.6977700  68.3843410  17.8251340 117.7064660  70.1749080  25.1999140
 118.0036990  71.0811910  25.1191160 118.2550220  69.6867860  24.5858710
 115.4602980  74.7535320  21.0690790 115.2343900  74.5372490  21.9737410
 114.6795510  75.1863780  20.7236760 122.6900740  74.7598690  19.6681440
 122.0909630  75.4834490  19.4845060 123.2380350  74.6975470  18.8857890
 117.9002190  75.6520900  31.7351060 117.8045790  74.7115630  31.5851460
 118.7434170  75.8735970  31.3399130 121.2965610  73.3962230  21.6984720
 121.6895180  73.7134430  20.8853410 121.6582460  72.5174110  21.8129240
 113.0312730  72.0634570  29.8884840 112.6376120  72.9109780  30.0957620
 112.3431130  71.4260940  30.0793480 119.6057780  72.1469540  32.9581580
 118.9156100  71.9541740  33.5927670 120.3490080  72.4304180  33.4905880
 110.3329780  69.9863030  23.9214920 110.0442830  70.5565890  24.6339900
 111.0775540  69.5067480  24.2846150 110.5200010  73.9283150  15.1317640
 110.4374680  74.8713910  15.2732630 110.1683070  73.7858060  14.2529990
 121.8820750  75.9867980  25.7935500 121.1501870  76.4954790  26.1425600
 121.4845090  75.1697960  25.4924280 118.3198140  72.6622180  24.1987990
 118.3234200  72.2212130  23.3492530 119.2149260  72.9839510  24.3059810
 114.1700520  72.5448670  23.1582200 113.8300570  73.0223900  23.9149250
 113.4077840  72.0913790  22.7983300 118.3818290  73.6634260  17.1894750
 118.5031110  73.6220740  18.1380570 117.9966800  74.5258410  17.0341480
 122.3446660  71.4401660  25.2058440 122.3619400  71.8910310  26.0500290
 122.0962240  70.5407300  25.4191880 117.3939790  75.9735400  16.5878050
 116.8256690  75.5253650  15.9613960 118.1028790  76.3328180  16.0543200
 112.4708970  79.8747420  30.4644780 112.0863760  79.2341090  31.0627740
 112.7821160  80.5783540  31.0339510 118.6206110  76.7223960  25.9453400
 118.9876240  76.2482530  26.6914740 118.4311170  77.5965530  26.2861740
 111.4846600  71.4667650  22.0746870 111.1993520  71.1023320  22.9125490
 111.4225460  70.7348110  21.4610010 116.4105480  75.7632600  28.2637610
 116.1062550  76.6424580  28.4887970 117.3651940  75.8232390  28.2995050
 114.9387270  79.9693590  18.8604460 114.1649530  79.4291210  18.7003180
 115.6681900  79.4500200  18.5222220 121.1585190  70.3596910  18.7960240
 120.3449800  69.8610080  18.7205550 120.9647140  71.1995160  18.3796590
 121.0794050  79.0368010  30.5399850 121.0131360  78.1163680  30.2857440
 120.4499190  79.1343450  31.2544490 123.8733580  74.7316560  17.0922400
 124.7613200  75.0433790  16.9173740 123.8438670  73.8588810  16.7002980
 114.9824670  79.6373970  22.4983270 115.5003340  78.8342230  22.4440160
 114.5308690  79.5753110  23.3400100 119.8694170  80.9040250  17.7710570
 120.2109870  81.6482480  17.2753890 119.0406880  81.2171370  18.1335400
 112.4669210  76.6035340  29.4108970 112.1084150  77.2689190  29.9982310
 112.1723770  75.7718890  29.7821590 115.6682330  77.0619580  32.2948520
 115.3682470  77.2076760  31.3976340 116.4393570  76.5024870  32.2021910
 121.0110780  81.8588580  30.2903650 121.0255320  80.9269540  30.0722560
 120.3035880  81.9448340  30.9293420 122.7521580  80.2256090  23.1356080
 123.1045400  79.6284220  22.4757450 121.8683910  79.9000320  23.3064330
 118.8384860  80.9853780  20.5426490 119.5255990  81.5322990  20.9234080
 118.0517280  81.5294510  20.5776100 110.9777260  76.6026600  16.0343570
 111.8472110  76.8851400  16.3179490 110.4867580  77.4162470  15.9192380
 118.1412070  77.9899810  20.1551850 118.5974850  78.8005060  20.3812040
 117.7900280  77.6722950  20.9870340 120.4444680  83.5006150  27.3844150
 121.0886900  83.7065530  28.0617570 120.8074120  82.7394550  26.9315000
 114.0423850  68.3337460  20.6274370 113.9138480  68.3255360  21.5759290
 113.2185870  68.6720550  20.2765380 121.7176760  81.5038500  26.1021600
 122.3598990  80.8031660  26.2153770 122.2426110  82.2836940  25.9218490
 123.4914380  82.3033400  29.3057660 123.8270620  82.8900090  29.9835580
 122.5714720  82.1726110  29.5355450 111.3448510  85.8153980  16.6005200
 111.7046150  86.4143320  15.9462470 111.2040850  86.3613870  17.3740230
 111.0417780  70.0928580  30.0881070 110.3276300  70.2925500  30.6933680
 111.4612820  69.3168150  30.4595870 111.3290370  84.0808840  31.0747600
 111.4381490  83.1403580  30.9342990 110.6770930  84.3463590  30.4261330
 119.3202960  82.3524730  32.4745720 118.9999830  81.6333970  33.0191410
 118.6461320  83.0279800  32.5481780 117.3617130  83.1985180  17.4178870
 117.3527230  83.9314870  16.8023380 116.4415490  82.9516760  17.5105830
 112.9623770  78.4200070  18.1625630 112.3551720  79.1598970  18.1720930
 113.4373120  78.5099430  17.3363830 122.5356560  72.5850890  27.8382520
 122.9037380  71.7646100  28.1662090 121.6754760  72.6452780  28.2538170
 120.3476730  83.2613420  16.0804060 120.4488710  83.0577410  15.1506040
 119.4478470  83.0071700  16.2851840 117.8702620  73.8193780  20.0627960
 117.1618770  74.2880120  20.5041570 118.1547100  73.1615790  20.6973150
 119.4958550  75.2390480  28.0620490 119.9943800  75.7136300  28.7272340
 119.6381500  74.3154000  28.2690520 121.9018050  70.5444440  21.5023750
 121.7785830  70.5630570  20.5533260 122.8502610  70.5923380  21.6222150
 118.9894840  85.7799740  20.7751730 119.2436340  85.7421130  19.8531100
 118.0407320  85.6533070  20.7679980 116.0737640  72.1278860  17.4378670
 116.9228170  72.5649010  17.3718860 115.7068910  72.4399120  18.2650730
 124.9947420  76.6991620  22.3510240 124.0537560  76.7141850  22.5257930
 125.3091490  75.9127580  22.7970540 114.9729060  78.3811220  15.9114200
 115.7392330  78.2692580  16.4739630 115.0503750  77.6849190  15.2590970
 113.6675820  75.8136290  16.5947090 113.7479410  74.8663800  16.7064490
 114.5595570  76.1443170  16.7007750 114.4690530  85.9631680  23.6981630
 115.2053010  85.4147140  23.9690200 114.8531450  86.8287690  23.5587620
 111.3536010  82.0305250  19.5723140 110.4275790  82.2726390  19.5628550
 111.8192440  82.8579510  19.4507890 113.4748810  85.1477750  32.8867210
 114.2761540  85.4689800  33.3002610 112.9600630  84.7873330  33.6087120
 117.5792840  85.1361990  15.5207200 118.3721450  85.4250820  15.0688990
 117.0597190  84.7054160  14.8419680 122.3113440  81.2557620  32.8342620
 121.7051600  81.2789220  32.0938370 122.0067550  80.5240660  33.3709870
 123.7413810  84.9837910  31.4452030 124.6935560  84.8995930  31.3952270
 123.5942030  85.6479620  32.1185820 111.1946620  77.6351210  31.8303260
 111.6985640  77.0558490  32.4019490 110.4554040  77.9191440  32.3679630
 118.0970240  80.3565400  15.3849550 117.9920880  79.7417750  16.1110930
 117.9294460  79.8331290  14.6012560 118.2484560  79.0422200  31.3638780
 117.4830230  79.6107200  31.2793450 118.4300520  78.7498410  30.4707010
 121.3372970  79.4185430  15.9891540 120.7883070  79.8654730  16.6334280
 121.9592230  78.9134680  16.5129210 113.2269700  75.7780800  32.7253330
 113.2675040  75.4794670  33.6338560 114.0815200  76.1788410  32.5660850
 117.0048090  78.3776350  17.8856840 117.4264510  78.2116220  18.7288230
 117.1298930  77.5676580  17.3911980 115.1675510  74.3572900  30.6927820
 114.6371970  73.8663850  30.0651160 115.8363580  74.7857100  30.1585750
 119.5175730  77.4013960  15.1333940 120.0381390  76.6862980  14.7675090
 120.1644130  78.0399830  15.4334450 124.0653570  78.8242360  30.4569010
 124.4794590  78.9787440  31.3059430 123.1304570  78.9497580  30.6194790
 124.5375740  76.1638520  32.4608160 125.1196510  75.4090840  32.3728640
 124.7137510  76.6945960  31.6839640 115.6547810  71.3235270  30.7725110
 115.5604680  70.7056020  30.0475980 115.0745200  72.0501560  30.5455020
 118.4209250  69.8808510  27.8052500 117.9726550  69.9032770  26.9598050
 117.7874450  69.4827530  28.4022800 118.8268800  78.7762840  28.4264940
 119.2456910  79.6195570  28.2541180 117.9077430  78.9134880  28.1971720
 121.1632700  76.5079020  29.8102780 121.2828910  75.9120160  30.5497620
 122.0226700  76.5448710  29.3904080 123.5020600  77.0616210  28.3865290
 122.9755820  77.5858830  27.7830430 123.8451940  77.6943600  29.0175020
 115.9006990  74.4509580  14.8315000 115.6996050  73.5876940  15.1928340
 115.7299040  74.3642940  13.8936600 116.6776220  85.0815850  29.5422670
 116.1397310  85.8061910  29.2231370 116.9310180  84.6046190  28.7520010
 117.9301470  73.0500370  31.0678600 118.5201160  72.7416220  31.7556420
 117.1121710  72.5780120  31.2238500 122.7494900  72.6666180  31.3011620
 122.0610420  72.0047720  31.2361610 123.4700920  72.2204450  31.7460080
 123.3795300  69.2617810  17.3601880 123.6597590  68.4185710  17.7161300
 122.6061030  69.4940920  17.8740630 114.6989790  71.5510200  14.8192880
 115.0015690  71.5577630  13.9112030 115.4384380  71.2008060  15.3160540
 119.5338430  86.3167060  29.8009320 119.4597130  87.2202200  30.1081690
 118.6317270  85.9978960  29.7731390 117.9174720  70.4944820  15.8049080
 117.5696720  69.8168810  15.2251530 118.1187490  70.0334330  16.6192470
 120.0823760  85.4825570  17.4235680 120.9774550  85.8210540  17.4454440
 120.1141390  84.7604980  16.7959960 113.7219920  80.8552620  15.6522680
 114.1594790  81.3982290  16.3080260 114.2067650  80.0299570  15.6619020
 110.9365720  83.6441650  23.1042940 111.2668730  82.7762710  22.8721580
 111.3656720  83.8500170  23.9347900 115.5327640  81.9750660  20.7644910
 115.2323180  81.8515630  21.6648820 115.4265130  81.1159250  20.3560640
 111.4255930  84.5112240  25.8424570 110.9886920  84.6913040  26.6748720
 111.9933610  85.2686860  25.7006290 111.2580360  77.0232470  22.2013450
 110.6029200  76.7544110  21.5573150 112.0958310  76.9136950  21.7515430
 124.2070800  71.8173760  16.4231940 124.6255680  71.6304740  15.5828600
 123.9006860  70.9652810  16.7334870 112.2956290  77.4085040  26.7416790
 112.6629330  77.3212440  27.6212810 111.7267110  76.6451590  26.6423650
 111.8472290  74.3194130  30.6475210 110.9528340  74.2860890  30.9868920
 112.3869840  74.5180920  31.4126460 110.4718440  74.2331400  18.1438780
 109.5682520  74.4961600  17.9690440 110.9559060  74.5042570  17.3638740
 113.0145650  73.2896940  16.0533160 113.7237350  72.8680160  15.5680440
 112.2985590  73.3572170  15.4216510 112.6619810  69.3436270  15.0935810
 113.3847940  69.8845210  15.4117030 112.9344330  69.0699690  14.2177350
 112.3512000  68.5942460  24.9958430 112.9988190  68.0439840  24.5553590
 112.7713840  68.8485610  25.8174240 112.1044000  68.7498130  27.7383750
 111.7558820  69.2061950  28.5041930 111.7731700  67.8555260  27.8206180
 113.7108370  81.9217730  31.9036940 113.6678000  81.5510640  32.7851400
 113.8419380  82.8595300  32.0438760 117.4114400  83.4777320  27.5046660
 117.1705760  83.7451880  26.6177180 118.3517040  83.6483050  27.5597520
 119.6168820  69.9410010  31.2603170 119.5557710  70.5331840  32.0098580
 120.5569200  69.8335970  31.1153430 122.2543380  69.5980070  30.8995460
 122.8683790  69.9159360  30.2376540 122.7992940  69.1128660  31.5191320
 112.7764640  68.2774330  31.0134520 113.3247630  68.0962380  30.2500630
 112.8419950  67.4868440  31.5490830 113.5496400  84.8679980  29.0234720
 112.9556720  84.7364680  29.7624760 113.5420240  84.0318120  28.5576820
 122.9951420  68.1612210  27.2264750 122.1211260  68.4947320  27.0237680
 122.8862170  67.6885390  28.0516620 123.9023400  70.3683080  28.6106470
 123.5736760  69.5534840  28.2308200 124.8505700  70.3252890  28.4872160
 113.1808630  82.2338360  27.9742760 112.4542690  81.6143650  27.9068710
 113.2417780  82.6278970  27.1040840 116.7853730  84.4483360  24.7592170
 117.3018750  83.8370720  24.2340430 117.4351110  84.9512140  25.2503180
 119.5249230  85.3391850  25.5861150 119.8127040  85.0846150  24.7094160
 120.0372450  84.7869210  26.1766720 120.7426240  69.0782050  26.1657660
 119.9598030  69.5527550  26.4454420 120.4489170  68.1736880  26.0570840
 111.4638630  85.5512750  21.1839520 111.2960670  84.9183430  21.8821410
 110.5973140  85.7572150  20.8333710 112.0866650  69.3829530  18.6871380
 112.8446010  69.4958410  18.1135410 111.6243820  70.2198730  18.6414810
 118.6280460  71.4968800  21.6773690 117.8154970  71.1225690  21.3369570
 119.1322100  70.7413880  21.9794880 123.1305440  68.1611250  22.9156760
 123.7334810  68.7331460  23.3905280 122.3898430  68.7250690  22.6930660
 113.0701330  84.2445980  18.6289660 112.5448950  84.6254010  17.9251620
 112.9945910  84.8696750  19.3499370 114.4591800  69.9093580  17.2273350
 114.9884560  69.1223380  17.0981300 115.0920120  70.5884770  17.4608880
 116.6529640  69.6468720  20.2818740 116.0232380  68.9456030  20.4488870
 116.1134780  70.4072850  20.0651900 119.5921590  86.2607950  32.9529350
 120.5188900  86.0252220  32.9965310 119.5772020  87.0879950  32.4715380
 116.7785200  68.9252700  32.7171230 116.4969470  69.4286300  31.9532050
 117.1604900  68.1274450  32.3513360 115.6694300  86.1928360  17.5038910
 116.4013120  85.9087640  16.9562800 115.9287970  85.9541640  18.3938290
 114.8309090  82.3093090  17.5085240 114.2017970  82.7778190  18.0571070
 114.9456920  81.4642310  17.9431430 123.3800660  68.3406280  33.2951700
 123.2666110  68.6600890  34.1903220 124.1970400  68.7418790  32.9988980
 122.2858810  76.3598750   3.6586440 122.2052860  75.4453360   3.3878150
 121.8723230  76.8565820   2.9526150 120.4176850  78.1377770   5.5395710
 119.6418950  77.6578210   5.8294280 121.0689780  77.4583420   5.3651870
 114.4342680  78.4497580   6.4171470 113.6027560  78.1946290   6.8167980
 115.0423660  78.5208350   7.1529390 124.4384280  82.5437960   4.3194840
 123.9765810  81.7725200   4.6482010 125.2509830  82.5704030   4.8247290
 114.4143940  82.4837670   6.6129490 114.7171980  81.5935410   6.4339710
 115.1587530  83.0407890   6.3851740 110.8067640  76.0105120   6.0853560
 111.3783750  75.2427320   6.0857200 110.8069180  76.3093880   5.1760170
 120.6647590  84.8295970   3.9398830 120.0459030  85.2853470   3.3693270
 121.5199370  84.9847430   3.5388530 119.8585840  80.8134960   5.5465870
 119.7894120  79.8724900   5.3855000 120.6205700  80.9036370   6.1188440
 112.0492510  71.4189480   7.8722490 111.8695350  70.5215230   8.1525250
 111.6472590  71.9661350   8.5469440 120.8891010  73.6205340   5.7734800
 121.2655830  72.7477220   5.6608470 120.7910520  73.9564040   4.8825240
 112.6679180  73.9149980   6.4804830 113.3489290  74.1788350   7.0992230
 112.3527230  73.0750850   6.8142840 116.8603750  74.9617340   5.5677420
 117.3681970  75.4598310   6.2082440 117.3916990  74.1852540   5.3916780
 115.1439850  69.6015900   9.8340840 115.1458290  70.1188290   9.0286740
 114.3144160  69.1246080   9.8110770 116.3942700  79.2411080   8.0114340
 116.0612080  79.8680000   8.6535410 116.5709380  79.7672960   7.2316010
 124.9076610  73.0556160   5.4790680 124.2032180  73.3441050   6.0593790
 125.2688770  73.8656270   5.1190240 114.8255180  71.3125860   7.8411290
 115.1671990  72.1567910   7.5465160 113.8870990  71.4609600   7.9576630
 115.6061800  81.2091880   9.8263520 116.2235800  81.8842960   9.5447970
 114.7454920  81.6179860   9.7351020 118.5083070  68.8008130   4.1655880
 118.8158050  68.2455020   3.4491380 117.5783770  68.9352590   3.9828870
 124.0598130  84.5175420   6.4563340 124.0725290  84.1137710   5.5885600
 123.5073350  85.2922710   6.3524770 123.4583570  79.4205260   7.7845950
 123.8752360  79.2065370   6.9499410 124.1823390  79.6778050   8.3554570
 124.3687680  74.6061800   8.8217060 123.9558860  75.4315510   9.0757050
 123.6363630  74.0206840   8.6293420 116.5020470  77.3921700   3.6835730
 116.0977470  76.6798950   3.1881630 116.5883590  77.0474940   4.5723770
 116.9702170  81.0789260   5.8474940 116.6730460  80.4734730   5.1682720
 117.9201990  81.1166570   5.7364300 115.2149090  74.1664910   7.4634770
 115.7663680  74.2760250   6.6888020 115.7292600  74.5402510   8.1790000
 125.0587780  84.6521130   9.5098040 124.5818340  85.4593320   9.3170650
 124.3749570  83.9999460   9.6624250 116.0620600  80.8170950  12.4982740
 115.1649130  81.0410920  12.7456140 116.0873470  80.9405890  11.5494140
 114.8891820  77.6884270  11.0740110 114.7499590  78.5607070  11.4427510
 114.0073180  77.3457080  10.9288050 121.2121200  82.6060140   2.3805240
 121.6517110  83.3484470   1.9660630 121.1508090  82.8486710   3.3044200
 116.6872170  83.6305970  13.2825260 116.6587600  84.0348920  12.4153690
 116.5237140  82.7016330  13.1196860 110.8410470  79.4581820   6.9911020
 110.9190890  79.5930590   6.0466740 111.4552150  78.7497710   7.1839140
 112.0858100  81.1582010   3.4017200 111.6786180  81.2996600   2.5470800
 112.9771110  80.8742170   3.1988410 121.9036980  85.3073920  10.3084250
 122.4181650  85.2181930  11.1106680 121.0606060  85.6533620  10.6012160
 123.1467440  84.7279530   2.3714740 123.6024390  83.9468910   2.6853360
 123.4859960  85.4386350   2.9155920 110.8969990  80.4995990   9.5305480
 111.0601030  80.0301350   8.7124850 111.3622440  79.9919550  10.1954320
 115.6688760  69.6301750   4.5666050 115.2256910  70.4111290   4.2350570
 116.2273750  69.9531640   5.2736990 119.9558570  72.4970270  10.1701370
 119.4937940  72.7053290  10.9821310 119.5536680  71.6829620   9.8672040
 124.9563080  73.7179220  11.2998030 124.1056670  73.4184970  11.6207100
 124.7964870  73.9621230  10.3881850 122.0512790  75.2180970  13.3996820
 122.3766200  74.3844720  13.0599050 122.8393120  75.7409490  13.5475150
 117.7064660  70.1749080   6.4255650 118.0036990  71.0811910   6.3447670
 118.2550220  69.6867860   5.8115220 115.4602980  74.7535320   2.2947300
 115.2343900  74.5372490   3.1993920 114.6795510  75.1863780   1.9493270
 117.9002190  75.6520900  12.9607570 117.8045790  74.7115630  12.8107970
 118.7434170  75.8735970  12.5655640 121.2965610  73.3962230   2.9241230
 121.6895180  73.7134430   2.1109920 121.6582460  72.5174110   3.0385750
 113.0312730  72.0634570  11.1141350 112.6376120  72.9109780  11.3214130
 112.3431130  71.4260940  11.3049990 119.6057780  72.1469540  14.1838090
 118.9156100  71.9541740  14.8184180 120.3490080  72.4304180  14.7162390
 110.3329780  69.9863030   5.1471430 110.0442830  70.5565890   5.8596410
 111.0775540  69.5067480   5.5102660 121.8820750  75.9867980   7.0192010
 121.1501870  76.4954790   7.3682110 121.4845090  75.1697960   6.7180790
 118.3198140  72.6622180   5.4244500 118.3234200  72.2212130   4.5749040
 119.2149260  72.9839510   5.5316320 114.1700520  72.5448670   4.3838710
 113.8300570  73.0223900   5.1405760 113.4077840  72.0913790   4.0239810
 122.3446660  71.4401660   6.4314950 122.3619400  71.8910310   7.2756800
 122.0962240  70.5407300   6.6448390 112.4708970  79.8747420  11.6901290
 112.0863760  79.2341090  12.2884250 112.7821160  80.5783540  12.2596020
 118.6206110  76.7223960   7.1709910 118.9876240  76.2482530   7.9171250
 118.4311170  77.5965530   7.5118250 111.4846600  71.4667650   3.3003380
 111.1993520  71.1023320   4.1382000 111.4225460  70.7348110   2.6866520
 116.4105480  75.7632600   9.4894120 116.1062550  76.6424580   9.7144480
 117.3651940  75.8232390   9.5251560 121.0794050  79.0368010  11.7656360
 121.0131360  78.1163680  11.5113950 120.4499190  79.1343450  12.4801000
 114.9824670  79.6373970   3.7239780 115.5003340  78.8342230   3.6696670
 114.5308690  79.5753110   4.5656610 112.4669210  76.6035340  10.6365480
 112.1084150  77.2689190  11.2238820 112.1723770  75.7718890  11.0078100
 115.6682330  77.0619580  13.5205030 115.3682470  77.2076760  12.6232850
 116.4393570  76.5024870  13.4278420 121.0110780  81.8588580  11.5160160
 121.0255320  80.9269540  11.2979070 120.3035880  81.9448340  12.1549930
 122.7521580  80.2256090   4.3612590 123.1045400  79.6284220   3.7013960
 121.8683910  79.9000320   4.5320840 118.8384860  80.9853780   1.7683000
 119.5255990  81.5322990   2.1490590 118.0517280  81.5294510   1.8032610
 120.4444680  83.5006150   8.6100660 121.0886900  83.7065530   9.2874080
 120.8074120  82.7394550   8.1571510 121.7176760  81.5038500   7.3278110
 122.3598990  80.8031660   7.4410280 122.2426110  82.2836940   7.1475000
 123.4914380  82.3033400  10.5314170 123.8270620  82.8900090  11.2092090
 122.5714720  82.1726110  10.7611960 111.0417780  70.0928580  11.3137580
 110.3276300  70.2925500  11.9190190 111.4612820  69.3168150  11.6852380
 111.3290370  84.0808840  12.3004110 111.4381490  83.1403580  12.1599500
 110.6770930  84.3463590  11.6517840 119.3202960  82.3524730  13.7002230
 118.9999830  81.6333970  14.2447920 118.6461320  83.0279800  13.7738290
 122.5356560  72.5850890   9.0639030 122.9037380  71.7646100   9.3918600
 121.6754760  72.6452780   9.4794680 119.4958550  75.2390480   9.2877000
 119.9943800  75.7136300   9.9528850 119.6381500  74.3154000   9.4947030
 121.9018050  70.5444440   2.7280260 121.7785830  70.5630570   1.7789770
 122.8502610  70.5923380   2.8478660 124.9947420  76.6991620   3.5766750
 124.0537560  76.7141850   3.7514440 125.3091490  75.9127580   4.0227050
 114.4690530  85.9631680   4.9238140 115.2053010  85.4147140   5.1946710
 114.8531450  86.8287690   4.7844130 113.4748810  85.1477750  14.1123720
 114.2761540  85.4689800  14.5259120 112.9600630  84.7873330  14.8343630
 122.3113440  81.2557620  14.0599130 121.7051600  81.2789220  13.3194880
 122.0067550  80.5240660  14.5966380 123.7413810  84.9837910  12.6708540
 124.6935560  84.8995930  12.6208780 123.5942030  85.6479620  13.3442330
 111.1946620  77.6351210  13.0559770 111.6985640  77.0558490  13.6276000
 110.4554040  77.9191440  13.5936140 118.2484560  79.0422200  12.5895290
 117.4830230  79.6107200  12.5049960 118.4300520  78.7498410  11.6963520
 113.2269700  75.7780800  13.9509840 113.2675040  75.4794670  14.8595070
 114.0815200  76.1788410  13.7917360 115.1675510  74.3572900  11.9184330
 114.6371970  73.8663850  11.2907670 115.8363580  74.7857100  11.3842260
 124.0653570  78.8242360  11.6825520 124.4794590  78.9787440  12.5315940
 123.1304570  78.9497580  11.8451300 124.5375740  76.1638520  13.6864670
 125.1196510  75.4090840  13.5985150 124.7137510  76.6945960  12.9096150
 115.6547810  71.3235270  11.9981620 115.5604680  70.7056020  11.2732490
 115.0745200  72.0501560  11.7711530 118.4209250  69.8808510   9.0309010
 117.9726550  69.9032770   8.1854560 117.7874450  69.4827530   9.6279310
 118.8268800  78.7762840   9.6521450 119.2456910  79.6195570   9.4797690
 117.9077430  78.9134880   9.4228230 121.1632700  76.5079020  11.0359290
 121.2828910  75.9120160  11.7754130 122.0226700  76.5448710  10.6160590
 123.5020600  77.0616210   9.6121800 122.9755820  77.5858830   9.0086940
 123.8451940  77.6943600  10.2431530 116.6776220  85.0815850  10.7679180
 116.1397310  85.8061910  10.4487880 116.9310180  84.6046190   9.9776520
 117.9301470  73.0500370  12.2935110 118.5201160  72.7416220  12.9812930
 117.1121710  72.5780120  12.4495010 122.7494900  72.6666180  12.5268130
 122.0610420  72.0047720  12.4618120 123.4700920  72.2204450  12.9716590
 119.5338430  86.3167060  11.0265830 119.4597130  87.2202200  11.3338200
 118.6317270  85.9978960  10.9987900 110.9365720  83.6441650   4.3299450
 111.2668730  82.7762710   4.0978090 111.3656720  83.8500170   5.1604410
 111.4255930  84.5112240   7.0681080 110.9886920  84.6913040   7.9005230
 111.9933610  85.2686860   6.9262800 111.2580360  77.0232470   3.4269960
 110.6029200  76.7544110   2.7829660 112.0958310  76.9136950   2.9771940
 112.2956290  77.4085040   7.9673300 112.6629330  77.3212440   8.8469320
 111.7267110  76.6451590   7.8680160 111.8472290  74.3194130  11.8731720
 110.9528340  74.2860890  12.2125430 112.3869840  74.5180920  12.6382970
 112.3512000  68.5942460   6.2214940 112.9988190  68.0439840   5.7810100
 112.7713840  68.8485610   7.0430750 112.1044000  68.7498130   8.9640260
 111.7558820  69.2061950   9.7298440 111.7731700  67.8555260   9.0462690
 113.7108370  81.9217730  13.1293450 113.6678000  81.5510640  14.0107910
 113.8419380  82.8595300  13.2695270 117.4114400  83.4777320   8.7303170
 117.1705760  83.7451880   7.8433690 118.3517040  83.6483050   8.7854030
 119.6168820  69.9410010  12.4859680 119.5557710  70.5331840  13.2355090
 120.5569200  69.8335970  12.3409940 122.2543380  69.5980070  12.1251970
 122.8683790  69.9159360  11.4633050 122.7992940  69.1128660  12.7447830
 112.7764640  68.2774330  12.2391030 113.3247630  68.0962380  11.4757140
 112.8419950  67.4868440  12.7747340 113.5496400  84.8679980  10.2491230
 112.9556720  84.7364680  10.9881270 113.5420240  84.0318120   9.7833330
 122.9951420  68.1612210   8.4521260 122.1211260  68.4947320   8.2494190
 122.8862170  67.6885390   9.2773130 123.9023400  70.3683080   9.8362980
 123.5736760  69.5534840   9.4564710 124.8505700  70.3252890   9.7128670
 113.1808630  82.2338360   9.1999270 112.4542690  81.6143650   9.1325220
 113.2417780  82.6278970   8.3297350 116.7853730  84.4483360   5.9848680
 117.3018750  83.8370720   5.4596940 117.4351110  84.9512140   6.4759690
 119.5249230  85.3391850   6.8117660 119.8127040  85.0846150   5.9350670
 120.0372450  84.7869210   7.4023230 120.7426240  69.0782050   7.3914170
 119.9598030  69.5527550   7.6710930 120.4489170  68.1736880   7.2827350
 111.4638630  85.5512750   2.4096030 111.2960670  84.9183430   3.1077920
 110.5973140  85.7572150   2.0590220 118.6280460  71.4968800   2.9030200
 117.8154970  71.1225690   2.5626080 119.1322100  70.7413880   3.2051390
 123.1305440  68.1611250   4.1413270 123.7334810  68.7331460   4.6161790
 122.3898430  68.7250690   3.9187170 119.5921590  86.2607950  14.1785860
 120.5188900  86.0252220  14.2221820 119.5772020  87.0879950  13.6971890
 116.7785200  68.9252700  13.9427740 116.4969470  69.4286300  13.1788560
 117.1604900  68.1274450  13.5769870 123.3800660  68.3406280  14.5208210
 123.2666110  68.6600890  15.4159730 124.1970400  68.7418790  14.2245490
 122.2858810  57.5855260  97.5303890 122.2052860  56.6709870  97.2595600
 121.8723230  58.0822330  96.8243600 120.4176850  59.3634280  99.4113160
 119.6418950  58.8834720  99.7011730 121.0689780  58.6839930  99.2369320
 114.4342680  59.6754090 100.2888920 113.6027560  59.4202800 100.6885430
 115.0423660  59.7464860 101.0246840 124.4384280  63.7694470  98.1912290
 123.9765810  62.9981710  98.5199460 125.2509830  63.7960540  98.6964740
 114.4143940  63.7094180 100.4846940 114.7171980  62.8191920 100.3057160
 115.1587530  64.2664400 100.2569190 112.8434630  54.6355980  94.0731310
 111.9551330  54.9771950  93.9711190 113.1275820  54.4356300  93.1812140
 110.8067640  57.2361630  99.9571010 111.3783750  56.4683830  99.9574650
 110.8069180  57.5350390  99.0477620 120.6647590  66.0552480  97.8116280
 120.0459030  66.5109980  97.2410720 121.5199370  66.2103940  97.4105980
 119.8585840  62.0391470  99.4183320 119.7894120  61.0981410  99.2572450
 120.6205700  62.1292880  99.9905890 112.0492510  52.6445990 101.7439940
 111.8695350  51.7471740 102.0242700 111.6472590  53.1917860 102.4186890
 120.8891010  54.8461850  99.6452250 121.2655830  53.9733730  99.5325920
 120.7910520  55.1820550  98.7542690 115.0196020  53.2187480  95.1069690
 115.1262770  54.1191210  95.4138450 114.1088380  53.1705450  94.8164340
 112.6679180  55.1406490 100.3522280 113.3489290  55.4044860 100.9709680
 112.3527230  54.3007360 100.6860290 116.8603750  56.1873850  99.4394870
 117.3681970  56.6854820 100.0799890 117.3916990  55.4109050  99.2634230
 121.5310940  60.9391720  95.2048190 120.9128210  61.4041170  94.6410910
 122.0434190  61.6319200  95.6217700 116.3942700  60.4667590 101.8831790
 116.0612080  61.0936510 102.5252860 116.5709380  60.9929470 101.1033460
 124.9076610  54.2812670  99.3508130 124.2032180  54.5697560  99.9311240
 125.2688770  55.0912780  98.9907690 114.8255180  52.5382370 101.7128740
 115.1671990  53.3824420 101.4182610 113.8870990  52.6866110 101.8294080
 110.8994140  61.6248250  92.5787820 110.5222120  62.1135350  91.8472720
 111.1567210  62.2973530  93.2094350 118.5083070  50.0264640  98.0373330
 118.8158050  49.4711530  97.3208830 117.5783770  50.1609100  97.8546320
 124.0598130  65.7431930 100.3280790 124.0725290  65.3394220  99.4603050
 123.5073350  66.5179220 100.2242220 123.4583570  60.6461770 101.6563400
 123.8752360  60.4321880 100.8216860 124.1823390  60.9034560 102.2272020
 120.8963830  58.0913470  94.7733450 119.9693110  58.0250850  95.0021920
 121.0488650  59.0293600  94.6588690 120.8832910  54.3630470  91.7700610
 119.9436580  54.5244430  91.8553070 121.2016170  55.0816150  91.2236600
 124.9261120  59.6533770  95.2768700 124.3073540  59.3153320  94.6295000
 124.9085570  59.0093530  95.9847890 116.5020470  58.6178210  97.5553180
 116.0977470  57.9055460  97.0599080 116.5883590  58.2731450  98.4441220
 116.9702170  62.3045770  99.7192390 116.6730460  61.6991240  99.0400170
 117.9201990  62.3423080  99.6081750 115.2149090  55.3921420 101.3352220
 115.7663680  55.5016760 100.5605470 115.7292600  55.7659020 102.0507450
 123.1025820  58.8920580  92.2841450 123.5419100  58.0543010  92.1379270
 123.8154240  59.5249980  92.3705590 121.2121200  63.8316650  96.2522690
 121.6517110  64.5740980  95.8378080 121.1508090  64.0743220  97.1761650
 113.2025100  57.5123190  95.0559830 113.0822700  58.2385280  94.4441100
 112.8925990  56.7426100  94.5787740 110.8410470  60.6838330 100.8628470
 110.9190890  60.8187100  99.9184190 111.4552150  59.9754220 101.0556590
 112.0858100  62.3838520  97.2734650 111.6786180  62.5253110  96.4188250
 112.9771110  62.0998680  97.0705860 123.8791380  66.8185770  93.6085700
 123.7192520  66.5288710  94.5067530 123.7138090  66.0425900  93.0730930
 116.3579760  66.5984300  95.3857320 116.1822240  65.6819840  95.1725120
 115.5035500  66.9571590  95.6255120 123.5817510  64.3273330  92.1683700
 122.8882670  64.3250620  91.5085980 124.3240370  63.9032650  91.7377870
 123.1467440  65.9536040  96.2432190 123.6024390  65.1725420  96.5570810
 123.4859960  66.6642860  96.7873370 115.6688760  50.8558260  98.4383500
 115.2256910  51.6367800  98.1068020 116.2273750  51.1788150  99.1454440
 118.7847580  50.4768960  93.3189330 118.1601760  50.4728830  94.0442640
 118.6977700  49.6099920  92.9225300 117.7064660  51.4005590 100.2973100
 118.0036990  52.3068420 100.2165120 118.2550220  50.9124370  99.6832670
 115.4602980  55.9791830  96.1664750 115.2343900  55.7629000  97.0711370
 114.6795510  56.4120290  95.8210720 122.6900740  55.9855200  94.7655400
 122.0909630  56.7091000  94.5819020 123.2380350  55.9231980  93.9831850
 121.2965610  54.6218740  96.7958680 121.6895180  54.9390940  95.9827370
 121.6582460  53.7430620  96.9103200 110.3329780  51.2119540  99.0188880
 110.0442830  51.7822400  99.7313860 111.0775540  50.7323990  99.3820110
 110.5200010  55.1539660  90.2291600 110.4374680  56.0970420  90.3706590
 110.1683070  55.0114570  89.3503950 121.8820750  57.2124490 100.8909460
 121.1501870  57.7211300 101.2399560 121.4845090  56.3954470 100.5898240
 118.3198140  53.8878690  99.2961950 118.3234200  53.4468640  98.4466490
 119.2149260  54.2096020  99.4033770 114.1700520  53.7705180  98.2556160
 113.8300570  54.2480410  99.0123210 113.4077840  53.3170300  97.8957260
 118.3818290  54.8890770  92.2868710 118.5031110  54.8477250  93.2354530
 117.9966800  55.7514920  92.1315440 122.3446660  52.6658170 100.3032400
 122.3619400  53.1166820 101.1474250 122.0962240  51.7663810 100.5165840
 117.3939790  57.1991910  91.6852010 116.8256690  56.7510160  91.0587920
 118.1028790  57.5584690  91.1517160 118.6206110  57.9480470 101.0427360
 118.9876240  57.4739040 101.7888700 118.4311170  58.8222040 101.3835700
 111.4846600  52.6924160  97.1720830 111.1993520  52.3279830  98.0099450
 111.4225460  51.9604620  96.5583970 114.9387270  61.1950100  93.9578420
 114.1649530  60.6547720  93.7977140 115.6681900  60.6756710  93.6196180
 121.1585190  51.5853420  93.8934200 120.3449800  51.0866590  93.8179510
 120.9647140  52.4251670  93.4770550 123.8733580  55.9573070  92.1896360
 124.7613200  56.2690300  92.0147700 123.8438670  55.0845320  91.7976940
 114.9824670  60.8630480  97.5957230 115.5003340  60.0598740  97.5414120
 114.5308690  60.8009620  98.4374060 119.8694170  62.1296760  92.8684530
 120.2109870  62.8738990  92.3727850 119.0406880  62.4427880  93.2309360
 122.7521580  61.4512600  98.2330040 123.1045400  60.8540730  97.5731410
 121.8683910  61.1256830  98.4038290 118.8384860  62.2110290  95.6400450
 119.5255990  62.7579500  96.0208040 118.0517280  62.7551020  95.6750060
 110.9777260  57.8283110  91.1317530 111.8472110  58.1107910  91.4153450
 110.4867580  58.6418980  91.0166340 118.1412070  59.2156320  95.2525810
 118.5974850  60.0261570  95.4786000 117.7900280  58.8979460  96.0844300
 114.0423850  49.5593970  95.7248330 113.9138480  49.5511870  96.6733250
 113.2185870  49.8977060  95.3739340 121.7176760  62.7295010 101.1995560
 122.3598990  62.0288170 101.3127730 122.2426110  63.5093450 101.0192450
 111.3448510  67.0410490  91.6979160 111.7046150  67.6399830  91.0436430
 111.2040850  67.5870380  92.4714190 117.3617130  64.4241690  92.5152830
 117.3527230  65.1571380  91.8997340 116.4415490  64.1773270  92.6079790
 112.9623770  59.6456580  93.2599590 112.3551720  60.3855480  93.2694890
 113.4373120  59.7355940  92.4337790 120.3476730  64.4869930  91.1778020
 120.4488710  64.2833920  90.2480000 119.4478470  64.2328210  91.3825800
 117.8702620  55.0450290  95.1601920 117.1618770  55.5136630  95.6015530
 118.1547100  54.3872300  95.7947110 121.9018050  51.7700950  96.5997710
 121.7785830  51.7887080  95.6507220 122.8502610  51.8179890  96.7196110
 118.9894840  67.0056250  95.8725690 119.2436340  66.9677640  94.9505060
 118.0407320  66.8789580  95.8653940 116.0737640  53.3535370  92.5352630
 116.9228170  53.7905520  92.4692820 115.7068910  53.6655630  93.3624690
 124.9947420  57.9248130  97.4484200 124.0537560  57.9398360  97.6231890
 125.3091490  57.1384090  97.8944500 114.9729060  59.6067730  91.0088160
 115.7392330  59.4949090  91.5713590 115.0503750  58.9105700  90.3564930
 113.6675820  57.0392800  91.6921050 113.7479410  56.0920310  91.8038450
 114.5595570  57.3699680  91.7981710 114.4690530  67.1888190  98.7955590
 115.2053010  66.6403650  99.0664160 114.8531450  68.0544200  98.6561580
 111.3536010  63.2561760  94.6697100 110.4275790  63.4982900  94.6602510
 111.8192440  64.0836020  94.5481850 117.5792840  66.3618500  90.6181160
 118.3721450  66.6507330  90.1662950 117.0597190  65.9310670  89.9393640
 118.0970240  61.5821910  90.4823510 117.9920880  60.9674260  91.2084890
 117.9294460  61.0587800  89.6986520 121.3372970  60.6441940  91.0865500
 120.7883070  61.0911240  91.7308240 121.9592230  60.1391190  91.6103170
 117.0048090  59.6032860  92.9830800 117.4264510  59.4372730  93.8262190
 117.1298930  58.7933090  92.4885940 119.5175730  58.6270470  90.2307900
 120.0381390  57.9119490  89.8649050 120.1644130  59.2656340  90.5308410
 115.9006990  55.6766090  89.9288960 115.6996050  54.8133450  90.2902300
 115.7299040  55.5899450  88.9910560 123.3795300  50.4874320  92.4575840
 123.6597590  49.6442220  92.8135260 122.6061030  50.7197430  92.9714590
 114.6989790  52.7766710  89.9166840 115.0015690  52.7834140  89.0085990
 115.4384380  52.4264570  90.4134500 117.9174720  51.7201330  90.9023040
 117.5696720  51.0425320  90.3225490 118.1187490  51.2590840  91.7166430
 120.0823760  66.7082080  92.5209640 120.9774550  67.0467050  92.5428400
 120.1141390  65.9861490  91.8933920 113.7219920  62.0809130  90.7496640
 114.1594790  62.6238800  91.4054220 114.2067650  61.2556080  90.7592980
 110.9365720  64.8698160  98.2016900 111.2668730  64.0019220  97.9695540
 111.3656720  65.0756680  99.0321860 115.5327640  63.2007170  95.8618870
 115.2323180  63.0772140  96.7622780 115.4265130  62.3415760  95.4534600
 111.4255930  65.7368750 100.9398530 110.9886920  65.9169550 101.7722680
 111.9933610  66.4943370 100.7980250 111.2580360  58.2488980  97.2987410
 110.6029200  57.9800620  96.6547110 112.0958310  58.1393460  96.8489390
 124.2070800  53.0430270  91.5205900 124.6255680  52.8561250  90.6802560
 123.9006860  52.1909320  91.8308830 112.2956290  58.6341550 101.8390750
 112.6629330  58.5468950 102.7186770 111.7267110  57.8708100 101.7397610
 110.4718440  55.4587910  93.2412740 109.5682520  55.7218110  93.0664400
 110.9559060  55.7299080  92.4612700 113.0145650  54.5153450  91.1507120
 113.7237350  54.0936670  90.6654400 112.2985590  54.5828680  90.5190470
 112.6619810  50.5692780  90.1909770 113.3847940  51.1101720  90.5090990
 112.9344330  50.2956200  89.3151310 112.3512000  49.8198970 100.0932390
 112.9988190  49.2696350  99.6527550 112.7713840  50.0742120 100.9148200
 117.4114400  64.7033830 102.6020620 117.1705760  64.9708390 101.7151140
 118.3517040  64.8739560 102.6571480 116.7853730  65.6739870  99.8566130
 117.3018750  65.0627230  99.3314390 117.4351110  66.1768650 100.3477140
 119.5249230  66.5648360 100.6835110 119.8127040  66.3102660  99.8068120
 120.0372450  66.0125720 101.2740680 120.7426240  50.3038560 101.2631620
 119.9598030  50.7784060 101.5428380 120.4489170  49.3993390 101.1544800
 111.4638630  66.7769260  96.2813480 111.2960670  66.1439940  96.9795370
 110.5973140  66.9828660  95.9307670 112.0866650  50.6086040  93.7845340
 112.8446010  50.7214920  93.2109370 111.6243820  51.4455240  93.7388770
 118.6280460  52.7225310  96.7747650 117.8154970  52.3482200  96.4343530
 119.1322100  51.9670390  97.0768840 123.1305440  49.3867760  98.0130720
 123.7334810  49.9587970  98.4879240 122.3898430  49.9507200  97.7904620
 113.0701330  65.4702490  93.7263620 112.5448950  65.8510520  93.0225580
 112.9945910  66.0953260  94.4473330 114.4591800  51.1350090  92.3247310
 114.9884560  50.3479890  92.1955260 115.0920120  51.8141280  92.5582840
 116.6529640  50.8725230  95.3792700 116.0232380  50.1712540  95.5462830
 116.1134780  51.6329360  95.1625860 115.6694300  67.4184870  92.6012870
 116.4013120  67.1344150  92.0536760 115.9287970  67.1798150  93.4912250
 114.8309090  63.5349600  92.6059200 114.2017970  64.0034700  93.1545030
 114.9456920  62.6898820  93.0405390 122.2858810  57.5855260  78.7560400
 122.2052860  56.6709870  78.4852110 121.8723230  58.0822330  78.0500110
 120.4176850  59.3634280  80.6369670 119.6418950  58.8834720  80.9268240
 121.0689780  58.6839930  80.4625830 114.4342680  59.6754090  81.5145430
 113.6027560  59.4202800  81.9141940 115.0423660  59.7464860  82.2503350
 124.4384280  63.7694470  79.4168800 123.9765810  62.9981710  79.7455970
 125.2509830  63.7960540  79.9221250 114.4143940  63.7094180  81.7103450
 114.7171980  62.8191920  81.5313670 115.1587530  64.2664400  81.4825700
 112.8434630  54.6355980  75.2987820 111.9551330  54.9771950  75.1967700
 113.1275820  54.4356300  74.4068650 110.8067640  57.2361630  81.1827520
 111.3783750  56.4683830  81.1831160 110.8069180  57.5350390  80.2734130
 120.6647590  66.0552480  79.0372790 120.0459030  66.5109980  78.4667230
 121.5199370  66.2103940  78.6362490 119.8585840  62.0391470  80.6439830
 119.7894120  61.0981410  80.4828960 120.6205700  62.1292880  81.2162400
 112.0492510  52.6445990  82.9696450 111.8695350  51.7471740  83.2499210
 111.6472590  53.1917860  83.6443400 120.8891010  54.8461850  80.8708760
 121.2655830  53.9733730  80.7582430 120.7910520  55.1820550  79.9799200
 115.0196020  53.2187480  76.3326200 115.1262770  54.1191210  76.6394960
 114.1088380  53.1705450  76.0420850 112.6679180  55.1406490  81.5778790
 113.3489290  55.4044860  82.1966190 112.3527230  54.3007360  81.9116800
 116.8603750  56.1873850  80.6651380 117.3681970  56.6854820  81.3056400
 117.3916990  55.4109050  80.4890740 115.1439850  50.8272410  84.9314800
 115.1458290  51.3444800  84.1260700 114.3144160  50.3502590  84.9084730
 121.5310940  60.9391720  76.4304700 120.9128210  61.4041170  75.8667420
 122.0434190  61.6319200  76.8474210 116.3942700  60.4667590  83.1088300
 116.0612080  61.0936510  83.7509370 116.5709380  60.9929470  82.3289970
 124.9076610  54.2812670  80.5764640 124.2032180  54.5697560  81.1567750
 125.2688770  55.0912780  80.2164200 114.8255180  52.5382370  82.9385250
 115.1671990  53.3824420  82.6439120 113.8870990  52.6866110  83.0550590
 115.6061800  62.4348390  84.9237480 116.2235800  63.1099470  84.6421930
 114.7454920  62.8436370  84.8324980 110.8994140  61.6248250  73.8044330
 110.5222120  62.1135350  73.0729230 111.1567210  62.2973530  74.4350860
 118.5083070  50.0264640  79.2629840 118.8158050  49.4711530  78.5465340
 117.5783770  50.1609100  79.0802830 124.0598130  65.7431930  81.5537300
 124.0725290  65.3394220  80.6859560 123.5073350  66.5179220  81.4498730
 123.4583570  60.6461770  82.8819910 123.8752360  60.4321880  82.0473370
 124.1823390  60.9034560  83.4528530 120.8963830  58.0913470  75.9989960
 119.9693110  58.0250850  76.2278430 121.0488650  59.0293600  75.8845200
 120.8832910  54.3630470  72.9957120 119.9436580  54.5244430  73.0809580
 121.2016170  55.0816150  72.4493110 124.9261120  59.6533770  76.5025210
 124.3073540  59.3153320  75.8551510 124.9085570  59.0093530  77.2104400
 124.3687680  55.8318310  83.9191020 123.9558860  56.6572020  84.1731010
 123.6363630  55.2463350  83.7267380 116.5020470  58.6178210  78.7809690
 116.0977470  57.9055460  78.2855590 116.5883590  58.2731450  79.6697730
 116.9702170  62.3045770  80.9448900 116.6730460  61.6991240  80.2656680
 117.9201990  62.3423080  80.8338260 115.2149090  55.3921420  82.5608730
 115.7663680  55.5016760  81.7861980 115.7292600  55.7659020  83.2763960
 125.0587780  65.8777640  84.6072000 124.5818340  66.6849830  84.4144610
 124.3749570  65.2255970  84.7598210 116.0620600  62.0427460  87.5956700
 115.1649130  62.2667430  87.8430100 116.0873470  62.1662400  86.6468100
 123.1025820  58.8920580  73.5097960 123.5419100  58.0543010  73.3635780
 123.8154240  59.5249980  73.5962100 114.8891820  58.9140780  86.1714070
 114.7499590  59.7863580  86.5401470 114.0073180  58.5713590  86.0262010
 121.2121200  63.8316650  77.4779200 121.6517110  64.5740980  77.0634590
 121.1508090  64.0743220  78.4018160 116.6872170  64.8562480  88.3799220
 116.6587600  65.2605430  87.5127650 116.5237140  63.9272840  88.2170820
 113.2025100  57.5123190  76.2816340 113.0822700  58.2385280  75.6697610
 112.8925990  56.7426100  75.8044250 110.8410470  60.6838330  82.0884980
 110.9190890  60.8187100  81.1440700 111.4552150  59.9754220  82.2813100
 112.0858100  62.3838520  78.4991160 111.6786180  62.5253110  77.6444760
 112.9771110  62.0998680  78.2962370 121.9036980  66.5330430  85.4058210
 122.4181650  66.4438440  86.2080640 121.0606060  66.8790130  85.6986120
 123.8791380  66.8185770  74.8342210 123.7192520  66.5288710  75.7324040
 123.7138090  66.0425900  74.2987440 116.3579760  66.5984300  76.6113830
 116.1822240  65.6819840  76.3981630 115.5035500  66.9571590  76.8511630
 123.5817510  64.3273330  73.3940210 122.8882670  64.3250620  72.7342490
 124.3240370  63.9032650  72.9634380 123.1467440  65.9536040  77.4688700
 123.6024390  65.1725420  77.7827320 123.4859960  66.6642860  78.0129880
 110.8969990  61.7252500  84.6279440 111.0601030  61.2557860  83.8098810
 111.3622440  61.2176060  85.2928280 115.6688760  50.8558260  79.6640010
 115.2256910  51.6367800  79.3324530 116.2273750  51.1788150  80.3710950
 119.9558570  53.7226780  85.2675330 119.4937940  53.9309800  86.0795270
 119.5536680  52.9086130  84.9646000 124.9563080  54.9435730  86.3971990
 124.1056670  54.6441480  86.7181060 124.7964870  55.1877740  85.4855810
 122.0512790  56.4437480  88.4970780 122.3766200  55.6101230  88.1573010
 122.8393120  56.9666000  88.6449110 118.7847580  50.4768960  74.5445840
 118.1601760  50.4728830  75.2699150 118.6977700  49.6099920  74.1481810
 117.7064660  51.4005590  81.5229610 118.0036990  52.3068420  81.4421630
 118.2550220  50.9124370  80.9089180 115.4602980  55.9791830  77.3921260
 115.2343900  55.7629000  78.2967880 114.6795510  56.4120290  77.0467230
 122.6900740  55.9855200  75.9911910 122.0909630  56.7091000  75.8075530
 123.2380350  55.9231980  75.2088360 117.9002190  56.8777410  88.0581530
 117.8045790  55.9372140  87.9081930 118.7434170  57.0992480  87.6629600
 121.2965610  54.6218740  78.0215190 121.6895180  54.9390940  77.2083880
 121.6582460  53.7430620  78.1359710 113.0312730  53.2891080  86.2115310
 112.6376120  54.1366290  86.4188090 112.3431130  52.6517450  86.4023950
 119.6057780  53.3726050  89.2812050 118.9156100  53.1798250  89.9158140
 120.3490080  53.6560690  89.8136350 110.3329780  51.2119540  80.2445390
 110.0442830  51.7822400  80.9570370 111.0775540  50.7323990  80.6076620
 110.5200010  55.1539660  71.4548110 110.4374680  56.0970420  71.5963100
 110.1683070  55.0114570  70.5760460 121.8820750  57.2124490  82.1165970
 121.1501870  57.7211300  82.4656070 121.4845090  56.3954470  81.8154750
 118.3198140  53.8878690  80.5218460 118.3234200  53.4468640  79.6723000
 119.2149260  54.2096020  80.6290280 114.1700520  53.7705180  79.4812670
 113.8300570  54.2480410  80.2379720 113.4077840  53.3170300  79.1213770
 118.3818290  54.8890770  73.5125220 118.5031110  54.8477250  74.4611040
 117.9966800  55.7514920  73.3571950 122.3446660  52.6658170  81.5288910
 122.3619400  53.1166820  82.3730760 122.0962240  51.7663810  81.7422350
 117.3939790  57.1991910  72.9108520 116.8256690  56.7510160  72.2844430
 118.1028790  57.5584690  72.3773670 112.4708970  61.1003930  86.7875250
 112.0863760  60.4597600  87.3858210 112.7821160  61.8040050  87.3569980
 118.6206110  57.9480470  82.2683870 118.9876240  57.4739040  83.0145210
 118.4311170  58.8222040  82.6092210 111.4846600  52.6924160  78.3977340
 111.1993520  52.3279830  79.2355960 111.4225460  51.9604620  77.7840480
 116.4105480  56.9889110  84.5868080 116.1062550  57.8681090  84.8118440
 117.3651940  57.0488900  84.6225520 114.9387270  61.1950100  75.1834930
 114.1649530  60.6547720  75.0233650 115.6681900  60.6756710  74.8452690
 121.1585190  51.5853420  75.1190710 120.3449800  51.0866590  75.0436020
 120.9647140  52.4251670  74.7027060 121.0794050  60.2624520  86.8630320
 121.0131360  59.3420190  86.6087910 120.4499190  60.3599960  87.5774960
 123.8733580  55.9573070  73.4152870 124.7613200  56.2690300  73.2404210
 123.8438670  55.0845320  73.0233450 114.9824670  60.8630480  78.8213740
 115.5003340  60.0598740  78.7670630 114.5308690  60.8009620  79.6630570
 119.8694170  62.1296760  74.0941040 120.2109870  62.8738990  73.5984360
 119.0406880  62.4427880  74.4565870 112.4669210  57.8291850  85.7339440
 112.1084150  58.4945700  86.3212780 112.1723770  56.9975400  86.1052060
 115.6682330  58.2876090  88.6178990 115.3682470  58.4333270  87.7206810
 116.4393570  57.7281380  88.5252380 121.0110780  63.0845090  86.6134120
 121.0255320  62.1526050  86.3953030 120.3035880  63.1704850  87.2523890
 122.7521580  61.4512600  79.4586550 123.1045400  60.8540730  78.7987920
 121.8683910  61.1256830  79.6294800 118.8384860  62.2110290  76.8656960
 119.5255990  62.7579500  77.2464550 118.0517280  62.7551020  76.9006570
 110.9777260  57.8283110  72.3574040 111.8472110  58.1107910  72.6409960
 110.4867580  58.6418980  72.2422850 118.1412070  59.2156320  76.4782320
 118.5974850  60.0261570  76.7042510 117.7900280  58.8979460  77.3100810
 120.4444680  64.7262660  83.7074620 121.0886900  64.9322040  84.3848040
 120.8074120  63.9651060  83.2545470 114.0423850  49.5593970  76.9504840
 113.9138480  49.5511870  77.8989760 113.2185870  49.8977060  76.5995850
 121.7176760  62.7295010  82.4252070 122.3598990  62.0288170  82.5384240
 122.2426110  63.5093450  82.2448960 123.4914380  63.5289910  85.6288130
 123.8270620  64.1156600  86.3066050 122.5714720  63.3982620  85.8585920
 111.3448510  67.0410490  72.9235670 111.7046150  67.6399830  72.2692940
 111.2040850  67.5870380  73.6970700 111.0417780  51.3185090  86.4111540
 110.3276300  51.5182010  87.0164150 111.4612820  50.5424660  86.7826340
 111.3290370  65.3065350  87.3978070 111.4381490  64.3660090  87.2573460
 110.6770930  65.5720100  86.7491800 119.3202960  63.5781240  88.7976190
 118.9999830  62.8590480  89.3421880 118.6461320  64.2536310  88.8712250
 117.3617130  64.4241690  73.7409340 117.3527230  65.1571380  73.1253850
 116.4415490  64.1773270  73.8336300 112.9623770  59.6456580  74.4856100
 112.3551720  60.3855480  74.4951400 113.4373120  59.7355940  73.6594300
 122.5356560  53.8107400  84.1612990 122.9037380  52.9902610  84.4892560
 121.6754760  53.8709290  84.5768640 120.3476730  64.4869930  72.4034530
 120.4488710  64.2833920  71.4736510 119.4478470  64.2328210  72.6082310
 117.8702620  55.0450290  76.3858430 117.1618770  55.5136630  76.8272040
 118.1547100  54.3872300  77.0203620 119.4958550  56.4646990  84.3850960
 119.9943800  56.9392810  85.0502810 119.6381500  55.5410510  84.5920990
 121.9018050  51.7700950  77.8254220 121.7785830  51.7887080  76.8763730
 122.8502610  51.8179890  77.9452620 118.9894840  67.0056250  77.0982200
 119.2436340  66.9677640  76.1761570 118.0407320  66.8789580  77.0910450
 116.0737640  53.3535370  73.7609140 116.9228170  53.7905520  73.6949330
 115.7068910  53.6655630  74.5881200 124.9947420  57.9248130  78.6740710
 124.0537560  57.9398360  78.8488400 125.3091490  57.1384090  79.1201010
 114.9729060  59.6067730  72.2344670 115.7392330  59.4949090  72.7970100
 115.0503750  58.9105700  71.5821440 113.6675820  57.0392800  72.9177560
 113.7479410  56.0920310  73.0294960 114.5595570  57.3699680  73.0238220
 114.4690530  67.1888190  80.0212100 115.2053010  66.6403650  80.2920670
 114.8531450  68.0544200  79.8818090 111.3536010  63.2561760  75.8953610
 110.4275790  63.4982900  75.8859020 111.8192440  64.0836020  75.7738360
 113.4748810  66.3734260  89.2097680 114.2761540  66.6946310  89.6233080
 112.9600630  66.0129840  89.9317590 117.5792840  66.3618500  71.8437670
 118.3721450  66.6507330  71.3919460 117.0597190  65.9310670  71.1650150
 122.3113440  62.4814130  89.1573090 121.7051600  62.5045730  88.4168840
 122.0067550  61.7497170  89.6940340 123.7413810  66.2094420  87.7682500
 124.6935560  66.1252440  87.7182740 123.5942030  66.8736130  88.4416290
 111.1946620  58.8607720  88.1533730 111.6985640  58.2815000  88.7249960
 110.4554040  59.1447950  88.6910100 118.0970240  61.5821910  71.7080020
 117.9920880  60.9674260  72.4341400 117.9294460  61.0587800  70.9243030
 118.2484560  60.2678710  87.6869250 117.4830230  60.8363710  87.6023920
 118.4300520  59.9754920  86.7937480 121.3372970  60.6441940  72.3122010
 120.7883070  61.0911240  72.9564750 121.9592230  60.1391190  72.8359680
 113.2269700  57.0037310  89.0483800 113.2675040  56.7051180  89.9569030
 114.0815200  57.4044920  88.8891320 117.0048090  59.6032860  74.2087310
 117.4264510  59.4372730  75.0518700 117.1298930  58.7933090  73.7142450
 115.1675510  55.5829410  87.0158290 114.6371970  55.0920360  86.3881630
 115.8363580  56.0113610  86.4816220 119.5175730  58.6270470  71.4564410
 120.0381390  57.9119490  71.0905560 120.1644130  59.2656340  71.7564920
 124.0653570  60.0498870  86.7799480 124.4794590  60.2043950  87.6289900
 123.1304570  60.1754090  86.9425260 124.5375740  57.3895030  88.7838630
 125.1196510  56.6347350  88.6959110 124.7137510  57.9202470  88.0070110
 115.6547810  52.5491780  87.0955580 115.5604680  51.9312530  86.3706450
 115.0745200  53.2758070  86.8685490 118.4209250  51.1065020  84.1282970
 117.9726550  51.1289280  83.2828520 117.7874450  50.7084040  84.7253270
 118.8268800  60.0019350  84.7495410 119.2456910  60.8452080  84.5771650
 117.9077430  60.1391390  84.5202190 121.1632700  57.7335530  86.1333250
 121.2828910  57.1376670  86.8728090 122.0226700  57.7705220  85.7134550
 123.5020600  58.2872720  84.7095760 122.9755820  58.8115340  84.1060900
 123.8451940  58.9200110  85.3405490 115.9006990  55.6766090  71.1545470
 115.6996050  54.8133450  71.5158810 115.7299040  55.5899450  70.2167070
 116.6776220  66.3072360  85.8653140 116.1397310  67.0318420  85.5461840
 116.9310180  65.8302700  85.0750480 117.9301470  54.2756880  87.3909070
 118.5201160  53.9672730  88.0786890 117.1121710  53.8036630  87.5468970
 122.7494900  53.8922690  87.6242090 122.0610420  53.2304230  87.5592080
 123.4700920  53.4460960  88.0690550 123.3795300  50.4874320  73.6832350
 123.6597590  49.6442220  74.0391770 122.6061030  50.7197430  74.1971100
 114.6989790  52.7766710  71.1423350 115.0015690  52.7834140  70.2342500
 115.4384380  52.4264570  71.6391010 119.5338430  67.5423570  86.1239790
 119.4597130  68.4458710  86.4312160 118.6317270  67.2235470  86.0961860
 117.9174720  51.7201330  72.1279550 117.5696720  51.0425320  71.5482000
 118.1187490  51.2590840  72.9422940 120.0823760  66.7082080  73.7466150
 120.9774550  67.0467050  73.7684910 120.1141390  65.9861490  73.1190430
 113.7219920  62.0809130  71.9753150 114.1594790  62.6238800  72.6310730
 114.2067650  61.2556080  71.9849490 110.9365720  64.8698160  79.4273410
 111.2668730  64.0019220  79.1952050 111.3656720  65.0756680  80.2578370
 115.5327640  63.2007170  77.0875380 115.2323180  63.0772140  77.9879290
 115.4265130  62.3415760  76.6791110 111.4255930  65.7368750  82.1655040
 110.9886920  65.9169550  82.9979190 111.9933610  66.4943370  82.0236760
 111.2580360  58.2488980  78.5243920 110.6029200  57.9800620  77.8803620
 112.0958310  58.1393460  78.0745900 124.2070800  53.0430270  72.7462410
 124.6255680  52.8561250  71.9059070 123.9006860  52.1909320  73.0565340
 112.2956290  58.6341550  83.0647260 112.6629330  58.5468950  83.9443280
 111.7267110  57.8708100  82.9654120 111.8472290  55.5450640  86.9705680
 110.9528340  55.5117400  87.3099390 112.3869840  55.7437430  87.7356930
 110.4718440  55.4587910  74.4669250 109.5682520  55.7218110  74.2920910
 110.9559060  55.7299080  73.6869210 113.0145650  54.5153450  72.3763630
 113.7237350  54.0936670  71.8910910 112.2985590  54.5828680  71.7446980
 112.6619810  50.5692780  71.4166280 113.3847940  51.1101720  71.7347500
 112.9344330  50.2956200  70.5407820 112.3512000  49.8198970  81.3188900
 112.9988190  49.2696350  80.8784060 112.7713840  50.0742120  82.1404710
 112.1044000  49.9754640  84.0614220 111.7558820  50.4318460  84.8272400
 111.7731700  49.0811770  84.1436650 113.7108370  63.1474240  88.2267410
 113.6678000  62.7767150  89.1081870 113.8419380  64.0851810  88.3669230
 117.4114400  64.7033830  83.8277130 117.1705760  64.9708390  82.9407650
 118.3517040  64.8739560  83.8827990 119.6168820  51.1666520  87.5833640
 119.5557710  51.7588350  88.3329050 120.5569200  51.0592480  87.4383900
 122.2543380  50.8236580  87.2225930 122.8683790  51.1415870  86.5607010
 122.7992940  50.3385170  87.8421790 112.7764640  49.5030840  87.3364990
 113.3247630  49.3218890  86.5731100 112.8419950  48.7124950  87.8721300
 113.5496400  66.0936490  85.3465190 112.9556720  65.9621190  86.0855230
 113.5420240  65.2574630  84.8807290 122.9951420  49.3868720  83.5495220
 122.1211260  49.7203830  83.3468150 122.8862170  48.9141900  84.3747090
 123.9023400  51.5939590  84.9336940 123.5736760  50.7791350  84.5538670
 124.8505700  51.5509400  84.8102630 113.1808630  63.4594870  84.2973230
 112.4542690  62.8400160  84.2299180 113.2417780  63.8535480  83.4271310
 116.7853730  65.6739870  81.0822640 117.3018750  65.0627230  80.5570900
 117.4351110  66.1768650  81.5733650 119.5249230  66.5648360  81.9091620
 119.8127040  66.3102660  81.0324630 120.0372450  66.0125720  82.4997190
 120.7426240  50.3038560  82.4888130 119.9598030  50.7784060  82.7684890
 120.4489170  49.3993390  82.3801310 111.4638630  66.7769260  77.5069990
 111.2960670  66.1439940  78.2051880 110.5973140  66.9828660  77.1564180
 112.0866650  50.6086040  75.0101850 112.8446010  50.7214920  74.4365880
 111.6243820  51.4455240  74.9645280 118.6280460  52.7225310  78.0004160
 117.8154970  52.3482200  77.6600040 119.1322100  51.9670390  78.3025350
 123.1305440  49.3867760  79.2387230 123.7334810  49.9587970  79.7135750
 122.3898430  49.9507200  79.0161130 113.0701330  65.4702490  74.9520130
 112.5448950  65.8510520  74.2482090 112.9945910  66.0953260  75.6729840
 114.4591800  51.1350090  73.5503820 114.9884560  50.3479890  73.4211770
 115.0920120  51.8141280  73.7839350 116.6529640  50.8725230  76.6049210
 116.0232380  50.1712540  76.7719340 116.1134780  51.6329360  76.3882370
 119.5921590  67.4864460  89.2759820 120.5188900  67.2508730  89.3195780
 119.5772020  68.3136460  88.7945850 116.7785200  50.1509210  89.0401700
 116.4969470  50.6542810  88.2762520 117.1604900  49.3530960  88.6743830
 115.6694300  67.4184870  73.8269380 116.4013120  67.1344150  73.2793270
 115.9287970  67.1798150  74.7168760 114.8309090  63.5349600  73.8315710
 114.2017970  64.0034700  74.3801540 114.9456920  62.6898820  74.2661900
 123.3800660  49.5662790  89.6182170 123.2666110  49.8857400  90.5133690
 124.1970400  49.9675300  89.3219450 122.2858810  57.5855260  59.9816910
 122.2052860  56.6709870  59.7108620 121.8723230  58.0822330  59.2756620
 120.4176850  59.3634280  61.8626180 119.6418950  58.8834720  62.1524750
 121.0689780  58.6839930  61.6882340 114.4342680  59.6754090  62.7401940
 113.6027560  59.4202800  63.1398450 115.0423660  59.7464860  63.4759860
 124.4384280  63.7694470  60.6425310 123.9765810  62.9981710  60.9712480
 125.2509830  63.7960540  61.1477760 114.4143940  63.7094180  62.9359960
 114.7171980  62.8191920  62.7570180 115.1587530  64.2664400  62.7082210
 112.8434630  54.6355980  56.5244330 111.9551330  54.9771950  56.4224210
 113.1275820  54.4356300  55.6325160 110.8067640  57.2361630  62.4084030
 111.3783750  56.4683830  62.4087670 110.8069180  57.5350390  61.4990640
 120.6647590  66.0552480  60.2629300 120.0459030  66.5109980  59.6923740
 121.5199370  66.2103940  59.8619000 119.8585840  62.0391470  61.8696340
 119.7894120  61.0981410  61.7085470 120.6205700  62.1292880  62.4418910
 112.0492510  52.6445990  64.1952960 111.8695350  51.7471740  64.4755720
 111.6472590  53.1917860  64.8699910 120.8891010  54.8461850  62.0965270
 121.2655830  53.9733730  61.9838940 120.7910520  55.1820550  61.2055710
 115.0196020  53.2187480  57.5582710 115.1262770  54.1191210  57.8651470
 114.1088380  53.1705450  57.2677360 112.6679180  55.1406490  62.8035300
 113.3489290  55.4044860  63.4222700 112.3527230  54.3007360  63.1373310
 116.8603750  56.1873850  61.8907890 117.3681970  56.6854820  62.5312910
 117.3916990  55.4109050  61.7147250 115.1439850  50.8272410  66.1571310
 115.1458290  51.3444800  65.3517210 114.3144160  50.3502590  66.1341240
 121.5310940  60.9391720  57.6561210 120.9128210  61.4041170  57.0923930
 122.0434190  61.6319200  58.0730720 116.3942700  60.4667590  64.3344810
 116.0612080  61.0936510  64.9765880 116.5709380  60.9929470  63.5546480
 124.9076610  54.2812670  61.8021150 124.2032180  54.5697560  62.3824260
 125.2688770  55.0912780  61.4420710 114.8255180  52.5382370  64.1641760
 115.1671990  53.3824420  63.8695630 113.8870990  52.6866110  64.2807100
 115.6061800  62.4348390  66.1493990 116.2235800  63.1099470  65.8678440
 114.7454920  62.8436370  66.0581490 110.8994140  61.6248250  55.0300840
 110.5222120  62.1135350  54.2985740 111.1567210  62.2973530  55.6607370
 118.5083070  50.0264640  60.4886350 118.8158050  49.4711530  59.7721850
 117.5783770  50.1609100  60.3059340 124.0598130  65.7431930  62.7793810
 124.0725290  65.3394220  61.9116070 123.5073350  66.5179220  62.6755240
 123.4583570  60.6461770  64.1076420 123.8752360  60.4321880  63.2729880
 124.1823390  60.9034560  64.6785040 120.8963830  58.0913470  57.2246470
 119.9693110  58.0250850  57.4534940 121.0488650  59.0293600  57.1101710
 120.8832910  54.3630470  54.2213630 119.9436580  54.5244430  54.3066090
 121.2016170  55.0816150  53.6749620 124.9261120  59.6533770  57.7281720
 124.3073540  59.3153320  57.0808020 124.9085570  59.0093530  58.4360910
 124.3687680  55.8318310  65.1447530 123.9558860  56.6572020  65.3987520
 123.6363630  55.2463350  64.9523890 116.5020470  58.6178210  60.0066200
 116.0977470  57.9055460  59.5112100 116.5883590  58.2731450  60.8954240
 116.9702170  62.3045770  62.1705410 116.6730460  61.6991240  61.4913190
 117.9201990  62.3423080  62.0594770 115.2149090  55.3921420  63.7865240
 115.7663680  55.5016760  63.0118490 115.7292600  55.7659020  64.5020470
 125.0587780  65.8777640  65.8328510 124.5818340  66.6849830  65.6401120
 124.3749570  65.2255970  65.9854720 116.0620600  62.0427460  68.8213210
 115.1649130  62.2667430  69.0686610 116.0873470  62.1662400  67.8724610
 123.1025820  58.8920580  54.7354470 123.5419100  58.0543010  54.5892290
 123.8154240  59.5249980  54.8218610 114.8891820  58.9140780  67.3970580
 114.7499590  59.7863580  67.7657980 114.0073180  58.5713590  67.2518520
 121.2121200  63.8316650  58.7035710 121.6517110  64.5740980  58.2891100
 121.1508090  64.0743220  59.6274670 116.6872170  64.8562480  69.6055730
 116.6587600  65.2605430  68.7384160 116.5237140  63.9272840  69.4427330
 113.2025100  57.5123190  57.5072850 113.0822700  58.2385280  56.8954120
 112.8925990  56.7426100  57.0300760 110.8410470  60.6838330  63.3141490
 110.9190890  60.8187100  62.3697210 111.4552150  59.9754220  63.5069610
 112.0858100  62.3838520  59.7247670 111.6786180  62.5253110  58.8701270
 112.9771110  62.0998680  59.5218880 121.9036980  66.5330430  66.6314720
 122.4181650  66.4438440  67.4337150 121.0606060  66.8790130  66.9242630
 123.8791380  66.8185770  56.0598720 123.7192520  66.5288710  56.9580550
 123.7138090  66.0425900  55.5243950 116.3579760  66.5984300  57.8370340
 116.1822240  65.6819840  57.6238140 115.5035500  66.9571590  58.0768140
 123.5817510  64.3273330  54.6196720 122.8882670  64.3250620  53.9599000
 124.3240370  63.9032650  54.1890890 123.1467440  65.9536040  58.6945210
 123.6024390  65.1725420  59.0083830 123.4859960  66.6642860  59.2386390
 110.8969990  61.7252500  65.8535950 111.0601030  61.2557860  65.0355320
 111.3622440  61.2176060  66.5184790 115.6688760  50.8558260  60.8896520
 115.2256910  51.6367800  60.5581040 116.2273750  51.1788150  61.5967460
 119.9558570  53.7226780  66.4931840 119.4937940  53.9309800  67.3051780
 119.5536680  52.9086130  66.1902510 124.9563080  54.9435730  67.6228500
 124.1056670  54.6441480  67.9437570 124.7964870  55.1877740  66.7112320
 122.0512790  56.4437480  69.7227290 122.3766200  55.6101230  69.3829520
 122.8393120  56.9666000  69.8705620 118.7847580  50.4768960  55.7702350
 118.1601760  50.4728830  56.4955660 118.6977700  49.6099920  55.3738320
 117.7064660  51.4005590  62.7486120 118.0036990  52.3068420  62.6678140
 118.2550220  50.9124370  62.1345690 115.4602980  55.9791830  58.6177770
 115.2343900  55.7629000  59.5224390 114.6795510  56.4120290  58.2723740
 122.6900740  55.9855200  57.2168420 122.0909630  56.7091000  57.0332040
 123.2380350  55.9231980  56.4344870 117.9002190  56.8777410  69.2838040
 117.8045790  55.9372140  69.1338440 118.7434170  57.0992480  68.8886110
 121.2965610  54.6218740  59.2471700 121.6895180  54.9390940  58.4340390
 121.6582460  53.7430620  59.3616220 113.0312730  53.2891080  67.4371820
 112.6376120  54.1366290  67.6444600 112.3431130  52.6517450  67.6280460
 119.6057780  53.3726050  70.5068560 118.9156100  53.1798250  71.1414650
 120.3490080  53.6560690  71.0392860 110.3329780  51.2119540  61.4701900
 110.0442830  51.7822400  62.1826880 111.0775540  50.7323990  61.8333130
 110.5200010  55.1539660  52.6804620 110.4374680  56.0970420  52.8219610
 110.1683070  55.0114570  51.8016970 121.8820750  57.2124490  63.3422480
 121.1501870  57.7211300  63.6912580 121.4845090  56.3954470  63.0411260
 118.3198140  53.8878690  61.7474970 118.3234200  53.4468640  60.8979510
 119.2149260  54.2096020  61.8546790 114.1700520  53.7705180  60.7069180
 113.8300570  54.2480410  61.4636230 113.4077840  53.3170300  60.3470280
 118.3818290  54.8890770  54.7381730 118.5031110  54.8477250  55.6867550
 117.9966800  55.7514920  54.5828460 122.3446660  52.6658170  62.7545420
 122.3619400  53.1166820  63.5987270 122.0962240  51.7663810  62.9678860
 117.3939790  57.1991910  54.1365030 116.8256690  56.7510160  53.5100940
 118.1028790  57.5584690  53.6030180 112.4708970  61.1003930  68.0131760
 112.0863760  60.4597600  68.6114720 112.7821160  61.8040050  68.5826490
 118.6206110  57.9480470  63.4940380 118.9876240  57.4739040  64.2401720
 118.4311170  58.8222040  63.8348720 111.4846600  52.6924160  59.6233850
 111.1993520  52.3279830  60.4612470 111.4225460  51.9604620  59.0096990
 116.4105480  56.9889110  65.8124590 116.1062550  57.8681090  66.0374950
 117.3651940  57.0488900  65.8482030 114.9387270  61.1950100  56.4091440
 114.1649530  60.6547720  56.2490160 115.6681900  60.6756710  56.0709200
 121.1585190  51.5853420  56.3447220 120.3449800  51.0866590  56.2692530
 120.9647140  52.4251670  55.9283570 121.0794050  60.2624520  68.0886830
 121.0131360  59.3420190  67.8344420 120.4499190  60.3599960  68.8031470
 123.8733580  55.9573070  54.6409380 124.7613200  56.2690300  54.4660720
 123.8438670  55.0845320  54.2489960 114.9824670  60.8630480  60.0470250
 115.5003340  60.0598740  59.9927140 114.5308690  60.8009620  60.8887080
 119.8694170  62.1296760  55.3197550 120.2109870  62.8738990  54.8240870
 119.0406880  62.4427880  55.6822380 112.4669210  57.8291850  66.9595950
 112.1084150  58.4945700  67.5469290 112.1723770  56.9975400  67.3308570
 115.6682330  58.2876090  69.8435500 115.3682470  58.4333270  68.9463320
 116.4393570  57.7281380  69.7508890 121.0110780  63.0845090  67.8390630
 121.0255320  62.1526050  67.6209540 120.3035880  63.1704850  68.4780400
 122.7521580  61.4512600  60.6843060 123.1045400  60.8540730  60.0244430
 121.8683910  61.1256830  60.8551310 118.8384860  62.2110290  58.0913470
 119.5255990  62.7579500  58.4721060 118.0517280  62.7551020  58.1263080
 110.9777260  57.8283110  53.5830550 111.8472110  58.1107910  53.8666470
 110.4867580  58.6418980  53.4679360 118.1412070  59.2156320  57.7038830
 118.5974850  60.0261570  57.9299020 117.7900280  58.8979460  58.5357320
 120.4444680  64.7262660  64.9331130 121.0886900  64.9322040  65.6104550
 120.8074120  63.9651060  64.4801980 114.0423850  49.5593970  58.1761350
 113.9138480  49.5511870  59.1246270 113.2185870  49.8977060  57.8252360
 121.7176760  62.7295010  63.6508580 122.3598990  62.0288170  63.7640750
 122.2426110  63.5093450  63.4705470 123.4914380  63.5289910  66.8544640
 123.8270620  64.1156600  67.5322560 122.5714720  63.3982620  67.0842430
 111.3448510  67.0410490  54.1492180 111.7046150  67.6399830  53.4949450
 111.2040850  67.5870380  54.9227210 111.0417780  51.3185090  67.6368050
 110.3276300  51.5182010  68.2420660 111.4612820  50.5424660  68.0082850
 111.3290370  65.3065350  68.6234580 111.4381490  64.3660090  68.4829970
 110.6770930  65.5720100  67.9748310 119.3202960  63.5781240  70.0232700
 118.9999830  62.8590480  70.5678390 118.6461320  64.2536310  70.0968760
 117.3617130  64.4241690  54.9665850 117.3527230  65.1571380  54.3510360
 116.4415490  64.1773270  55.0592810 112.9623770  59.6456580  55.7112610
 112.3551720  60.3855480  55.7207910 113.4373120  59.7355940  54.8850810
 122.5356560  53.8107400  65.3869500 122.9037380  52.9902610  65.7149070
 121.6754760  53.8709290  65.8025150 120.3476730  64.4869930  53.6291040
 120.4488710  64.2833920  52.6993020 119.4478470  64.2328210  53.8338820
 117.8702620  55.0450290  57.6114940 117.1618770  55.5136630  58.0528550
 118.1547100  54.3872300  58.2460130 119.4958550  56.4646990  65.6107470
 119.9943800  56.9392810  66.2759320 119.6381500  55.5410510  65.8177500
 121.9018050  51.7700950  59.0510730 121.7785830  51.7887080  58.1020240
 122.8502610  51.8179890  59.1709130 118.9894840  67.0056250  58.3238710
 119.2436340  66.9677640  57.4018080 118.0407320  66.8789580  58.3166960
 116.0737640  53.3535370  54.9865650 116.9228170  53.7905520  54.9205840
 115.7068910  53.6655630  55.8137710 124.9947420  57.9248130  59.8997220
 124.0537560  57.9398360  60.0744910 125.3091490  57.1384090  60.3457520
 114.9729060  59.6067730  53.4601180 115.7392330  59.4949090  54.0226610
 115.0503750  58.9105700  52.8077950 113.6675820  57.0392800  54.1434070
 113.7479410  56.0920310  54.2551470 114.5595570  57.3699680  54.2494730
 114.4690530  67.1888190  61.2468610 115.2053010  66.6403650  61.5177180
 114.8531450  68.0544200  61.1074600 111.3536010  63.2561760  57.1210120
 110.4275790  63.4982900  57.1115530 111.8192440  64.0836020  56.9994870
 113.4748810  66.3734260  70.4354190 114.2761540  66.6946310  70.8489590
 112.9600630  66.0129840  71.1574100 117.5792840  66.3618500  53.0694180
 118.3721450  66.6507330  52.6175970 117.0597190  65.9310670  52.3906660
 122.3113440  62.4814130  70.3829600 121.7051600  62.5045730  69.6425350
 122.0067550  61.7497170  70.9196850 123.7413810  66.2094420  68.9939010
 124.6935560  66.1252440  68.9439250 123.5942030  66.8736130  69.6672800
 111.1946620  58.8607720  69.3790240 111.6985640  58.2815000  69.9506470
 110.4554040  59.1447950  69.9166610 118.0970240  61.5821910  52.9336530
 117.9920880  60.9674260  53.6597910 117.9294460  61.0587800  52.1499540
 118.2484560  60.2678710  68.9125760 117.4830230  60.8363710  68.8280430
 118.4300520  59.9754920  68.0193990 121.3372970  60.6441940  53.5378520
 120.7883070  61.0911240  54.1821260 121.9592230  60.1391190  54.0616190
 113.2269700  57.0037310  70.2740310 113.2675040  56.7051180  71.1825540
 114.0815200  57.4044920  70.1147830 117.0048090  59.6032860  55.4343820
 117.4264510  59.4372730  56.2775210 117.1298930  58.7933090  54.9398960
 115.1675510  55.5829410  68.2414800 114.6371970  55.0920360  67.6138140
 115.8363580  56.0113610  67.7072730 119.5175730  58.6270470  52.6820920
 120.0381390  57.9119490  52.3162070 120.1644130  59.2656340  52.9821430
 124.0653570  60.0498870  68.0055990 124.4794590  60.2043950  68.8546410
 123.1304570  60.1754090  68.1681770 124.5375740  57.3895030  70.0095140
 125.1196510  56.6347350  69.9215620 124.7137510  57.9202470  69.2326620
 115.6547810  52.5491780  68.3212090 115.5604680  51.9312530  67.5962960
 115.0745200  53.2758070  68.0942000 118.4209250  51.1065020  65.3539480
 117.9726550  51.1289280  64.5085030 117.7874450  50.7084040  65.9509780
 118.8268800  60.0019350  65.9751920 119.2456910  60.8452080  65.8028160
 117.9077430  60.1391390  65.7458700 121.1632700  57.7335530  67.3589760
 121.2828910  57.1376670  68.0984600 122.0226700  57.7705220  66.9391060
 123.5020600  58.2872720  65.9352270 122.9755820  58.8115340  65.3317410
 123.8451940  58.9200110  66.5662000 115.9006990  55.6766090  52.3801980
 115.6996050  54.8133450  52.7415320 115.7299040  55.5899450  51.4423580
 116.6776220  66.3072360  67.0909650 116.1397310  67.0318420  66.7718350
 116.9310180  65.8302700  66.3006990 117.9301470  54.2756880  68.6165580
 118.5201160  53.9672730  69.3043400 117.1121710  53.8036630  68.7725480
 122.7494900  53.8922690  68.8498600 122.0610420  53.2304230  68.7848590
 123.4700920  53.4460960  69.2947060 123.3795300  50.4874320  54.9088860
 123.6597590  49.6442220  55.2648280 122.6061030  50.7197430  55.4227610
 114.6989790  52.7766710  52.3679860 115.0015690  52.7834140  51.4599010
 115.4384380  52.4264570  52.8647520 119.5338430  67.5423570  67.3496300
 119.4597130  68.4458710  67.6568670 118.6317270  67.2235470  67.3218370
 117.9174720  51.7201330  53.3536060 117.5696720  51.0425320  52.7738510
 118.1187490  51.2590840  54.1679450 120.0823760  66.7082080  54.9722660
 120.9774550  67.0467050  54.9941420 120.1141390  65.9861490  54.3446940
 113.7219920  62.0809130  53.2009660 114.1594790  62.6238800  53.8567240
 114.2067650  61.2556080  53.2106000 110.9365720  64.8698160  60.6529920
 111.2668730  64.0019220  60.4208560 111.3656720  65.0756680  61.4834880
 115.5327640  63.2007170  58.3131890 115.2323180  63.0772140  59.2135800
 115.4265130  62.3415760  57.9047620 111.4255930  65.7368750  63.3911550
 110.9886920  65.9169550  64.2235700 111.9933610  66.4943370  63.2493270
 111.2580360  58.2488980  59.7500430 110.6029200  57.9800620  59.1060130
 112.0958310  58.1393460  59.3002410 124.2070800  53.0430270  53.9718920
 124.6255680  52.8561250  53.1315580 123.9006860  52.1909320  54.2821850
 112.2956290  58.6341550  64.2903770 112.6629330  58.5468950  65.1699790
 111.7267110  57.8708100  64.1910630 111.8472290  55.5450640  68.1962190
 110.9528340  55.5117400  68.5355900 112.3869840  55.7437430  68.9613440
 110.4718440  55.4587910  55.6925760 109.5682520  55.7218110  55.5177420
 110.9559060  55.7299080  54.9125720 113.0145650  54.5153450  53.6020140
 113.7237350  54.0936670  53.1167420 112.2985590  54.5828680  52.9703490
 112.6619810  50.5692780  52.6422790 113.3847940  51.1101720  52.9604010
 112.9344330  50.2956200  51.7664330 112.3512000  49.8198970  62.5445410
 112.9988190  49.2696350  62.1040570 112.7713840  50.0742120  63.3661220
 112.1044000  49.9754640  65.2870730 111.7558820  50.4318460  66.0528910
 111.7731700  49.0811770  65.3693160 113.7108370  63.1474240  69.4523920
 113.6678000  62.7767150  70.3338380 113.8419380  64.0851810  69.5925740
 117.4114400  64.7033830  65.0533640 117.1705760  64.9708390  64.1664160
 118.3517040  64.8739560  65.1084500 119.6168820  51.1666520  68.8090150
 119.5557710  51.7588350  69.5585560 120.5569200  51.0592480  68.6640410
 122.2543380  50.8236580  68.4482440 122.8683790  51.1415870  67.7863520
 122.7992940  50.3385170  69.0678300 112.7764640  49.5030840  68.5621500
 113.3247630  49.3218890  67.7987610 112.8419950  48.7124950  69.0977810
 113.5496400  66.0936490  66.5721700 112.9556720  65.9621190  67.3111740
 113.5420240  65.2574630  66.1063800 122.9951420  49.3868720  64.7751730
 122.1211260  49.7203830  64.5724660 122.8862170  48.9141900  65.6003600
 123.9023400  51.5939590  66.1593450 123.5736760  50.7791350  65.7795180
 124.8505700  51.5509400  66.0359140 113.1808630  63.4594870  65.5229740
 112.4542690  62.8400160  65.4555690 113.2417780  63.8535480  64.6527820
 116.7853730  65.6739870  62.3079150 117.3018750  65.0627230  61.7827410
 117.4351110  66.1768650  62.7990160 119.5249230  66.5648360  63.1348130
 119.8127040  66.3102660  62.2581140 120.0372450  66.0125720  63.7253700
 120.7426240  50.3038560  63.7144640 119.9598030  50.7784060  63.9941400
 120.4489170  49.3993390  63.6057820 111.4638630  66.7769260  58.7326500
 111.2960670  66.1439940  59.4308390 110.5973140  66.9828660  58.3820690
 112.0866650  50.6086040  56.2358360 112.8446010  50.7214920  55.6622390
 111.6243820  51.4455240  56.1901790 118.6280460  52.7225310  59.2260670
 117.8154970  52.3482200  58.8856550 119.1322100  51.9670390  59.5281860
 123.1305440  49.3867760  60.4643740 123.7334810  49.9587970  60.9392260
 122.3898430  49.9507200  60.2417640 113.0701330  65.4702490  56.1776640
 112.5448950  65.8510520  55.4738600 112.9945910  66.0953260  56.8986350
 114.4591800  51.1350090  54.7760330 114.9884560  50.3479890  54.6468280
 115.0920120  51.8141280  55.0095860 116.6529640  50.8725230  57.8305720
 116.0232380  50.1712540  57.9975850 116.1134780  51.6329360  57.6138880
 119.5921590  67.4864460  70.5016330 120.5188900  67.2508730  70.5452290
 119.5772020  68.3136460  70.0202360 116.7785200  50.1509210  70.2658210
 116.4969470  50.6542810  69.5019030 117.1604900  49.3530960  69.9000340
 115.6694300  67.4184870  55.0525890 116.4013120  67.1344150  54.5049780
 115.9287970  67.1798150  55.9425270 114.8309090  63.5349600  55.0572220
 114.2017970  64.0034700  55.6058050 114.9456920  62.6898820  55.4918410
 123.3800660  49.5662790  70.8438680 123.2666110  49.8857400  71.7390200
 124.1970400  49.9675300  70.5475960 122.2858810  57.5855260  41.2073420
 122.2052860  56.6709870  40.9365130 121.8723230  58.0822330  40.5013130
 120.4176850  59.3634280  43.0882690 119.6418950  58.8834720  43.3781260
 121.0689780  58.6839930  42.9138850 114.4342680  59.6754090  43.9658450
 113.6027560  59.4202800  44.3654960 115.0423660  59.7464860  44.7016370
 124.4384280  63.7694470  41.8681820 123.9765810  62.9981710  42.1968990
 125.2509830  63.7960540  42.3734270 114.4143940  63.7094180  44.1616470
 114.7171980  62.8191920  43.9826690 115.1587530  64.2664400  43.9338720
 112.8434630  54.6355980  37.7500840 111.9551330  54.9771950  37.6480720
 113.1275820  54.4356300  36.8581670 110.8067640  57.2361630  43.6340540
 111.3783750  56.4683830  43.6344180 110.8069180  57.5350390  42.7247150
 120.6647590  66.0552480  41.4885810 120.0459030  66.5109980  40.9180250
 121.5199370  66.2103940  41.0875510 119.8585840  62.0391470  43.0952850
 119.7894120  61.0981410  42.9341980 120.6205700  62.1292880  43.6675420
 112.0492510  52.6445990  45.4209470 111.8695350  51.7471740  45.7012230
 111.6472590  53.1917860  46.0956420 120.8891010  54.8461850  43.3221780
 121.2655830  53.9733730  43.2095450 120.7910520  55.1820550  42.4312220
 115.0196020  53.2187480  38.7839220 115.1262770  54.1191210  39.0907980
 114.1088380  53.1705450  38.4933870 112.6679180  55.1406490  44.0291810
 113.3489290  55.4044860  44.6479210 112.3527230  54.3007360  44.3629820
 116.8603750  56.1873850  43.1164400 117.3681970  56.6854820  43.7569420
 117.3916990  55.4109050  42.9403760 115.1439850  50.8272410  47.3827820
 115.1458290  51.3444800  46.5773720 114.3144160  50.3502590  47.3597750
 121.5310940  60.9391720  38.8817720 120.9128210  61.4041170  38.3180440
 122.0434190  61.6319200  39.2987230 116.3942700  60.4667590  45.5601320
 116.0612080  61.0936510  46.2022390 116.5709380  60.9929470  44.7802990
 124.9076610  54.2812670  43.0277660 124.2032180  54.5697560  43.6080770
 125.2688770  55.0912780  42.6677220 114.8255180  52.5382370  45.3898270
 115.1671990  53.3824420  45.0952140 113.8870990  52.6866110  45.5063610
 115.6061800  62.4348390  47.3750500 116.2235800  63.1099470  47.0934950
 114.7454920  62.8436370  47.2838000 110.8994140  61.6248250  36.2557350
 110.5222120  62.1135350  35.5242250 111.1567210  62.2973530  36.8863880
 118.5083070  50.0264640  41.7142860 118.8158050  49.4711530  40.9978360
 117.5783770  50.1609100  41.5315850 124.0598130  65.7431930  44.0050320
 124.0725290  65.3394220  43.1372580 123.5073350  66.5179220  43.9011750
 123.4583570  60.6461770  45.3332930 123.8752360  60.4321880  44.4986390
 124.1823390  60.9034560  45.9041550 120.8963830  58.0913470  38.4502980
 119.9693110  58.0250850  38.6791450 121.0488650  59.0293600  38.3358220
 120.8832910  54.3630470  35.4470140 119.9436580  54.5244430  35.5322600
 121.2016170  55.0816150  34.9006130 124.9261120  59.6533770  38.9538230
 124.3073540  59.3153320  38.3064530 124.9085570  59.0093530  39.6617420
 124.3687680  55.8318310  46.3704040 123.9558860  56.6572020  46.6244030
 123.6363630  55.2463350  46.1780400 116.5020470  58.6178210  41.2322710
 116.0977470  57.9055460  40.7368610 116.5883590  58.2731450  42.1210750
 116.9702170  62.3045770  43.3961920 116.6730460  61.6991240  42.7169700
 117.9201990  62.3423080  43.2851280 115.2149090  55.3921420  45.0121750
 115.7663680  55.5016760  44.2375000 115.7292600  55.7659020  45.7276980
 125.0587780  65.8777640  47.0585020 124.5818340  66.6849830  46.8657630
 124.3749570  65.2255970  47.2111230 116.0620600  62.0427460  50.0469720
 115.1649130  62.2667430  50.2943120 116.0873470  62.1662400  49.0981120
 123.1025820  58.8920580  35.9610980 123.5419100  58.0543010  35.8148800
 123.8154240  59.5249980  36.0475120 114.8891820  58.9140780  48.6227090
 114.7499590  59.7863580  48.9914490 114.0073180  58.5713590  48.4775030
 121.2121200  63.8316650  39.9292220 121.6517110  64.5740980  39.5147610
 121.1508090  64.0743220  40.8531180 116.6872170  64.8562480  50.8312240
 116.6587600  65.2605430  49.9640670 116.5237140  63.9272840  50.6683840
 113.2025100  57.5123190  38.7329360 113.0822700  58.2385280  38.1210630
 112.8925990  56.7426100  38.2557270 110.8410470  60.6838330  44.5398000
 110.9190890  60.8187100  43.5953720 111.4552150  59.9754220  44.7326120
 112.0858100  62.3838520  40.9504180 111.6786180  62.5253110  40.0957780
 112.9771110  62.0998680  40.7475390 121.9036980  66.5330430  47.8571230
 122.4181650  66.4438440  48.6593660 121.0606060  66.8790130  48.1499140
 123.8791380  66.8185770  37.2855230 123.7192520  66.5288710  38.1837060
 123.7138090  66.0425900  36.7500460 116.3579760  66.5984300  39.0626850
 116.1822240  65.6819840  38.8494650 115.5035500  66.9571590  39.3024650
 123.5817510  64.3273330  35.8453230 122.8882670  64.3250620  35.1855510
 124.3240370  63.9032650  35.4147400 123.1467440  65.9536040  39.9201720
 123.6024390  65.1725420  40.2340340 123.4859960  66.6642860  40.4642900
 110.8969990  61.7252500  47.0792460 111.0601030  61.2557860  46.2611830
 111.3622440  61.2176060  47.7441300 115.6688760  50.8558260  42.1153030
 115.2256910  51.6367800  41.7837550 116.2273750  51.1788150  42.8223970
 119.9558570  53.7226780  47.7188350 119.4937940  53.9309800  48.5308290
 119.5536680  52.9086130  47.4159020 124.9563080  54.9435730  48.8485010
 124.1056670  54.6441480  49.1694080 124.7964870  55.1877740  47.9368830
 122.0512790  56.4437480  50.9483800 122.3766200  55.6101230  50.6086030
 122.8393120  56.9666000  51.0962130 118.7847580  50.4768960  36.9958860
 118.1601760  50.4728830  37.7212170 118.6977700  49.6099920  36.5994830
 117.7064660  51.4005590  43.9742630 118.0036990  52.3068420  43.8934650
 118.2550220  50.9124370  43.3602200 115.4602980  55.9791830  39.8434280
 115.2343900  55.7629000  40.7480900 114.6795510  56.4120290  39.4980250
 122.6900740  55.9855200  38.4424930 122.0909630  56.7091000  38.2588550
 123.2380350  55.9231980  37.6601380 117.9002190  56.8777410  50.5094550
 117.8045790  55.9372140  50.3594950 118.7434170  57.0992480  50.1142620
 121.2965610  54.6218740  40.4728210 121.6895180  54.9390940  39.6596900
 121.6582460  53.7430620  40.5872730 113.0312730  53.2891080  48.6628330
 112.6376120  54.1366290  48.8701110 112.3431130  52.6517450  48.8536970
 119.6057780  53.3726050  51.7325070 118.9156100  53.1798250  52.3671160
 120.3490080  53.6560690  52.2649370 110.3329780  51.2119540  42.6958410
 110.0442830  51.7822400  43.4083390 111.0775540  50.7323990  43.0589640
 110.5200010  55.1539660  33.9061130 110.4374680  56.0970420  34.0476120
 110.1683070  55.0114570  33.0273480 121.8820750  57.2124490  44.5678990
 121.1501870  57.7211300  44.9169090 121.4845090  56.3954470  44.2667770
 118.3198140  53.8878690  42.9731480 118.3234200  53.4468640  42.1236020
 119.2149260  54.2096020  43.0803300 114.1700520  53.7705180  41.9325690
 113.8300570  54.2480410  42.6892740 113.4077840  53.3170300  41.5726790
 118.3818290  54.8890770  35.9638240 118.5031110  54.8477250  36.9124060
 117.9966800  55.7514920  35.8084970 122.3446660  52.6658170  43.9801930
 122.3619400  53.1166820  44.8243780 122.0962240  51.7663810  44.1935370
 117.3939790  57.1991910  35.3621540 116.8256690  56.7510160  34.7357450
 118.1028790  57.5584690  34.8286690 112.4708970  61.1003930  49.2388270
 112.0863760  60.4597600  49.8371230 112.7821160  61.8040050  49.8083000
 118.6206110  57.9480470  44.7196890 118.9876240  57.4739040  45.4658230
 118.4311170  58.8222040  45.0605230 111.4846600  52.6924160  40.8490360
 111.1993520  52.3279830  41.6868980 111.4225460  51.9604620  40.2353500
 116.4105480  56.9889110  47.0381100 116.1062550  57.8681090  47.2631460
 117.3651940  57.0488900  47.0738540 114.9387270  61.1950100  37.6347950
 114.1649530  60.6547720  37.4746670 115.6681900  60.6756710  37.2965710
 121.1585190  51.5853420  37.5703730 120.3449800  51.0866590  37.4949040
 120.9647140  52.4251670  37.1540080 121.0794050  60.2624520  49.3143340
 121.0131360  59.3420190  49.0600930 120.4499190  60.3599960  50.0287980
 123.8733580  55.9573070  35.8665890 124.7613200  56.2690300  35.6917230
 123.8438670  55.0845320  35.4746470 114.9824670  60.8630480  41.2726760
 115.5003340  60.0598740  41.2183650 114.5308690  60.8009620  42.1143590
 119.8694170  62.1296760  36.5454060 120.2109870  62.8738990  36.0497380
 119.0406880  62.4427880  36.9078890 112.4669210  57.8291850  48.1852460
 112.1084150  58.4945700  48.7725800 112.1723770  56.9975400  48.5565080
 115.6682330  58.2876090  51.0692010 115.3682470  58.4333270  50.1719830
 116.4393570  57.7281380  50.9765400 121.0110780  63.0845090  49.0647140
 121.0255320  62.1526050  48.8466050 120.3035880  63.1704850  49.7036910
 122.7521580  61.4512600  41.9099570 123.1045400  60.8540730  41.2500940
 121.8683910  61.1256830  42.0807820 118.8384860  62.2110290  39.3169980
 119.5255990  62.7579500  39.6977570 118.0517280  62.7551020  39.3519590
 110.9777260  57.8283110  34.8087060 111.8472110  58.1107910  35.0922980
 110.4867580  58.6418980  34.6935870 118.1412070  59.2156320  38.9295340
 118.5974850  60.0261570  39.1555530 117.7900280  58.8979460  39.7613830
 120.4444680  64.7262660  46.1587640 121.0886900  64.9322040  46.8361060
 120.8074120  63.9651060  45.7058490 114.0423850  49.5593970  39.4017860
 113.9138480  49.5511870  40.3502780 113.2185870  49.8977060  39.0508870
 121.7176760  62.7295010  44.8765090 122.3598990  62.0288170  44.9897260
 122.2426110  63.5093450  44.6961980 123.4914380  63.5289910  48.0801150
 123.8270620  64.1156600  48.7579070 122.5714720  63.3982620  48.3098940
 111.3448510  67.0410490  35.3748690 111.7046150  67.6399830  34.7205960
 111.2040850  67.5870380  36.1483720 111.0417780  51.3185090  48.8624560
 110.3276300  51.5182010  49.4677170 111.4612820  50.5424660  49.2339360
 111.3290370  65.3065350  49.8491090 111.4381490  64.3660090  49.7086480
 110.6770930  65.5720100  49.2004820 119.3202960  63.5781240  51.2489210
 118.9999830  62.8590480  51.7934900 118.6461320  64.2536310  51.3225270
 117.3617130  64.4241690  36.1922360 117.3527230  65.1571380  35.5766870
 116.4415490  64.1773270  36.2849320 112.9623770  59.6456580  36.9369120
 112.3551720  60.3855480  36.9464420 113.4373120  59.7355940  36.1107320
 122.5356560  53.8107400  46.6126010 122.9037380  52.9902610  46.9405580
 121.6754760  53.8709290  47.0281660 120.3476730  64.4869930  34.8547550
 120.4488710  64.2833920  33.9249530 119.4478470  64.2328210  35.0595330
 117.8702620  55.0450290  38.8371450 117.1618770  55.5136630  39.2785060
 118.1547100  54.3872300  39.4716640 119.4958550  56.4646990  46.8363980
 119.9943800  56.9392810  47.5015830 119.6381500  55.5410510  47.0434010
 121.9018050  51.7700950  40.2767240 121.7785830  51.7887080  39.3276750
 122.8502610  51.8179890  40.3965640 118.9894840  67.0056250  39.5495220
 119.2436340  66.9677640  38.6274590 118.0407320  66.8789580  39.5423470
 116.0737640  53.3535370  36.2122160 116.9228170  53.7905520  36.1462350
 115.7068910  53.6655630  37.0394220 124.9947420  57.9248130  41.1253730
 124.0537560  57.9398360  41.3001420 125.3091490  57.1384090  41.5714030
 114.9729060  59.6067730  34.6857690 115.7392330  59.4949090  35.2483120
 115.0503750  58.9105700  34.0334460 113.6675820  57.0392800  35.3690580
 113.7479410  56.0920310  35.4807980 114.5595570  57.3699680  35.4751240
 114.4690530  67.1888190  42.4725120 115.2053010  66.6403650  42.7433690
 114.8531450  68.0544200  42.3331110 111.3536010  63.2561760  38.3466630
 110.4275790  63.4982900  38.3372040 111.8192440  64.0836020  38.2251380
 113.4748810  66.3734260  51.6610700 114.2761540  66.6946310  52.0746100
 112.9600630  66.0129840  52.3830610 117.5792840  66.3618500  34.2950690
 118.3721450  66.6507330  33.8432480 117.0597190  65.9310670  33.6163170
 122.3113440  62.4814130  51.6086110 121.7051600  62.5045730  50.8681860
 122.0067550  61.7497170  52.1453360 123.7413810  66.2094420  50.2195520
 124.6935560  66.1252440  50.1695760 123.5942030  66.8736130  50.8929310
 111.1946620  58.8607720  50.6046750 111.6985640  58.2815000  51.1762980
 110.4554040  59.1447950  51.1423120 118.0970240  61.5821910  34.1593040
 117.9920880  60.9674260  34.8854420 117.9294460  61.0587800  33.3756050
 118.2484560  60.2678710  50.1382270 117.4830230  60.8363710  50.0536940
 118.4300520  59.9754920  49.2450500 121.3372970  60.6441940  34.7635030
 120.7883070  61.0911240  35.4077770 121.9592230  60.1391190  35.2872700
 113.2269700  57.0037310  51.4996820 113.2675040  56.7051180  52.4082050
 114.0815200  57.4044920  51.3404340 117.0048090  59.6032860  36.6600330
 117.4264510  59.4372730  37.5031720 117.1298930  58.7933090  36.1655470
 115.1675510  55.5829410  49.4671310 114.6371970  55.0920360  48.8394650
 115.8363580  56.0113610  48.9329240 119.5175730  58.6270470  33.9077430
 120.0381390  57.9119490  33.5418580 120.1644130  59.2656340  34.2077940
 124.0653570  60.0498870  49.2312500 124.4794590  60.2043950  50.0802920
 123.1304570  60.1754090  49.3938280 124.5375740  57.3895030  51.2351650
 125.1196510  56.6347350  51.1472130 124.7137510  57.9202470  50.4583130
 115.6547810  52.5491780  49.5468600 115.5604680  51.9312530  48.8219470
 115.0745200  53.2758070  49.3198510 118.4209250  51.1065020  46.5795990
 117.9726550  51.1289280  45.7341540 117.7874450  50.7084040  47.1766290
 118.8268800  60.0019350  47.2008430 119.2456910  60.8452080  47.0284670
 117.9077430  60.1391390  46.9715210 121.1632700  57.7335530  48.5846270
 121.2828910  57.1376670  49.3241110 122.0226700  57.7705220  48.1647570
 123.5020600  58.2872720  47.1608780 122.9755820  58.8115340  46.5573920
 123.8451940  58.9200110  47.7918510 115.9006990  55.6766090  33.6058490
 115.6996050  54.8133450  33.9671830 115.7299040  55.5899450  32.6680090
 116.6776220  66.3072360  48.3166160 116.1397310  67.0318420  47.9974860
 116.9310180  65.8302700  47.5263500 117.9301470  54.2756880  49.8422090
 118.5201160  53.9672730  50.5299910 117.1121710  53.8036630  49.9981990
 122.7494900  53.8922690  50.0755110 122.0610420  53.2304230  50.0105100
 123.4700920  53.4460960  50.5203570 123.3795300  50.4874320  36.1345370
 123.6597590  49.6442220  36.4904790 122.6061030  50.7197430  36.6484120
 114.6989790  52.7766710  33.5936370 115.0015690  52.7834140  32.6855520
 115.4384380  52.4264570  34.0904030 119.5338430  67.5423570  48.5752810
 119.4597130  68.4458710  48.8825180 118.6317270  67.2235470  48.5474880
 117.9174720  51.7201330  34.5792570 117.5696720  51.0425320  33.9995020
 118.1187490  51.2590840  35.3935960 120.0823760  66.7082080  36.1979170
 120.9774550  67.0467050  36.2197930 120.1141390  65.9861490  35.5703450
 113.7219920  62.0809130  34.4266170 114.1594790  62.6238800  35.0823750
 114.2067650  61.2556080  34.4362510 110.9365720  64.8698160  41.8786430
 111.2668730  64.0019220  41.6465070 111.3656720  65.0756680  42.7091390
 115.5327640  63.2007170  39.5388400 115.2323180  63.0772140  40.4392310
 115.4265130  62.3415760  39.1304130 111.4255930  65.7368750  44.6168060
 110.9886920  65.9169550  45.4492210 111.9933610  66.4943370  44.4749780
 111.2580360  58.2488980  40.9756940 110.6029200  57.9800620  40.3316640
 112.0958310  58.1393460  40.5258920 124.2070800  53.0430270  35.1975430
 124.6255680  52.8561250  34.3572090 123.9006860  52.1909320  35.5078360
 112.2956290  58.6341550  45.5160280 112.6629330  58.5468950  46.3956300
 111.7267110  57.8708100  45.4167140 111.8472290  55.5450640  49.4218700
 110.9528340  55.5117400  49.7612410 112.3869840  55.7437430  50.1869950
 110.4718440  55.4587910  36.9182270 109.5682520  55.7218110  36.7433930
 110.9559060  55.7299080  36.1382230 113.0145650  54.5153450  34.8276650
 113.7237350  54.0936670  34.3423930 112.2985590  54.5828680  34.1960000
 112.6619810  50.5692780  33.8679300 113.3847940  51.1101720  34.1860520
 112.9344330  50.2956200  32.9920840 112.3512000  49.8198970  43.7701920
 112.9988190  49.2696350  43.3297080 112.7713840  50.0742120  44.5917730
 112.1044000  49.9754640  46.5127240 111.7558820  50.4318460  47.2785420
 111.7731700  49.0811770  46.5949670 113.7108370  63.1474240  50.6780430
 113.6678000  62.7767150  51.5594890 113.8419380  64.0851810  50.8182250
 117.4114400  64.7033830  46.2790150 117.1705760  64.9708390  45.3920670
 118.3517040  64.8739560  46.3341010 119.6168820  51.1666520  50.0346660
 119.5557710  51.7588350  50.7842070 120.5569200  51.0592480  49.8896920
 122.2543380  50.8236580  49.6738950 122.8683790  51.1415870  49.0120030
 122.7992940  50.3385170  50.2934810 112.7764640  49.5030840  49.7878010
 113.3247630  49.3218890  49.0244120 112.8419950  48.7124950  50.3234320
 113.5496400  66.0936490  47.7978210 112.9556720  65.9621190  48.5368250
 113.5420240  65.2574630  47.3320310 122.9951420  49.3868720  46.0008240
 122.1211260  49.7203830  45.7981170 122.8862170  48.9141900  46.8260110
 123.9023400  51.5939590  47.3849960 123.5736760  50.7791350  47.0051690
 124.8505700  51.5509400  47.2615650 113.1808630  63.4594870  46.7486250
 112.4542690  62.8400160  46.6812200 113.2417780  63.8535480  45.8784330
 116.7853730  65.6739870  43.5335660 117.3018750  65.0627230  43.0083920
 117.4351110  66.1768650  44.0246670 119.5249230  66.5648360  44.3604640
 119.8127040  66.3102660  43.4837650 120.0372450  66.0125720  44.9510210
 120.7426240  50.3038560  44.9401150 119.9598030  50.7784060  45.2197910
 120.4489170  49.3993390  44.8314330 111.4638630  66.7769260  39.9583010
 111.2960670  66.1439940  40.6564900 110.5973140  66.9828660  39.6077200
 112.0866650  50.6086040  37.4614870 112.8446010  50.7214920  36.8878900
 111.6243820  51.4455240  37.4158300 118.6280460  52.7225310  40.4517180
 117.8154970  52.3482200  40.1113060 119.1322100  51.9670390  40.7538370
 123.1305440  49.3867760  41.6900250 123.7334810  49.9587970  42.1648770
 122.3898430  49.9507200  41.4674150 113.0701330  65.4702490  37.4033150
 112.5448950  65.8510520  36.6995110 112.9945910  66.0953260  38.1242860
 114.4591800  51.1350090  36.0016840 114.9884560  50.3479890  35.8724790
 115.0920120  51.8141280  36.2352370 116.6529640  50.8725230  39.0562230
 116.0232380  50.1712540  39.2232360 116.1134780  51.6329360  38.8395390
 119.5921590  67.4864460  51.7272840 120.5188900  67.2508730  51.7708800
 119.5772020  68.3136460  51.2458870 116.7785200  50.1509210  51.4914720
 116.4969470  50.6542810  50.7275540 117.1604900  49.3530960  51.1256850
 115.6694300  67.4184870  36.2782400 116.4013120  67.1344150  35.7306290
 115.9287970  67.1798150  37.1681780 114.8309090  63.5349600  36.2828730
 114.2017970  64.0034700  36.8314560 114.9456920  62.6898820  36.7174920
 123.3800660  49.5662790  52.0695190 123.2666110  49.8857400  52.9646710
 124.1970400  49.9675300  51.7732470 122.2858810  57.5855260  22.4329930
 122.2052860  56.6709870  22.1621640 121.8723230  58.0822330  21.7269640
 120.4176850  59.3634280  24.3139200 119.6418950  58.8834720  24.6037770
 121.0689780  58.6839930  24.1395360 114.4342680  59.6754090  25.1914960
 113.6027560  59.4202800  25.5911470 115.0423660  59.7464860  25.9272880
 124.4384280  63.7694470  23.0938330 123.9765810  62.9981710  23.4225500
 125.2509830  63.7960540  23.5990780 114.4143940  63.7094180  25.3872980
 114.7171980  62.8191920  25.2083200 115.1587530  64.2664400  25.1595230
 112.8434630  54.6355980  18.9757350 111.9551330  54.9771950  18.8737230
 113.1275820  54.4356300  18.0838180 110.8067640  57.2361630  24.8597050
 111.3783750  56.4683830  24.8600690 110.8069180  57.5350390  23.9503660
 120.6647590  66.0552480  22.7142320 120.0459030  66.5109980  22.1436760
 121.5199370  66.2103940  22.3132020 119.8585840  62.0391470  24.3209360
 119.7894120  61.0981410  24.1598490 120.6205700  62.1292880  24.8931930
 112.0492510  52.6445990  26.6465980 111.8695350  51.7471740  26.9268740
 111.6472590  53.1917860  27.3212930 120.8891010  54.8461850  24.5478290
 121.2655830  53.9733730  24.4351960 120.7910520  55.1820550  23.6568730
 115.0196020  53.2187480  20.0095730 115.1262770  54.1191210  20.3164490
 114.1088380  53.1705450  19.7190380 112.6679180  55.1406490  25.2548320
 113.3489290  55.4044860  25.8735720 112.3527230  54.3007360  25.5886330
 116.8603750  56.1873850  24.3420910 117.3681970  56.6854820  24.9825930
 117.3916990  55.4109050  24.1660270 115.1439850  50.8272410  28.6084330
 115.1458290  51.3444800  27.8030230 114.3144160  50.3502590  28.5854260
 121.5310940  60.9391720  20.1074230 120.9128210  61.4041170  19.5436950
 122.0434190  61.6319200  20.5243740 116.3942700  60.4667590  26.7857830
 116.0612080  61.0936510  27.4278900 116.5709380  60.9929470  26.0059500
 124.9076610  54.2812670  24.2534170 124.2032180  54.5697560  24.8337280
 125.2688770  55.0912780  23.8933730 114.8255180  52.5382370  26.6154780
 115.1671990  53.3824420  26.3208650 113.8870990  52.6866110  26.7320120
 115.6061800  62.4348390  28.6007010 116.2235800  63.1099470  28.3191460
 114.7454920  62.8436370  28.5094510 110.8994140  61.6248250  17.4813860
 110.5222120  62.1135350  16.7498760 111.1567210  62.2973530  18.1120390
 118.5083070  50.0264640  22.9399370 118.8158050  49.4711530  22.2234870
 117.5783770  50.1609100  22.7572360 124.0598130  65.7431930  25.2306830
 124.0725290  65.3394220  24.3629090 123.5073350  66.5179220  25.1268260
 123.4583570  60.6461770  26.5589440 123.8752360  60.4321880  25.7242900
 124.1823390  60.9034560  27.1298060 120.8963830  58.0913470  19.6759490
 119.9693110  58.0250850  19.9047960 121.0488650  59.0293600  19.5614730
 120.8832910  54.3630470  16.6726650 119.9436580  54.5244430  16.7579110
 121.2016170  55.0816150  16.1262640 124.9261120  59.6533770  20.1794740
 124.3073540  59.3153320  19.5321040 124.9085570  59.0093530  20.8873930
 124.3687680  55.8318310  27.5960550 123.9558860  56.6572020  27.8500540
 123.6363630  55.2463350  27.4036910 116.5020470  58.6178210  22.4579220
 116.0977470  57.9055460  21.9625120 116.5883590  58.2731450  23.3467260
 116.9702170  62.3045770  24.6218430 116.6730460  61.6991240  23.9426210
 117.9201990  62.3423080  24.5107790 115.2149090  55.3921420  26.2378260
 115.7663680  55.5016760  25.4631510 115.7292600  55.7659020  26.9533490
 125.0587780  65.8777640  28.2841530 124.5818340  66.6849830  28.0914140
 124.3749570  65.2255970  28.4367740 116.0620600  62.0427460  31.2726230
 115.1649130  62.2667430  31.5199630 116.0873470  62.1662400  30.3237630
 123.1025820  58.8920580  17.1867490 123.5419100  58.0543010  17.0405310
 123.8154240  59.5249980  17.2731630 114.8891820  58.9140780  29.8483600
 114.7499590  59.7863580  30.2171000 114.0073180  58.5713590  29.7031540
 121.2121200  63.8316650  21.1548730 121.6517110  64.5740980  20.7404120
 121.1508090  64.0743220  22.0787690 116.6872170  64.8562480  32.0568750
 116.6587600  65.2605430  31.1897180 116.5237140  63.9272840  31.8940350
 113.2025100  57.5123190  19.9585870 113.0822700  58.2385280  19.3467140
 112.8925990  56.7426100  19.4813780 110.8410470  60.6838330  25.7654510
 110.9190890  60.8187100  24.8210230 111.4552150  59.9754220  25.9582630
 112.0858100  62.3838520  22.1760690 111.6786180  62.5253110  21.3214290
 112.9771110  62.0998680  21.9731900 121.9036980  66.5330430  29.0827740
 122.4181650  66.4438440  29.8850170 121.0606060  66.8790130  29.3755650
 123.8791380  66.8185770  18.5111740 123.7192520  66.5288710  19.4093570
 123.7138090  66.0425900  17.9756970 116.3579760  66.5984300  20.2883360
 116.1822240  65.6819840  20.0751160 115.5035500  66.9571590  20.5281160
 123.5817510  64.3273330  17.0709740 122.8882670  64.3250620  16.4112020
 124.3240370  63.9032650  16.6403910 123.1467440  65.9536040  21.1458230
 123.6024390  65.1725420  21.4596850 123.4859960  66.6642860  21.6899410
 110.8969990  61.7252500  28.3048970 111.0601030  61.2557860  27.4868340
 111.3622440  61.2176060  28.9697810 115.6688760  50.8558260  23.3409540
 115.2256910  51.6367800  23.0094060 116.2273750  51.1788150  24.0480480
 119.9558570  53.7226780  28.9444860 119.4937940  53.9309800  29.7564800
 119.5536680  52.9086130  28.6415530 124.9563080  54.9435730  30.0741520
 124.1056670  54.6441480  30.3950590 124.7964870  55.1877740  29.1625340
 122.0512790  56.4437480  32.1740310 122.3766200  55.6101230  31.8342540
 122.8393120  56.9666000  32.3218640 118.7847580  50.4768960  18.2215370
 118.1601760  50.4728830  18.9468680 118.6977700  49.6099920  17.8251340
 117.7064660  51.4005590  25.1999140 118.0036990  52.3068420  25.1191160
 118.2550220  50.9124370  24.5858710 115.4602980  55.9791830  21.0690790
 115.2343900  55.7629000  21.9737410 114.6795510  56.4120290  20.7236760
 122.6900740  55.9855200  19.6681440 122.0909630  56.7091000  19.4845060
 123.2380350  55.9231980  18.8857890 117.9002190  56.8777410  31.7351060
 117.8045790  55.9372140  31.5851460 118.7434170  57.0992480  31.3399130
 121.2965610  54.6218740  21.6984720 121.6895180  54.9390940  20.8853410
 121.6582460  53.7430620  21.8129240 113.0312730  53.2891080  29.8884840
 112.6376120  54.1366290  30.0957620 112.3431130  52.6517450  30.0793480
 119.6057780  53.3726050  32.9581580 118.9156100  53.1798250  33.5927670
 120.3490080  53.6560690  33.4905880 110.3329780  51.2119540  23.9214920
 110.0442830  51.7822400  24.6339900 111.0775540  50.7323990  24.2846150
 110.5200010  55.1539660  15.1317640 110.4374680  56.0970420  15.2732630
 110.1683070  55.0114570  14.2529990 121.8820750  57.2124490  25.7935500
 121.1501870  57.7211300  26.1425600 121.4845090  56.3954470  25.4924280
 118.3198140  53.8878690  24.1987990 118.3234200  53.4468640  23.3492530
 119.2149260  54.2096020  24.3059810 114.1700520  53.7705180  23.1582200
 113.8300570  54.2480410  23.9149250 113.4077840  53.3170300  22.7983300
 118.3818290  54.8890770  17.1894750 118.5031110  54.8477250  18.1380570
 117.9966800  55.7514920  17.0341480 122.3446660  52.6658170  25.2058440
 122.3619400  53.1166820  26.0500290 122.0962240  51.7663810  25.4191880
 117.3939790  57.1991910  16.5878050 116.8256690  56.7510160  15.9613960
 118.1028790  57.5584690  16.0543200 112.4708970  61.1003930  30.4644780
 112.0863760  60.4597600  31.0627740 112.7821160  61.8040050  31.0339510
 118.6206110  57.9480470  25.9453400 118.9876240  57.4739040  26.6914740
 118.4311170  58.8222040  26.2861740 111.4846600  52.6924160  22.0746870
 111.1993520  52.3279830  22.9125490 111.4225460  51.9604620  21.4610010
 116.4105480  56.9889110  28.2637610 116.1062550  57.8681090  28.4887970
 117.3651940  57.0488900  28.2995050 114.9387270  61.1950100  18.8604460
 114.1649530  60.6547720  18.7003180 115.6681900  60.6756710  18.5222220
 121.1585190  51.5853420  18.7960240 120.3449800  51.0866590  18.7205550
 120.9647140  52.4251670  18.3796590 121.0794050  60.2624520  30.5399850
 121.0131360  59.3420190  30.2857440 120.4499190  60.3599960  31.2544490
 123.8733580  55.9573070  17.0922400 124.7613200  56.2690300  16.9173740
 123.8438670  55.0845320  16.7002980 114.9824670  60.8630480  22.4983270
 115.5003340  60.0598740  22.4440160 114.5308690  60.8009620  23.3400100
 119.8694170  62.1296760  17.7710570 120.2109870  62.8738990  17.2753890
 119.0406880  62.4427880  18.1335400 112.4669210  57.8291850  29.4108970
 112.1084150  58.4945700  29.9982310 112.1723770  56.9975400  29.7821590
 115.6682330  58.2876090  32.2948520 115.3682470  58.4333270  31.3976340
 116.4393570  57.7281380  32.2021910 121.0110780  63.0845090  30.2903650
 121.0255320  62.1526050  30.0722560 120.3035880  63.1704850  30.9293420
 122.7521580  61.4512600  23.1356080 123.1045400  60.8540730  22.4757450
 121.8683910  61.1256830  23.3064330 118.8384860  62.2110290  20.5426490
 119.5255990  62.7579500  20.9234080 118.0517280  62.7551020  20.5776100
 110.9777260  57.8283110  16.0343570 111.8472110  58.1107910  16.3179490
 110.4867580  58.6418980  15.9192380 118.1412070  59.2156320  20.1551850
 118.5974850  60.0261570  20.3812040 117.7900280  58.8979460  20.9870340
 120.4444680  64.7262660  27.3844150 121.0886900  64.9322040  28.0617570
 120.8074120  63.9651060  26.9315000 114.0423850  49.5593970  20.6274370
 113.9138480  49.5511870  21.5759290 113.2185870  49.8977060  20.2765380
 121.7176760  62.7295010  26.1021600 122.3598990  62.0288170  26.2153770
 122.2426110  63.5093450  25.9218490 123.4914380  63.5289910  29.3057660
 123.8270620  64.1156600  29.9835580 122.5714720  63.3982620  29.5355450
 111.3448510  67.0410490  16.6005200 111.7046150  67.6399830  15.9462470
 111.2040850  67.5870380  17.3740230 111.0417780  51.3185090  30.0881070
 110.3276300  51.5182010  30.6933680 111.4612820  50.5424660  30.4595870
 111.3290370  65.3065350  31.0747600 111.4381490  64.3660090  30.9342990
 110.6770930  65.5720100  30.4261330 119.3202960  63.5781240  32.4745720
 118.9999830  62.8590480  33.0191410 118.6461320  64.2536310  32.5481780
 117.3617130  64.4241690  17.4178870 117.3527230  65.1571380  16.8023380
 116.4415490  64.1773270  17.5105830 112.9623770  59.6456580  18.1625630
 112.3551720  60.3855480  18.1720930 113.4373120  59.7355940  17.3363830
 122.5356560  53.8107400  27.8382520 122.9037380  52.9902610  28.1662090
 121.6754760  53.8709290  28.2538170 120.3476730  64.4869930  16.0804060
 120.4488710  64.2833920  15.1506040 119.4478470  64.2328210  16.2851840
 117.8702620  55.0450290  20.0627960 117.1618770  55.5136630  20.5041570
 118.1547100  54.3872300  20.6973150 119.4958550  56.4646990  28.0620490
 119.9943800  56.9392810  28.7272340 119.6381500  55.5410510  28.2690520
 121.9018050  51.7700950  21.5023750 121.7785830  51.7887080  20.5533260
 122.8502610  51.8179890  21.6222150 118.9894840  67.0056250  20.7751730
 119.2436340  66.9677640  19.8531100 118.0407320  66.8789580  20.7679980
 116.0737640  53.3535370  17.4378670 116.9228170  53.7905520  17.3718860
 115.7068910  53.6655630  18.2650730 124.9947420  57.9248130  22.3510240
 124.0537560  57.9398360  22.5257930 125.3091490  57.1384090  22.7970540
 114.9729060  59.6067730  15.9114200 115.7392330  59.4949090  16.4739630
 115.0503750  58.9105700  15.2590970 113.6675820  57.0392800  16.5947090
 113.7479410  56.0920310  16.7064490 114.5595570  57.3699680  16.7007750
 114.4690530  67.1888190  23.6981630 115.2053010  66.6403650  23.9690200
 114.8531450  68.0544200  23.5587620 111.3536010  63.2561760  19.5723140
 110.4275790  63.4982900  19.5628550 111.8192440  64.0836020  19.4507890
 113.4748810  66.3734260  32.8867210 114.2761540  66.6946310  33.3002610
 112.9600630  66.0129840  33.6087120 117.5792840  66.3618500  15.5207200
 118.3721450  66.6507330  15.0688990 117.0597190  65.9310670  14.8419680
 122.3113440  62.4814130  32.8342620 121.7051600  62.5045730  32.0938370
 122.0067550  61.7497170  33.3709870 123.7413810  66.2094420  31.4452030
 124.6935560  66.1252440  31.3952270 123.5942030  66.8736130  32.1185820
 111.1946620  58.8607720  31.8303260 111.6985640  58.2815000  32.4019490
 110.4554040  59.1447950  32.3679630 118.0970240  61.5821910  15.3849550
 117.9920880  60.9674260  16.1110930 117.9294460  61.0587800  14.6012560
 118.2484560  60.2678710  31.3638780 117.4830230  60.8363710  31.2793450
 118.4300520  59.9754920  30.4707010 121.3372970  60.6441940  15.9891540
 120.7883070  61.0911240  16.6334280 121.9592230  60.1391190  16.5129210
 113.2269700  57.0037310  32.7253330 113.2675040  56.7051180  33.6338560
 114.0815200  57.4044920  32.5660850 117.0048090  59.6032860  17.8856840
 117.4264510  59.4372730  18.7288230 117.1298930  58.7933090  17.3911980
 115.1675510  55.5829410  30.6927820 114.6371970  55.0920360  30.0651160
 115.8363580  56.0113610  30.1585750 119.5175730  58.6270470  15.1333940
 120.0381390  57.9119490  14.7675090 120.1644130  59.2656340  15.4334450
 124.0653570  60.0498870  30.4569010 124.4794590  60.2043950  31.3059430
 123.1304570  60.1754090  30.6194790 124.5375740  57.3895030  32.4608160
 125.1196510  56.6347350  32.3728640 124.7137510  57.9202470  31.6839640
 115.6547810  52.5491780  30.7725110 115.5604680  51.9312530  30.0475980
 115.0745200  53.2758070  30.5455020 118.4209250  51.1065020  27.8052500
 117.9726550  51.1289280  26.9598050 117.7874450  50.7084040  28.4022800
 118.8268800  60.0019350  28.4264940 119.2456910  60.8452080  28.2541180
 117.9077430  60.1391390  28.1971720 121.1632700  57.7335530  29.8102780
 121.2828910  57.1376670  30.5497620 122.0226700  57.7705220  29.3904080
 123.5020600  58.2872720  28.3865290 122.9755820  58.8115340  27.7830430
 123.8451940  58.9200110  29.0175020 115.9006990  55.6766090  14.8315000
 115.6996050  54.8133450  15.1928340 115.7299040  55.5899450  13.8936600
 116.6776220  66.3072360  29.5422670 116.1397310  67.0318420  29.2231370
 116.9310180  65.8302700  28.7520010 117.9301470  54.2756880  31.0678600
 118.5201160  53.9672730  31.7556420 117.1121710  53.8036630  31.2238500
 122.7494900  53.8922690  31.3011620 122.0610420  53.2304230  31.2361610
 123.4700920  53.4460960  31.7460080 123.3795300  50.4874320  17.3601880
 123.6597590  49.6442220  17.7161300 122.6061030  50.7197430  17.8740630
 114.6989790  52.7766710  14.8192880 115.0015690  52.7834140  13.9112030
 115.4384380  52.4264570  15.3160540 119.5338430  67.5423570  29.8009320
 119.4597130  68.4458710  30.1081690 118.6317270  67.2235470  29.7731390
 117.9174720  51.7201330  15.8049080 117.5696720  51.0425320  15.2251530
 118.1187490  51.2590840  16.6192470 120.0823760  66.7082080  17.4235680
 120.9774550  67.0467050  17.4454440 120.1141390  65.9861490  16.7959960
 113.7219920  62.0809130  15.6522680 114.1594790  62.6238800  16.3080260
 114.2067650  61.2556080  15.6619020 110.9365720  64.8698160  23.1042940
 111.2668730  64.0019220  22.8721580 111.3656720  65.0756680  23.9347900
 115.5327640  63.2007170  20.7644910 115.2323180  63.0772140  21.6648820
 115.4265130  62.3415760  20.3560640 111.4255930  65.7368750  25.8424570
 110.9886920  65.9169550  26.6748720 111.9933610  66.4943370  25.7006290
 111.2580360  58.2488980  22.2013450 110.6029200  57.9800620  21.5573150
 112.0958310  58.1393460  21.7515430 124.2070800  53.0430270  16.4231940
 124.6255680  52.8561250  15.5828600 123.9006860  52.1909320  16.7334870
 112.2956290  58.6341550  26.7416790 112.6629330  58.5468950  27.6212810
 111.7267110  57.8708100  26.6423650 111.8472290  55.5450640  30.6475210
 110.9528340  55.5117400  30.9868920 112.3869840  55.7437430  31.4126460
 110.4718440  55.4587910  18.1438780 109.5682520  55.7218110  17.9690440
 110.9559060  55.7299080  17.3638740 113.0145650  54.5153450  16.0533160
 113.7237350  54.0936670  15.5680440 112.2985590  54.5828680  15.4216510
 112.6619810  50.5692780  15.0935810 113.3847940  51.1101720  15.4117030
 112.9344330  50.2956200  14.2177350 112.3512000  49.8198970  24.9958430
 112.9988190  49.2696350  24.5553590 112.7713840  50.0742120  25.8174240
 112.1044000  49.9754640  27.7383750 111.7558820  50.4318460  28.5041930
 111.7731700  49.0811770  27.8206180 113.7108370  63.1474240  31.9036940
 113.6678000  62.7767150  32.7851400 113.8419380  64.0851810  32.0438760
 117.4114400  64.7033830  27.5046660 117.1705760  64.9708390  26.6177180
 118.3517040  64.8739560  27.5597520 119.6168820  51.1666520  31.2603170
 119.5557710  51.7588350  32.0098580 120.5569200  51.0592480  31.1153430
 122.2543380  50.8236580  30.8995460 122.8683790  51.1415870  30.2376540
 122.7992940  50.3385170  31.5191320 112.7764640  49.5030840  31.0134520
 113.3247630  49.3218890  30.2500630 112.8419950  48.7124950  31.5490830
 113.5496400  66.0936490  29.0234720 112.9556720  65.9621190  29.7624760
 113.5420240  65.2574630  28.5576820 122.9951420  49.3868720  27.2264750
 122.1211260  49.7203830  27.0237680 122.8862170  48.9141900  28.0516620
 123.9023400  51.5939590  28.6106470 123.5736760  50.7791350  28.2308200
 124.8505700  51.5509400  28.4872160 113.1808630  63.4594870  27.9742760
 112.4542690  62.8400160  27.9068710 113.2417780  63.8535480  27.1040840
 116.7853730  65.6739870  24.7592170 117.3018750  65.0627230  24.2340430
 117.4351110  66.1768650  25.2503180 119.5249230  66.5648360  25.5861150
 119.8127040  66.3102660  24.7094160 120.0372450  66.0125720  26.1766720
 120.7426240  50.3038560  26.1657660 119.9598030  50.7784060  26.4454420
 120.4489170  49.3993390  26.0570840 111.4638630  66.7769260  21.1839520
 111.2960670  66.1439940  21.8821410 110.5973140  66.9828660  20.8333710
 112.0866650  50.6086040  18.6871380 112.8446010  50.7214920  18.1135410
 111.6243820  51.4455240  18.6414810 118.6280460  52.7225310  21.6773690
 117.8154970  52.3482200  21.3369570 119.1322100  51.9670390  21.9794880
 123.1305440  49.3867760  22.9156760 123.7334810  49.9587970  23.3905280
 122.3898430  49.9507200  22.6930660 113.0701330  65.4702490  18.6289660
 112.5448950  65.8510520  17.9251620 112.9945910  66.0953260  19.3499370
 114.4591800  51.1350090  17.2273350 114.9884560  50.3479890  17.0981300
 115.0920120  51.8141280  17.4608880 116.6529640  50.8725230  20.2818740
 116.0232380  50.1712540  20.4488870 116.1134780  51.6329360  20.0651900
 119.5921590  67.4864460  32.9529350 120.5188900  67.2508730  32.9965310
 119.5772020  68.3136460  32.4715380 116.7785200  50.1509210  32.7171230
 116.4969470  50.6542810  31.9532050 117.1604900  49.3530960  32.3513360
 115.6694300  67.4184870  17.5038910 116.4013120  67.1344150  16.9562800
 115.9287970  67.1798150  18.3938290 114.8309090  63.5349600  17.5085240
 114.2017970  64.0034700  18.0571070 114.9456920  62.6898820  17.9431430
 123.3800660  49.5662790  33.2951700 123.2666110  49.8857400  34.1903220
 124.1970400  49.9675300  32.9988980 122.2858810  57.5855260   3.6586440
 122.2052860  56.6709870   3.3878150 121.8723230  58.0822330   2.9526150
 120.4176850  59.3634280   5.5395710 119.6418950  58.8834720   5.8294280
 121.0689780  58.6839930   5.3651870 114.4342680  59.6754090   6.4171470
 113.6027560  59.4202800   6.8167980 115.0423660  59.7464860   7.1529390
 124.4384280  63.7694470   4.3194840 123.9765810  62.9981710   4.6482010
 125.2509830  63.7960540   4.8247290 114.4143940  63.7094180   6.6129490
 114.7171980  62.8191920   6.4339710 115.1587530  64.2664400   6.3851740
 110.8067640  57.2361630   6.0853560 111.3783750  56.4683830   6.0857200
 110.8069180  57.5350390   5.1760170 120.6647590  66.0552480   3.9398830
 120.0459030  66.5109980   3.3693270 121.5199370  66.2103940   3.5388530
 119.8585840  62.0391470   5.5465870 119.7894120  61.0981410   5.3855000
 120.6205700  62.1292880   6.1188440 112.0492510  52.6445990   7.8722490
 111.8695350  51.7471740   8.1525250 111.6472590  53.1917860   8.5469440
 120.8891010  54.8461850   5.7734800 121.2655830  53.9733730   5.6608470
 120.7910520  55.1820550   4.8825240 112.6679180  55.1406490   6.4804830
 113.3489290  55.4044860   7.0992230 112.3527230  54.3007360   6.8142840
 116.8603750  56.1873850   5.5677420 117.3681970  56.6854820   6.2082440
 117.3916990  55.4109050   5.3916780 115.1439850  50.8272410   9.8340840
 115.1458290  51.3444800   9.0286740 114.3144160  50.3502590   9.8110770
 116.3942700  60.4667590   8.0114340 116.0612080  61.0936510   8.6535410
 116.5709380  60.9929470   7.2316010 124.9076610  54.2812670   5.4790680
 124.2032180  54.5697560   6.0593790 125.2688770  55.0912780   5.1190240
 114.8255180  52.5382370   7.8411290 115.1671990  53.3824420   7.5465160
 113.8870990  52.6866110   7.9576630 115.6061800  62.4348390   9.8263520
 116.2235800  63.1099470   9.5447970 114.7454920  62.8436370   9.7351020
 118.5083070  50.0264640   4.1655880 118.8158050  49.4711530   3.4491380
 117.5783770  50.1609100   3.9828870 124.0598130  65.7431930   6.4563340
 124.0725290  65.3394220   5.5885600 123.5073350  66.5179220   6.3524770
 123.4583570  60.6461770   7.7845950 123.8752360  60.4321880   6.9499410
 124.1823390  60.9034560   8.3554570 124.3687680  55.8318310   8.8217060
 123.9558860  56.6572020   9.0757050 123.6363630  55.2463350   8.6293420
 116.5020470  58.6178210   3.6835730 116.0977470  57.9055460   3.1881630
 116.5883590  58.2731450   4.5723770 116.9702170  62.3045770   5.8474940
 116.6730460  61.6991240   5.1682720 117.9201990  62.3423080   5.7364300
 115.2149090  55.3921420   7.4634770 115.7663680  55.5016760   6.6888020
 115.7292600  55.7659020   8.1790000 125.0587780  65.8777640   9.5098040
 124.5818340  66.6849830   9.3170650 124.3749570  65.2255970   9.6624250
 116.0620600  62.0427460  12.4982740 115.1649130  62.2667430  12.7456140
 116.0873470  62.1662400  11.5494140 114.8891820  58.9140780  11.0740110
 114.7499590  59.7863580  11.4427510 114.0073180  58.5713590  10.9288050
 121.2121200  63.8316650   2.3805240 121.6517110  64.5740980   1.9660630
 121.1508090  64.0743220   3.3044200 116.6872170  64.8562480  13.2825260
 116.6587600  65.2605430  12.4153690 116.5237140  63.9272840  13.1196860
 110.8410470  60.6838330   6.9911020 110.9190890  60.8187100   6.0466740
 111.4552150  59.9754220   7.1839140 112.0858100  62.3838520   3.4017200
 111.6786180  62.5253110   2.5470800 112.9771110  62.0998680   3.1988410
 121.9036980  66.5330430  10.3084250 122.4181650  66.4438440  11.1106680
 121.0606060  66.8790130  10.6012160 123.1467440  65.9536040   2.3714740
 123.6024390  65.1725420   2.6853360 123.4859960  66.6642860   2.9155920
 110.8969990  61.7252500   9.5305480 111.0601030  61.2557860   8.7124850
 111.3622440  61.2176060  10.1954320 115.6688760  50.8558260   4.5666050
 115.2256910  51.6367800   4.2350570 116.2273750  51.1788150   5.2736990
 119.9558570  53.7226780  10.1701370 119.4937940  53.9309800  10.9821310
 119.5536680  52.9086130   9.8672040 124.9563080  54.9435730  11.2998030
 124.1056670  54.6441480  11.6207100 124.7964870  55.1877740  10.3881850
 122.0512790  56.4437480  13.3996820 122.3766200  55.6101230  13.0599050
 122.8393120  56.9666000  13.5475150 117.7064660  51.4005590   6.4255650
 118.0036990  52.3068420   6.3447670 118.2550220  50.9124370   5.8115220
 115.4602980  55.9791830   2.2947300 115.2343900  55.7629000   3.1993920
 114.6795510  56.4120290   1.9493270 117.9002190  56.8777410  12.9607570
 117.8045790  55.9372140  12.8107970 118.7434170  57.0992480  12.5655640
 121.2965610  54.6218740   2.9241230 121.6895180  54.9390940   2.1109920
 121.6582460  53.7430620   3.0385750 113.0312730  53.2891080  11.1141350
 112.6376120  54.1366290  11.3214130 112.3431130  52.6517450  11.3049990
 119.6057780  53.3726050  14.1838090 118.9156100  53.1798250  14.8184180
 120.3490080  53.6560690  14.7162390 110.3329780  51.2119540   5.1471430
 110.0442830  51.7822400   5.8596410 111.0775540  50.7323990   5.5102660
 121.8820750  57.2124490   7.0192010 121.1501870  57.7211300   7.3682110
 121.4845090  56.3954470   6.7180790 118.3198140  53.8878690   5.4244500
 118.3234200  53.4468640   4.5749040 119.2149260  54.2096020   5.5316320
 114.1700520  53.7705180   4.3838710 113.8300570  54.2480410   5.1405760
 113.4077840  53.3170300   4.0239810 122.3446660  52.6658170   6.4314950
 122.3619400  53.1166820   7.2756800 122.0962240  51.7663810   6.6448390
 112.4708970  61.1003930  11.6901290 112.0863760  60.4597600  12.2884250
 112.7821160  61.8040050  12.2596020 118.6206110  57.9480470   7.1709910
 118.9876240  57.4739040   7.9171250 118.4311170  58.8222040   7.5118250
 111.4846600  52.6924160   3.3003380 111.1993520  52.3279830   4.1382000
 111.4225460  51.9604620   2.6866520 116.4105480  56.9889110   9.4894120
 116.1062550  57.8681090   9.7144480 117.3651940  57.0488900   9.5251560
 121.0794050  60.2624520  11.7656360 121.0131360  59.3420190  11.5113950
 120.4499190  60.3599960  12.4801000 114.9824670  60.8630480   3.7239780
 115.5003340  60.0598740   3.6696670 114.5308690  60.8009620   4.5656610
 112.4669210  57.8291850  10.6365480 112.1084150  58.4945700  11.2238820
 112.1723770  56.9975400  11.0078100 115.6682330  58.2876090  13.5205030
 115.3682470  58.4333270  12.6232850 116.4393570  57.7281380  13.4278420
 121.0110780  63.0845090  11.5160160 121.0255320  62.1526050  11.2979070
 120.3035880  63.1704850  12.1549930 122.7521580  61.4512600   4.3612590
 123.1045400  60.8540730   3.7013960 121.8683910  61.1256830   4.5320840
 118.8384860  62.2110290   1.7683000 119.5255990  62.7579500   2.1490590
 118.0517280  62.7551020   1.8032610 120.4444680  64.7262660   8.6100660
 121.0886900  64.9322040   9.2874080 120.8074120  63.9651060   8.1571510
 121.7176760  62.7295010   7.3278110 122.3598990  62.0288170   7.4410280
 122.2426110  63.5093450   7.1475000 123.4914380  63.5289910  10.5314170
 123.8270620  64.1156600  11.2092090 122.5714720  63.3982620  10.7611960
 111.0417780  51.3185090  11.3137580 110.3276300  51.5182010  11.9190190
 111.4612820  50.5424660  11.6852380 111.3290370  65.3065350  12.3004110
 111.4381490  64.3660090  12.1599500 110.6770930  65.5720100  11.6517840
 119.3202960  63.5781240  13.7002230 118.9999830  62.8590480  14.2447920
 118.6461320  64.2536310  13.7738290 122.5356560  53.8107400   9.0639030
 122.9037380  52.9902610   9.3918600 121.6754760  53.8709290   9.4794680
 119.4958550  56.4646990   9.2877000 119.9943800  56.9392810   9.9528850
 119.6381500  55.5410510   9.4947030 121.9018050  51.7700950   2.7280260
 121.7785830  51.7887080   1.7789770 122.8502610  51.8179890   2.8478660
 124.9947420  57.9248130   3.5766750 124.0537560  57.9398360   3.7514440
 125.3091490  57.1384090   4.0227050 114.4690530  67.1888190   4.9238140
 115.2053010  66.6403650   5.1946710 114.8531450  68.0544200   4.7844130
 113.4748810  66.3734260  14.1123720 114.2761540  66.6946310  14.5259120
 112.9600630  66.0129840  14.8343630 122.3113440  62.4814130  14.0599130
 121.7051600  62.5045730  13.3194880 122.0067550  61.7497170  14.5966380
 123.7413810  66.2094420  12.6708540 124.6935560  66.1252440  12.6208780
 123.5942030  66.8736130  13.3442330 111.1946620  58.8607720  13.0559770
 111.6985640  58.2815000  13.6276000 110.4554040  59.1447950  13.5936140
 118.2484560  60.2678710  12.5895290 117.4830230  60.8363710  12.5049960
 118.4300520  59.9754920  11.6963520 113.2269700  57.0037310  13.9509840
 113.2675040  56.7051180  14.8595070 114.0815200  57.4044920  13.7917360
 115.1675510  55.5829410  11.9184330 114.6371970  55.0920360  11.2907670
 115.8363580  56.0113610  11.3842260 124.0653570  60.0498870  11.6825520
 124.4794590  60.2043950  12.5315940 123.1304570  60.1754090  11.8451300
 124.5375740  57.3895030  13.6864670 125.1196510  56.6347350  13.5985150
 124.7137510  57.9202470  12.9096150 115.6547810  52.5491780  11.9981620
 115.5604680  51.9312530  11.2732490 115.0745200  53.2758070  11.7711530
 118.4209250  51.1065020   9.0309010 117.9726550  51.1289280   8.1854560
 117.7874450  50.7084040   9.6279310 118.8268800  60.0019350   9.6521450
 119.2456910  60.8452080   9.4797690 117.9077430  60.1391390   9.4228230
 121.1632700  57.7335530  11.0359290 121.2828910  57.1376670  11.7754130
 122.0226700  57.7705220  10.6160590 123.5020600  58.2872720   9.6121800
 122.9755820  58.8115340   9.0086940 123.8451940  58.9200110  10.2431530
 116.6776220  66.3072360  10.7679180 116.1397310  67.0318420  10.4487880
 116.9310180  65.8302700   9.9776520 117.9301470  54.2756880  12.2935110
 118.5201160  53.9672730  12.9812930 117.1121710  53.8036630  12.4495010
 122.7494900  53.8922690  12.5268130 122.0610420  53.2304230  12.4618120
 123.4700920  53.4460960  12.9716590 119.5338430  67.5423570  11.0265830
 119.4597130  68.4458710  11.3338200 118.6317270  67.2235470  10.9987900
 110.9365720  64.8698160   4.3299450 111.2668730  64.0019220   4.0978090
 111.3656720  65.0756680   5.1604410 111.4255930  65.7368750   7.0681080
 110.9886920  65.9169550   7.9005230 111.9933610  66.4943370   6.9262800
 111.2580360  58.2488980   3.4269960 110.6029200  57.9800620   2.7829660
 112.0958310  58.1393460   2.9771940 112.2956290  58.6341550   7.9673300
 112.6629330  58.5468950   8.8469320 111.7267110  57.8708100   7.8680160
 111.8472290  55.5450640  11.8731720 110.9528340  55.5117400  12.2125430
 112.3869840  55.7437430  12.6382970 112.3512000  49.8198970   6.2214940
 112.9988190  49.2696350   5.7810100 112.7713840  50.0742120   7.0430750
 112.1044000  49.9754640   8.9640260 111.7558820  50.4318460   9.7298440
 111.7731700  49.0811770   9.0462690 113.7108370  63.1474240  13.1293450
 113.6678000  62.7767150  14.0107910 113.8419380  64.0851810  13.2695270
 117.4114400  64.7033830   8.7303170 117.1705760  64.9708390   7.8433690
 118.3517040  64.8739560   8.7854030 119.6168820  51.1666520  12.4859680
 119.5557710  51.7588350  13.2355090 120.5569200  51.0592480  12.3409940
 122.2543380  50.8236580  12.1251970 122.8683790  51.1415870  11.4633050
 122.7992940  50.3385170  12.7447830 112.7764640  49.5030840  12.2391030
 113.3247630  49.3218890  11.4757140 112.8419950  48.7124950  12.7747340
 113.5496400  66.0936490  10.2491230 112.9556720  65.9621190  10.9881270
 113.5420240  65.2574630   9.7833330 122.9951420  49.3868720   8.4521260
 122.1211260  49.7203830   8.2494190 122.8862170  48.9141900   9.2773130
 123.9023400  51.5939590   9.8362980 123.5736760  50.7791350   9.4564710
 124.8505700  51.5509400   9.7128670 113.1808630  63.4594870   9.1999270
 112.4542690  62.8400160   9.1325220 113.2417780  63.8535480   8.3297350
 116.7853730  65.6739870   5.9848680 117.3018750  65.0627230   5.4596940
 117.4351110  66.1768650   6.4759690 119.5249230  66.5648360   6.8117660
 119.8127040  66.3102660   5.9350670 120.0372450  66.0125720   7.4023230
 120.7426240  50.3038560   7.3914170 119.9598030  50.7784060   7.6710930
 120.4489170  49.3993390   7.2827350 111.4638630  66.7769260   2.4096030
 111.2960670  66.1439940   3.1077920 110.5973140  66.9828660   2.0590220
 118.6280460  52.7225310   2.9030200 117.8154970  52.3482200   2.5626080
 119.1322100  51.9670390   3.2051390 123.1305440  49.3867760   4.1413270
 123.7334810  49.9587970   4.6161790 122.3898430  49.9507200   3.9187170
 119.5921590  67.4864460  14.1785860 120.5188900  67.2508730  14.2221820
 119.5772020  68.3136460  13.6971890 116.7785200  50.1509210  13.9427740
 116.4969470  50.6542810  13.1788560 117.1604900  49.3530960  13.5769870
 123.3800660  49.5662790  14.5208210 123.2666110  49.8857400  15.4159730
 124.1970400  49.9675300  14.2245490 122.2858810  38.8111770  97.5303890
 122.2052860  37.8966380  97.2595600 121.8723230  39.3078840  96.8243600
 120.4176850  40.5890790  99.4113160 119.6418950  40.1091230  99.7011730
 121.0689780  39.9096440  99.2369320 114.4342680  40.9010600 100.2888920
 113.6027560  40.6459310 100.6885430 115.0423660  40.9721370 101.0246840
 124.4384280  44.9950980  98.1912290 123.9765810  44.2238220  98.5199460
 125.2509830  45.0217050  98.6964740 114.4143940  44.9350690 100.4846940
 114.7171980  44.0448430 100.3057160 115.1587530  45.4920910 100.2569190
 112.8434630  35.8612490  94.0731310 111.9551330  36.2028460  93.9711190
 113.1275820  35.6612810  93.1812140 110.8067640  38.4618140  99.9571010
 111.3783750  37.6940340  99.9574650 110.8069180  38.7606900  99.0477620
 120.6647590  47.2808990  97.8116280 120.0459030  47.7366490  97.2410720
 121.5199370  47.4360450  97.4105980 119.8585840  43.2647980  99.4183320
 119.7894120  42.3237920  99.2572450 120.6205700  43.3549390  99.9905890
 112.0492510  33.8702500 101.7439940 111.8695350  32.9728250 102.0242700
 111.6472590  34.4174370 102.4186890 120.8891010  36.0718360  99.6452250
 121.2655830  35.1990240  99.5325920 120.7910520  36.4077060  98.7542690
 115.0196020  34.4443990  95.1069690 115.1262770  35.3447720  95.4138450
 114.1088380  34.3961960  94.8164340 112.6679180  36.3663000 100.3522280
 113.3489290  36.6301370 100.9709680 112.3527230  35.5263870 100.6860290
 116.8603750  37.4130360  99.4394870 117.3681970  37.9111330 100.0799890
 117.3916990  36.6365560  99.2634230 121.5310940  42.1648230  95.2048190
 120.9128210  42.6297680  94.6410910 122.0434190  42.8575710  95.6217700
 116.3942700  41.6924100 101.8831790 116.0612080  42.3193020 102.5252860
 116.5709380  42.2185980 101.1033460 124.9076610  35.5069180  99.3508130
 124.2032180  35.7954070  99.9311240 125.2688770  36.3169290  98.9907690
 114.8255180  33.7638880 101.7128740 115.1671990  34.6080930 101.4182610
 113.8870990  33.9122620 101.8294080 110.8994140  42.8504760  92.5787820
 110.5222120  43.3391860  91.8472720 111.1567210  43.5230040  93.2094350
 118.5083070  31.2521150  98.0373330 118.8158050  30.6968040  97.3208830
 117.5783770  31.3865610  97.8546320 124.0598130  46.9688440 100.3280790
 124.0725290  46.5650730  99.4603050 123.5073350  47.7435730 100.2242220
 123.4583570  41.8718280 101.6563400 123.8752360  41.6578390 100.8216860
 124.1823390  42.1291070 102.2272020 120.8963830  39.3169980  94.7733450
 119.9693110  39.2507360  95.0021920 121.0488650  40.2550110  94.6588690
 120.8832910  35.5886980  91.7700610 119.9436580  35.7500940  91.8553070
 121.2016170  36.3072660  91.2236600 124.9261120  40.8790280  95.2768700
 124.3073540  40.5409830  94.6295000 124.9085570  40.2350040  95.9847890
 116.5020470  39.8434720  97.5553180 116.0977470  39.1311970  97.0599080
 116.5883590  39.4987960  98.4441220 116.9702170  43.5302280  99.7192390
 116.6730460  42.9247750  99.0400170 117.9201990  43.5679590  99.6081750
 115.2149090  36.6177930 101.3352220 115.7663680  36.7273270 100.5605470
 115.7292600  36.9915530 102.0507450 123.1025820  40.1177090  92.2841450
 123.5419100  39.2799520  92.1379270 123.8154240  40.7506490  92.3705590
 121.2121200  45.0573160  96.2522690 121.6517110  45.7997490  95.8378080
 121.1508090  45.2999730  97.1761650 113.2025100  38.7379700  95.0559830
 113.0822700  39.4641790  94.4441100 112.8925990  37.9682610  94.5787740
 110.8410470  41.9094840 100.8628470 110.9190890  42.0443610  99.9184190
 111.4552150  41.2010730 101.0556590 112.0858100  43.6095030  97.2734650
 111.6786180  43.7509620  96.4188250 112.9771110  43.3255190  97.0705860
 123.8791380  48.0442280  93.6085700 123.7192520  47.7545220  94.5067530
 123.7138090  47.2682410  93.0730930 116.3579760  47.8240810  95.3857320
 116.1822240  46.9076350  95.1725120 115.5035500  48.1828100  95.6255120
 123.5817510  45.5529840  92.1683700 122.8882670  45.5507130  91.5085980
 124.3240370  45.1289160  91.7377870 123.1467440  47.1792550  96.2432190
 123.6024390  46.3981930  96.5570810 123.4859960  47.8899370  96.7873370
 115.6688760  32.0814770  98.4383500 115.2256910  32.8624310  98.1068020
 116.2273750  32.4044660  99.1454440 118.7847580  31.7025470  93.3189330
 118.1601760  31.6985340  94.0442640 118.6977700  30.8356430  92.9225300
 117.7064660  32.6262100 100.2973100 118.0036990  33.5324930 100.2165120
 118.2550220  32.1380880  99.6832670 115.4602980  37.2048340  96.1664750
 115.2343900  36.9885510  97.0711370 114.6795510  37.6376800  95.8210720
 122.6900740  37.2111710  94.7655400 122.0909630  37.9347510  94.5819020
 123.2380350  37.1488490  93.9831850 121.2965610  35.8475250  96.7958680
 121.6895180  36.1647450  95.9827370 121.6582460  34.9687130  96.9103200
 110.3329780  32.4376050  99.0188880 110.0442830  33.0078910  99.7313860
 111.0775540  31.9580500  99.3820110 110.5200010  36.3796170  90.2291600
 110.4374680  37.3226930  90.3706590 110.1683070  36.2371080  89.3503950
 121.8820750  38.4381000 100.8909460 121.1501870  38.9467810 101.2399560
 121.4845090  37.6210980 100.5898240 118.3198140  35.1135200  99.2961950
 118.3234200  34.6725150  98.4466490 119.2149260  35.4352530  99.4033770
 114.1700520  34.9961690  98.2556160 113.8300570  35.4736920  99.0123210
 113.4077840  34.5426810  97.8957260 118.3818290  36.1147280  92.2868710
 118.5031110  36.0733760  93.2354530 117.9966800  36.9771430  92.1315440
 122.3446660  33.8914680 100.3032400 122.3619400  34.3423330 101.1474250
 122.0962240  32.9920320 100.5165840 117.3939790  38.4248420  91.6852010
 116.8256690  37.9766670  91.0587920 118.1028790  38.7841200  91.1517160
 118.6206110  39.1736980 101.0427360 118.9876240  38.6995550 101.7888700
 118.4311170  40.0478550 101.3835700 111.4846600  33.9180670  97.1720830
 111.1993520  33.5536340  98.0099450 111.4225460  33.1861130  96.5583970
 114.9387270  42.4206610  93.9578420 114.1649530  41.8804230  93.7977140
 115.6681900  41.9013220  93.6196180 121.1585190  32.8109930  93.8934200
 120.3449800  32.3123100  93.8179510 120.9647140  33.6508180  93.4770550
 123.8733580  37.1829580  92.1896360 124.7613200  37.4946810  92.0147700
 123.8438670  36.3101830  91.7976940 114.9824670  42.0886990  97.5957230
 115.5003340  41.2855250  97.5414120 114.5308690  42.0266130  98.4374060
 119.8694170  43.3553270  92.8684530 120.2109870  44.0995500  92.3727850
 119.0406880  43.6684390  93.2309360 122.7521580  42.6769110  98.2330040
 123.1045400  42.0797240  97.5731410 121.8683910  42.3513340  98.4038290
 118.8384860  43.4366800  95.6400450 119.5255990  43.9836010  96.0208040
 118.0517280  43.9807530  95.6750060 110.9777260  39.0539620  91.1317530
 111.8472110  39.3364420  91.4153450 110.4867580  39.8675490  91.0166340
 118.1412070  40.4412830  95.2525810 118.5974850  41.2518080  95.4786000
 117.7900280  40.1235970  96.0844300 114.0423850  30.7850480  95.7248330
 113.9138480  30.7768380  96.6733250 113.2185870  31.1233570  95.3739340
 121.7176760  43.9551520 101.1995560 122.3598990  43.2544680 101.3127730
 122.2426110  44.7349960 101.0192450 111.3448510  48.2667000  91.6979160
 111.7046150  48.8656340  91.0436430 111.2040850  48.8126890  92.4714190
 117.3617130  45.6498200  92.5152830 117.3527230  46.3827890  91.8997340
 116.4415490  45.4029780  92.6079790 112.9623770  40.8713090  93.2599590
 112.3551720  41.6111990  93.2694890 113.4373120  40.9612450  92.4337790
 120.3476730  45.7126440  91.1778020 120.4488710  45.5090430  90.2480000
 119.4478470  45.4584720  91.3825800 117.8702620  36.2706800  95.1601920
 117.1618770  36.7393140  95.6015530 118.1547100  35.6128810  95.7947110
 121.9018050  32.9957460  96.5997710 121.7785830  33.0143590  95.6507220
 122.8502610  33.0436400  96.7196110 118.9894840  48.2312760  95.8725690
 119.2436340  48.1934150  94.9505060 118.0407320  48.1046090  95.8653940
 116.0737640  34.5791880  92.5352630 116.9228170  35.0162030  92.4692820
 115.7068910  34.8912140  93.3624690 124.9947420  39.1504640  97.4484200
 124.0537560  39.1654870  97.6231890 125.3091490  38.3640600  97.8944500
 114.9729060  40.8324240  91.0088160 115.7392330  40.7205600  91.5713590
 115.0503750  40.1362210  90.3564930 113.6675820  38.2649310  91.6921050
 113.7479410  37.3176820  91.8038450 114.5595570  38.5956190  91.7981710
 114.4690530  48.4144700  98.7955590 115.2053010  47.8660160  99.0664160
 114.8531450  49.2800710  98.6561580 111.3536010  44.4818270  94.6697100
 110.4275790  44.7239410  94.6602510 111.8192440  45.3092530  94.5481850
 117.5792840  47.5875010  90.6181160 118.3721450  47.8763840  90.1662950
 117.0597190  47.1567180  89.9393640 118.0970240  42.8078420  90.4823510
 117.9920880  42.1930770  91.2084890 117.9294460  42.2844310  89.6986520
 121.3372970  41.8698450  91.0865500 120.7883070  42.3167750  91.7308240
 121.9592230  41.3647700  91.6103170 117.0048090  40.8289370  92.9830800
 117.4264510  40.6629240  93.8262190 117.1298930  40.0189600  92.4885940
 119.5175730  39.8526980  90.2307900 120.0381390  39.1376000  89.8649050
 120.1644130  40.4912850  90.5308410 115.9006990  36.9022600  89.9288960
 115.6996050  36.0389960  90.2902300 115.7299040  36.8155960  88.9910560
 123.3795300  31.7130830  92.4575840 123.6597590  30.8698730  92.8135260
 122.6061030  31.9453940  92.9714590 114.6989790  34.0023220  89.9166840
 115.0015690  34.0090650  89.0085990 115.4384380  33.6521080  90.4134500
 117.9174720  32.9457840  90.9023040 117.5696720  32.2681830  90.3225490
 118.1187490  32.4847350  91.7166430 120.0823760  47.9338590  92.5209640
 120.9774550  48.2723560  92.5428400 120.1141390  47.2118000  91.8933920
 113.7219920  43.3065640  90.7496640 114.1594790  43.8495310  91.4054220
 114.2067650  42.4812590  90.7592980 110.9365720  46.0954670  98.2016900
 111.2668730  45.2275730  97.9695540 111.3656720  46.3013190  99.0321860
 115.5327640  44.4263680  95.8618870 115.2323180  44.3028650  96.7622780
 115.4265130  43.5672270  95.4534600 111.4255930  46.9625260 100.9398530
 110.9886920  47.1426060 101.7722680 111.9933610  47.7199880 100.7980250
 111.2580360  39.4745490  97.2987410 110.6029200  39.2057130  96.6547110
 112.0958310  39.3649970  96.8489390 124.2070800  34.2686780  91.5205900
 124.6255680  34.0817760  90.6802560 123.9006860  33.4165830  91.8308830
 112.2956290  39.8598060 101.8390750 112.6629330  39.7725460 102.7186770
 111.7267110  39.0964610 101.7397610 110.4718440  36.6844420  93.2412740
 109.5682520  36.9474620  93.0664400 110.9559060  36.9555590  92.4612700
 113.0145650  35.7409960  91.1507120 113.7237350  35.3193180  90.6654400
 112.2985590  35.8085190  90.5190470 112.6619810  31.7949290  90.1909770
 113.3847940  32.3358230  90.5090990 112.9344330  31.5212710  89.3151310
 112.3512000  31.0455480 100.0932390 112.9988190  30.4952860  99.6527550
 112.7713840  31.2998630 100.9148200 117.4114400  45.9290340 102.6020620
 117.1705760  46.1964900 101.7151140 118.3517040  46.0996070 102.6571480
 116.7853730  46.8996380  99.8566130 117.3018750  46.2883740  99.3314390
 117.4351110  47.4025160 100.3477140 119.5249230  47.7904870 100.6835110
 119.8127040  47.5359170  99.8068120 120.0372450  47.2382230 101.2740680
 120.7426240  31.5295070 101.2631620 119.9598030  32.0040570 101.5428380
 120.4489170  30.6249900 101.1544800 111.4638630  48.0025770  96.2813480
 111.2960670  47.3696450  96.9795370 110.5973140  48.2085170  95.9307670
 112.0866650  31.8342550  93.7845340 112.8446010  31.9471430  93.2109370
 111.6243820  32.6711750  93.7388770 118.6280460  33.9481820  96.7747650
 117.8154970  33.5738710  96.4343530 119.1322100  33.1926900  97.0768840
 123.1305440  30.6124270  98.0130720 123.7334810  31.1844480  98.4879240
 122.3898430  31.1763710  97.7904620 113.0701330  46.6959000  93.7263620
 112.5448950  47.0767030  93.0225580 112.9945910  47.3209770  94.4473330
 114.4591800  32.3606600  92.3247310 114.9884560  31.5736400  92.1955260
 115.0920120  33.0397790  92.5582840 116.6529640  32.0981740  95.3792700
 116.0232380  31.3969050  95.5462830 116.1134780  32.8585870  95.1625860
 115.6694300  48.6441380  92.6012870 116.4013120  48.3600660  92.0536760
 115.9287970  48.4054660  93.4912250 114.8309090  44.7606110  92.6059200
 114.2017970  45.2291210  93.1545030 114.9456920  43.9155330  93.0405390
 122.2858810  38.8111770  78.7560400 122.2052860  37.8966380  78.4852110
 121.8723230  39.3078840  78.0500110 120.4176850  40.5890790  80.6369670
 119.6418950  40.1091230  80.9268240 121.0689780  39.9096440  80.4625830
 114.4342680  40.9010600  81.5145430 113.6027560  40.6459310  81.9141940
 115.0423660  40.9721370  82.2503350 124.4384280  44.9950980  79.4168800
 123.9765810  44.2238220  79.7455970 125.2509830  45.0217050  79.9221250
 114.4143940  44.9350690  81.7103450 114.7171980  44.0448430  81.5313670
 115.1587530  45.4920910  81.4825700 112.8434630  35.8612490  75.2987820
 111.9551330  36.2028460  75.1967700 113.1275820  35.6612810  74.4068650
 110.8067640  38.4618140  81.1827520 111.3783750  37.6940340  81.1831160
 110.8069180  38.7606900  80.2734130 120.6647590  47.2808990  79.0372790
 120.0459030  47.7366490  78.4667230 121.5199370  47.4360450  78.6362490
 119.8585840  43.2647980  80.6439830 119.7894120  42.3237920  80.4828960
 120.6205700  43.3549390  81.2162400 112.0492510  33.8702500  82.9696450
 111.8695350  32.9728250  83.2499210 111.6472590  34.4174370  83.6443400
 120.8891010  36.0718360  80.8708760 121.2655830  35.1990240  80.7582430
 120.7910520  36.4077060  79.9799200 115.0196020  34.4443990  76.3326200
 115.1262770  35.3447720  76.6394960 114.1088380  34.3961960  76.0420850
 112.6679180  36.3663000  81.5778790 113.3489290  36.6301370  82.1966190
 112.3527230  35.5263870  81.9116800 116.8603750  37.4130360  80.6651380
 117.3681970  37.9111330  81.3056400 117.3916990  36.6365560  80.4890740
 115.1439850  32.0528920  84.9314800 115.1458290  32.5701310  84.1260700
 114.3144160  31.5759100  84.9084730 121.5310940  42.1648230  76.4304700
 120.9128210  42.6297680  75.8667420 122.0434190  42.8575710  76.8474210
 116.3942700  41.6924100  83.1088300 116.0612080  42.3193020  83.7509370
 116.5709380  42.2185980  82.3289970 124.9076610  35.5069180  80.5764640
 124.2032180  35.7954070  81.1567750 125.2688770  36.3169290  80.2164200
 114.8255180  33.7638880  82.9385250 115.1671990  34.6080930  82.6439120
 113.8870990  33.9122620  83.0550590 115.6061800  43.6604900  84.9237480
 116.2235800  44.3355980  84.6421930 114.7454920  44.0692880  84.8324980
 110.8994140  42.8504760  73.8044330 110.5222120  43.3391860  73.0729230
 111.1567210  43.5230040  74.4350860 118.5083070  31.2521150  79.2629840
 118.8158050  30.6968040  78.5465340 117.5783770  31.3865610  79.0802830
 124.0598130  46.9688440  81.5537300 124.0725290  46.5650730  80.6859560
 123.5073350  47.7435730  81.4498730 123.4583570  41.8718280  82.8819910
 123.8752360  41.6578390  82.0473370 124.1823390  42.1291070  83.4528530
 120.8963830  39.3169980  75.9989960 119.9693110  39.2507360  76.2278430
 121.0488650  40.2550110  75.8845200 120.8832910  35.5886980  72.9957120
 119.9436580  35.7500940  73.0809580 121.2016170  36.3072660  72.4493110
 124.9261120  40.8790280  76.5025210 124.3073540  40.5409830  75.8551510
 124.9085570  40.2350040  77.2104400 124.3687680  37.0574820  83.9191020
 123.9558860  37.8828530  84.1731010 123.6363630  36.4719860  83.7267380
 116.5020470  39.8434720  78.7809690 116.0977470  39.1311970  78.2855590
 116.5883590  39.4987960  79.6697730 116.9702170  43.5302280  80.9448900
 116.6730460  42.9247750  80.2656680 117.9201990  43.5679590  80.8338260
 115.2149090  36.6177930  82.5608730 115.7663680  36.7273270  81.7861980
 115.7292600  36.9915530  83.2763960 125.0587780  47.1034150  84.6072000
 124.5818340  47.9106340  84.4144610 124.3749570  46.4512480  84.7598210
 116.0620600  43.2683970  87.5956700 115.1649130  43.4923940  87.8430100
 116.0873470  43.3918910  86.6468100 123.1025820  40.1177090  73.5097960
 123.5419100  39.2799520  73.3635780 123.8154240  40.7506490  73.5962100
 114.8891820  40.1397290  86.1714070 114.7499590  41.0120090  86.5401470
 114.0073180  39.7970100  86.0262010 121.2121200  45.0573160  77.4779200
 121.6517110  45.7997490  77.0634590 121.1508090  45.2999730  78.4018160
 116.6872170  46.0818990  88.3799220 116.6587600  46.4861940  87.5127650
 116.5237140  45.1529350  88.2170820 113.2025100  38.7379700  76.2816340
 113.0822700  39.4641790  75.6697610 112.8925990  37.9682610  75.8044250
 110.8410470  41.9094840  82.0884980 110.9190890  42.0443610  81.1440700
 111.4552150  41.2010730  82.2813100 112.0858100  43.6095030  78.4991160
 111.6786180  43.7509620  77.6444760 112.9771110  43.3255190  78.2962370
 121.9036980  47.7586940  85.4058210 122.4181650  47.6694950  86.2080640
 121.0606060  48.1046640  85.6986120 123.8791380  48.0442280  74.8342210
 123.7192520  47.7545220  75.7324040 123.7138090  47.2682410  74.2987440
 116.3579760  47.8240810  76.6113830 116.1822240  46.9076350  76.3981630
 115.5035500  48.1828100  76.8511630 123.5817510  45.5529840  73.3940210
 122.8882670  45.5507130  72.7342490 124.3240370  45.1289160  72.9634380
 123.1467440  47.1792550  77.4688700 123.6024390  46.3981930  77.7827320
 123.4859960  47.8899370  78.0129880 110.8969990  42.9509010  84.6279440
 111.0601030  42.4814370  83.8098810 111.3622440  42.4432570  85.2928280
 115.6688760  32.0814770  79.6640010 115.2256910  32.8624310  79.3324530
 116.2273750  32.4044660  80.3710950 119.9558570  34.9483290  85.2675330
 119.4937940  35.1566310  86.0795270 119.5536680  34.1342640  84.9646000
 124.9563080  36.1692240  86.3971990 124.1056670  35.8697990  86.7181060
 124.7964870  36.4134250  85.4855810 122.0512790  37.6693990  88.4970780
 122.3766200  36.8357740  88.1573010 122.8393120  38.1922510  88.6449110
 118.7847580  31.7025470  74.5445840 118.1601760  31.6985340  75.2699150
 118.6977700  30.8356430  74.1481810 117.7064660  32.6262100  81.5229610
 118.0036990  33.5324930  81.4421630 118.2550220  32.1380880  80.9089180
 115.4602980  37.2048340  77.3921260 115.2343900  36.9885510  78.2967880
 114.6795510  37.6376800  77.0467230 122.6900740  37.2111710  75.9911910
 122.0909630  37.9347510  75.8075530 123.2380350  37.1488490  75.2088360
 117.9002190  38.1033920  88.0581530 117.8045790  37.1628650  87.9081930
 118.7434170  38.3248990  87.6629600 121.2965610  35.8475250  78.0215190
 121.6895180  36.1647450  77.2083880 121.6582460  34.9687130  78.1359710
 113.0312730  34.5147590  86.2115310 112.6376120  35.3622800  86.4188090
 112.3431130  33.8773960  86.4023950 119.6057780  34.5982560  89.2812050
 118.9156100  34.4054760  89.9158140 120.3490080  34.8817200  89.8136350
 110.3329780  32.4376050  80.2445390 110.0442830  33.0078910  80.9570370
 111.0775540  31.9580500  80.6076620 110.5200010  36.3796170  71.4548110
 110.4374680  37.3226930  71.5963100 110.1683070  36.2371080  70.5760460
 121.8820750  38.4381000  82.1165970 121.1501870  38.9467810  82.4656070
 121.4845090  37.6210980  81.8154750 118.3198140  35.1135200  80.5218460
 118.3234200  34.6725150  79.6723000 119.2149260  35.4352530  80.6290280
 114.1700520  34.9961690  79.4812670 113.8300570  35.4736920  80.2379720
 113.4077840  34.5426810  79.1213770 118.3818290  36.1147280  73.5125220
 118.5031110  36.0733760  74.4611040 117.9966800  36.9771430  73.3571950
 122.3446660  33.8914680  81.5288910 122.3619400  34.3423330  82.3730760
 122.0962240  32.9920320  81.7422350 117.3939790  38.4248420  72.9108520
 116.8256690  37.9766670  72.2844430 118.1028790  38.7841200  72.3773670
 112.4708970  42.3260440  86.7875250 112.0863760  41.6854110  87.3858210
 112.7821160  43.0296560  87.3569980 118.6206110  39.1736980  82.2683870
 118.9876240  38.6995550  83.0145210 118.4311170  40.0478550  82.6092210
 111.4846600  33.9180670  78.3977340 111.1993520  33.5536340  79.2355960
 111.4225460  33.1861130  77.7840480 116.4105480  38.2145620  84.5868080
 116.1062550  39.0937600  84.8118440 117.3651940  38.2745410  84.6225520
 114.9387270  42.4206610  75.1834930 114.1649530  41.8804230  75.0233650
 115.6681900  41.9013220  74.8452690 121.1585190  32.8109930  75.1190710
 120.3449800  32.3123100  75.0436020 120.9647140  33.6508180  74.7027060
 121.0794050  41.4881030  86.8630320 121.0131360  40.5676700  86.6087910
 120.4499190  41.5856470  87.5774960 123.8733580  37.1829580  73.4152870
 124.7613200  37.4946810  73.2404210 123.8438670  36.3101830  73.0233450
 114.9824670  42.0886990  78.8213740 115.5003340  41.2855250  78.7670630
 114.5308690  42.0266130  79.6630570 119.8694170  43.3553270  74.0941040
 120.2109870  44.0995500  73.5984360 119.0406880  43.6684390  74.4565870
 112.4669210  39.0548360  85.7339440 112.1084150  39.7202210  86.3212780
 112.1723770  38.2231910  86.1052060 115.6682330  39.5132600  88.6178990
 115.3682470  39.6589780  87.7206810 116.4393570  38.9537890  88.5252380
 121.0110780  44.3101600  86.6134120 121.0255320  43.3782560  86.3953030
 120.3035880  44.3961360  87.2523890 122.7521580  42.6769110  79.4586550
 123.1045400  42.0797240  78.7987920 121.8683910  42.3513340  79.6294800
 118.8384860  43.4366800  76.8656960 119.5255990  43.9836010  77.2464550
 118.0517280  43.9807530  76.9006570 110.9777260  39.0539620  72.3574040
 111.8472110  39.3364420  72.6409960 110.4867580  39.8675490  72.2422850
 118.1412070  40.4412830  76.4782320 118.5974850  41.2518080  76.7042510
 117.7900280  40.1235970  77.3100810 120.4444680  45.9519170  83.7074620
 121.0886900  46.1578550  84.3848040 120.8074120  45.1907570  83.2545470
 114.0423850  30.7850480  76.9504840 113.9138480  30.7768380  77.8989760
 113.2185870  31.1233570  76.5995850 121.7176760  43.9551520  82.4252070
 122.3598990  43.2544680  82.5384240 122.2426110  44.7349960  82.2448960
 123.4914380  44.7546420  85.6288130 123.8270620  45.3413110  86.3066050
 122.5714720  44.6239130  85.8585920 111.3448510  48.2667000  72.9235670
 111.7046150  48.8656340  72.2692940 111.2040850  48.8126890  73.6970700
 111.0417780  32.5441600  86.4111540 110.3276300  32.7438520  87.0164150
 111.4612820  31.7681170  86.7826340 111.3290370  46.5321860  87.3978070
 111.4381490  45.5916600  87.2573460 110.6770930  46.7976610  86.7491800
 119.3202960  44.8037750  88.7976190 118.9999830  44.0846990  89.3421880
 118.6461320  45.4792820  88.8712250 117.3617130  45.6498200  73.7409340
 117.3527230  46.3827890  73.1253850 116.4415490  45.4029780  73.8336300
 112.9623770  40.8713090  74.4856100 112.3551720  41.6111990  74.4951400
 113.4373120  40.9612450  73.6594300 122.5356560  35.0363910  84.1612990
 122.9037380  34.2159120  84.4892560 121.6754760  35.0965800  84.5768640
 120.3476730  45.7126440  72.4034530 120.4488710  45.5090430  71.4736510
 119.4478470  45.4584720  72.6082310 117.8702620  36.2706800  76.3858430
 117.1618770  36.7393140  76.8272040 118.1547100  35.6128810  77.0203620
 119.4958550  37.6903500  84.3850960 119.9943800  38.1649320  85.0502810
 119.6381500  36.7667020  84.5920990 121.9018050  32.9957460  77.8254220
 121.7785830  33.0143590  76.8763730 122.8502610  33.0436400  77.9452620
 118.9894840  48.2312760  77.0982200 119.2436340  48.1934150  76.1761570
 118.0407320  48.1046090  77.0910450 116.0737640  34.5791880  73.7609140
 116.9228170  35.0162030  73.6949330 115.7068910  34.8912140  74.5881200
 124.9947420  39.1504640  78.6740710 124.0537560  39.1654870  78.8488400
 125.3091490  38.3640600  79.1201010 114.9729060  40.8324240  72.2344670
 115.7392330  40.7205600  72.7970100 115.0503750  40.1362210  71.5821440
 113.6675820  38.2649310  72.9177560 113.7479410  37.3176820  73.0294960
 114.5595570  38.5956190  73.0238220 114.4690530  48.4144700  80.0212100
 115.2053010  47.8660160  80.2920670 114.8531450  49.2800710  79.8818090
 111.3536010  44.4818270  75.8953610 110.4275790  44.7239410  75.8859020
 111.8192440  45.3092530  75.7738360 113.4748810  47.5990770  89.2097680
 114.2761540  47.9202820  89.6233080 112.9600630  47.2386350  89.9317590
 117.5792840  47.5875010  71.8437670 118.3721450  47.8763840  71.3919460
 117.0597190  47.1567180  71.1650150 122.3113440  43.7070640  89.1573090
 121.7051600  43.7302240  88.4168840 122.0067550  42.9753680  89.6940340
 123.7413810  47.4350930  87.7682500 124.6935560  47.3508950  87.7182740
 123.5942030  48.0992640  88.4416290 111.1946620  40.0864230  88.1533730
 111.6985640  39.5071510  88.7249960 110.4554040  40.3704460  88.6910100
 118.0970240  42.8078420  71.7080020 117.9920880  42.1930770  72.4341400
 117.9294460  42.2844310  70.9243030 118.2484560  41.4935220  87.6869250
 117.4830230  42.0620220  87.6023920 118.4300520  41.2011430  86.7937480
 121.3372970  41.8698450  72.3122010 120.7883070  42.3167750  72.9564750
 121.9592230  41.3647700  72.8359680 113.2269700  38.2293820  89.0483800
 113.2675040  37.9307690  89.9569030 114.0815200  38.6301430  88.8891320
 117.0048090  40.8289370  74.2087310 117.4264510  40.6629240  75.0518700
 117.1298930  40.0189600  73.7142450 115.1675510  36.8085920  87.0158290
 114.6371970  36.3176870  86.3881630 115.8363580  37.2370120  86.4816220
 119.5175730  39.8526980  71.4564410 120.0381390  39.1376000  71.0905560
 120.1644130  40.4912850  71.7564920 124.0653570  41.2755380  86.7799480
 124.4794590  41.4300460  87.6289900 123.1304570  41.4010600  86.9425260
 124.5375740  38.6151540  88.7838630 125.1196510  37.8603860  88.6959110
 124.7137510  39.1458980  88.0070110 115.6547810  33.7748290  87.0955580
 115.5604680  33.1569040  86.3706450 115.0745200  34.5014580  86.8685490
 118.4209250  32.3321530  84.1282970 117.9726550  32.3545790  83.2828520
 117.7874450  31.9340550  84.7253270 118.8268800  41.2275860  84.7495410
 119.2456910  42.0708590  84.5771650 117.9077430  41.3647900  84.5202190
 121.1632700  38.9592040  86.1333250 121.2828910  38.3633180  86.8728090
 122.0226700  38.9961730  85.7134550 123.5020600  39.5129230  84.7095760
 122.9755820  40.0371850  84.1060900 123.8451940  40.1456620  85.3405490
 115.9006990  36.9022600  71.1545470 115.6996050  36.0389960  71.5158810
 115.7299040  36.8155960  70.2167070 116.6776220  47.5328870  85.8653140
 116.1397310  48.2574930  85.5461840 116.9310180  47.0559210  85.0750480
 117.9301470  35.5013390  87.3909070 118.5201160  35.1929240  88.0786890
 117.1121710  35.0293140  87.5468970 122.7494900  35.1179200  87.6242090
 122.0610420  34.4560740  87.5592080 123.4700920  34.6717470  88.0690550
 123.3795300  31.7130830  73.6832350 123.6597590  30.8698730  74.0391770
 122.6061030  31.9453940  74.1971100 114.6989790  34.0023220  71.1423350
 115.0015690  34.0090650  70.2342500 115.4384380  33.6521080  71.6391010
 119.5338430  48.7680080  86.1239790 119.4597130  49.6715220  86.4312160
 118.6317270  48.4491980  86.0961860 117.9174720  32.9457840  72.1279550
 117.5696720  32.2681830  71.5482000 118.1187490  32.4847350  72.9422940
 120.0823760  47.9338590  73.7466150 120.9774550  48.2723560  73.7684910
 120.1141390  47.2118000  73.1190430 113.7219920  43.3065640  71.9753150
 114.1594790  43.8495310  72.6310730 114.2067650  42.4812590  71.9849490
 110.9365720  46.0954670  79.4273410 111.2668730  45.2275730  79.1952050
 111.3656720  46.3013190  80.2578370 115.5327640  44.4263680  77.0875380
 115.2323180  44.3028650  77.9879290 115.4265130  43.5672270  76.6791110
 111.4255930  46.9625260  82.1655040 110.9886920  47.1426060  82.9979190
 111.9933610  47.7199880  82.0236760 111.2580360  39.4745490  78.5243920
 110.6029200  39.2057130  77.8803620 112.0958310  39.3649970  78.0745900
 124.2070800  34.2686780  72.7462410 124.6255680  34.0817760  71.9059070
 123.9006860  33.4165830  73.0565340 112.2956290  39.8598060  83.0647260
 112.6629330  39.7725460  83.9443280 111.7267110  39.0964610  82.9654120
 111.8472290  36.7707150  86.9705680 110.9528340  36.7373910  87.3099390
 112.3869840  36.9693940  87.7356930 110.4718440  36.6844420  74.4669250
 109.5682520  36.9474620  74.2920910 110.9559060  36.9555590  73.6869210
 113.0145650  35.7409960  72.3763630 113.7237350  35.3193180  71.8910910
 112.2985590  35.8085190  71.7446980 112.6619810  31.7949290  71.4166280
 113.3847940  32.3358230  71.7347500 112.9344330  31.5212710  70.5407820
 112.3512000  31.0455480  81.3188900 112.9988190  30.4952860  80.8784060
 112.7713840  31.2998630  82.1404710 112.1044000  31.2011150  84.0614220
 111.7558820  31.6574970  84.8272400 111.7731700  30.3068280  84.1436650
 113.7108370  44.3730750  88.2267410 113.6678000  44.0023660  89.1081870
 113.8419380  45.3108320  88.3669230 117.4114400  45.9290340  83.8277130
 117.1705760  46.1964900  82.9407650 118.3517040  46.0996070  83.8827990
 119.6168820  32.3923030  87.5833640 119.5557710  32.9844860  88.3329050
 120.5569200  32.2848990  87.4383900 122.2543380  32.0493090  87.2225930
 122.8683790  32.3672380  86.5607010 122.7992940  31.5641680  87.8421790
 112.7764640  30.7287350  87.3364990 113.3247630  30.5475400  86.5731100
 112.8419950  29.9381460  87.8721300 113.5496400  47.3193000  85.3465190
 112.9556720  47.1877700  86.0855230 113.5420240  46.4831140  84.8807290
 122.9951420  30.6125230  83.5495220 122.1211260  30.9460340  83.3468150
 122.8862170  30.1398410  84.3747090 123.9023400  32.8196100  84.9336940
 123.5736760  32.0047860  84.5538670 124.8505700  32.7765910  84.8102630
 113.1808630  44.6851380  84.2973230 112.4542690  44.0656670  84.2299180
 113.2417780  45.0791990  83.4271310 116.7853730  46.8996380  81.0822640
 117.3018750  46.2883740  80.5570900 117.4351110  47.4025160  81.5733650
 119.5249230  47.7904870  81.9091620 119.8127040  47.5359170  81.0324630
 120.0372450  47.2382230  82.4997190 120.7426240  31.5295070  82.4888130
 119.9598030  32.0040570  82.7684890 120.4489170  30.6249900  82.3801310
 111.4638630  48.0025770  77.5069990 111.2960670  47.3696450  78.2051880
 110.5973140  48.2085170  77.1564180 112.0866650  31.8342550  75.0101850
 112.8446010  31.9471430  74.4365880 111.6243820  32.6711750  74.9645280
 118.6280460  33.9481820  78.0004160 117.8154970  33.5738710  77.6600040
 119.1322100  33.1926900  78.3025350 123.1305440  30.6124270  79.2387230
 123.7334810  31.1844480  79.7135750 122.3898430  31.1763710  79.0161130
 113.0701330  46.6959000  74.9520130 112.5448950  47.0767030  74.2482090
 112.9945910  47.3209770  75.6729840 114.4591800  32.3606600  73.5503820
 114.9884560  31.5736400  73.4211770 115.0920120  33.0397790  73.7839350
 116.6529640  32.0981740  76.6049210 116.0232380  31.3969050  76.7719340
 116.1134780  32.8585870  76.3882370 119.5921590  48.7120970  89.2759820
 120.5188900  48.4765240  89.3195780 119.5772020  49.5392970  88.7945850
 116.7785200  31.3765720  89.0401700 116.4969470  31.8799320  88.2762520
 117.1604900  30.5787470  88.6743830 115.6694300  48.6441380  73.8269380
 116.4013120  48.3600660  73.2793270 115.9287970  48.4054660  74.7168760
 114.8309090  44.7606110  73.8315710 114.2017970  45.2291210  74.3801540
 114.9456920  43.9155330  74.2661900 123.3800660  30.7919300  89.6182170
 123.2666110  31.1113910  90.5133690 124.1970400  31.1931810  89.3219450
 122.2858810  38.8111770  59.9816910 122.2052860  37.8966380  59.7108620
 121.8723230  39.3078840  59.2756620 120.4176850  40.5890790  61.8626180
 119.6418950  40.1091230  62.1524750 121.0689780  39.9096440  61.6882340
 114.4342680  40.9010600  62.7401940 113.6027560  40.6459310  63.1398450
 115.0423660  40.9721370  63.4759860 124.4384280  44.9950980  60.6425310
 123.9765810  44.2238220  60.9712480 125.2509830  45.0217050  61.1477760
 114.4143940  44.9350690  62.9359960 114.7171980  44.0448430  62.7570180
 115.1587530  45.4920910  62.7082210 112.8434630  35.8612490  56.5244330
 111.9551330  36.2028460  56.4224210 113.1275820  35.6612810  55.6325160
 110.8067640  38.4618140  62.4084030 111.3783750  37.6940340  62.4087670
 110.8069180  38.7606900  61.4990640 120.6647590  47.2808990  60.2629300
 120.0459030  47.7366490  59.6923740 121.5199370  47.4360450  59.8619000
 119.8585840  43.2647980  61.8696340 119.7894120  42.3237920  61.7085470
 120.6205700  43.3549390  62.4418910 112.0492510  33.8702500  64.1952960
 111.8695350  32.9728250  64.4755720 111.6472590  34.4174370  64.8699910
 120.8891010  36.0718360  62.0965270 121.2655830  35.1990240  61.9838940
 120.7910520  36.4077060  61.2055710 115.0196020  34.4443990  57.5582710
 115.1262770  35.3447720  57.8651470 114.1088380  34.3961960  57.2677360
 112.6679180  36.3663000  62.8035300 113.3489290  36.6301370  63.4222700
 112.3527230  35.5263870  63.1373310 116.8603750  37.4130360  61.8907890
 117.3681970  37.9111330  62.5312910 117.3916990  36.6365560  61.7147250
 115.1439850  32.0528920  66.1571310 115.1458290  32.5701310  65.3517210
 114.3144160  31.5759100  66.1341240 121.5310940  42.1648230  57.6561210
 120.9128210  42.6297680  57.0923930 122.0434190  42.8575710  58.0730720
 116.3942700  41.6924100  64.3344810 116.0612080  42.3193020  64.9765880
 116.5709380  42.2185980  63.5546480 124.9076610  35.5069180  61.8021150
 124.2032180  35.7954070  62.3824260 125.2688770  36.3169290  61.4420710
 114.8255180  33.7638880  64.1641760 115.1671990  34.6080930  63.8695630
 113.8870990  33.9122620  64.2807100 115.6061800  43.6604900  66.1493990
 116.2235800  44.3355980  65.8678440 114.7454920  44.0692880  66.0581490
 110.8994140  42.8504760  55.0300840 110.5222120  43.3391860  54.2985740
 111.1567210  43.5230040  55.6607370 118.5083070  31.2521150  60.4886350
 118.8158050  30.6968040  59.7721850 117.5783770  31.3865610  60.3059340
 124.0598130  46.9688440  62.7793810 124.0725290  46.5650730  61.9116070
 123.5073350  47.7435730  62.6755240 123.4583570  41.8718280  64.1076420
 123.8752360  41.6578390  63.2729880 124.1823390  42.1291070  64.6785040
 120.8963830  39.3169980  57.2246470 119.9693110  39.2507360  57.4534940
 121.0488650  40.2550110  57.1101710 120.8832910  35.5886980  54.2213630
 119.9436580  35.7500940  54.3066090 121.2016170  36.3072660  53.6749620
 124.9261120  40.8790280  57.7281720 124.3073540  40.5409830  57.0808020
 124.9085570  40.2350040  58.4360910 124.3687680  37.0574820  65.1447530
 123.9558860  37.8828530  65.3987520 123.6363630  36.4719860  64.9523890
 116.5020470  39.8434720  60.0066200 116.0977470  39.1311970  59.5112100
 116.5883590  39.4987960  60.8954240 116.9702170  43.5302280  62.1705410
 116.6730460  42.9247750  61.4913190 117.9201990  43.5679590  62.0594770
 115.2149090  36.6177930  63.7865240 115.7663680  36.7273270  63.0118490
 115.7292600  36.9915530  64.5020470 125.0587780  47.1034150  65.8328510
 124.5818340  47.9106340  65.6401120 124.3749570  46.4512480  65.9854720
 116.0620600  43.2683970  68.8213210 115.1649130  43.4923940  69.0686610
 116.0873470  43.3918910  67.8724610 123.1025820  40.1177090  54.7354470
 123.5419100  39.2799520  54.5892290 123.8154240  40.7506490  54.8218610
 114.8891820  40.1397290  67.3970580 114.7499590  41.0120090  67.7657980
 114.0073180  39.7970100  67.2518520 121.2121200  45.0573160  58.7035710
 121.6517110  45.7997490  58.2891100 121.1508090  45.2999730  59.6274670
 116.6872170  46.0818990  69.6055730 116.6587600  46.4861940  68.7384160
 116.5237140  45.1529350  69.4427330 113.2025100  38.7379700  57.5072850
 113.0822700  39.4641790  56.8954120 112.8925990  37.9682610  57.0300760
 110.8410470  41.9094840  63.3141490 110.9190890  42.0443610  62.3697210
 111.4552150  41.2010730  63.5069610 112.0858100  43.6095030  59.7247670
 111.6786180  43.7509620  58.8701270 112.9771110  43.3255190  59.5218880
 121.9036980  47.7586940  66.6314720 122.4181650  47.6694950  67.4337150
 121.0606060  48.1046640  66.9242630 123.8791380  48.0442280  56.0598720
 123.7192520  47.7545220  56.9580550 123.7138090  47.2682410  55.5243950
 116.3579760  47.8240810  57.8370340 116.1822240  46.9076350  57.6238140
 115.5035500  48.1828100  58.0768140 123.5817510  45.5529840  54.6196720
 122.8882670  45.5507130  53.9599000 124.3240370  45.1289160  54.1890890
 123.1467440  47.1792550  58.6945210 123.6024390  46.3981930  59.0083830
 123.4859960  47.8899370  59.2386390 110.8969990  42.9509010  65.8535950
 111.0601030  42.4814370  65.0355320 111.3622440  42.4432570  66.5184790
 115.6688760  32.0814770  60.8896520 115.2256910  32.8624310  60.5581040
 116.2273750  32.4044660  61.5967460 119.9558570  34.9483290  66.4931840
 119.4937940  35.1566310  67.3051780 119.5536680  34.1342640  66.1902510
 124.9563080  36.1692240  67.6228500 124.1056670  35.8697990  67.9437570
 124.7964870  36.4134250  66.7112320 122.0512790  37.6693990  69.7227290
 122.3766200  36.8357740  69.3829520 122.8393120  38.1922510  69.8705620
 118.7847580  31.7025470  55.7702350 118.1601760  31.6985340  56.4955660
 118.6977700  30.8356430  55.3738320 117.7064660  32.6262100  62.7486120
 118.0036990  33.5324930  62.6678140 118.2550220  32.1380880  62.1345690
 115.4602980  37.2048340  58.6177770 115.2343900  36.9885510  59.5224390
 114.6795510  37.6376800  58.2723740 122.6900740  37.2111710  57.2168420
 122.0909630  37.9347510  57.0332040 123.2380350  37.1488490  56.4344870
 117.9002190  38.1033920  69.2838040 117.8045790  37.1628650  69.1338440
 118.7434170  38.3248990  68.8886110 121.2965610  35.8475250  59.2471700
 121.6895180  36.1647450  58.4340390 121.6582460  34.9687130  59.3616220
 113.0312730  34.5147590  67.4371820 112.6376120  35.3622800  67.6444600
 112.3431130  33.8773960  67.6280460 119.6057780  34.5982560  70.5068560
 118.9156100  34.4054760  71.1414650 120.3490080  34.8817200  71.0392860
 110.3329780  32.4376050  61.4701900 110.0442830  33.0078910  62.1826880
 111.0775540  31.9580500  61.8333130 110.5200010  36.3796170  52.6804620
 110.4374680  37.3226930  52.8219610 110.1683070  36.2371080  51.8016970
 121.8820750  38.4381000  63.3422480 121.1501870  38.9467810  63.6912580
 121.4845090  37.6210980  63.0411260 118.3198140  35.1135200  61.7474970
 118.3234200  34.6725150  60.8979510 119.2149260  35.4352530  61.8546790
 114.1700520  34.9961690  60.7069180 113.8300570  35.4736920  61.4636230
 113.4077840  34.5426810  60.3470280 118.3818290  36.1147280  54.7381730
 118.5031110  36.0733760  55.6867550 117.9966800  36.9771430  54.5828460
 122.3446660  33.8914680  62.7545420 122.3619400  34.3423330  63.5987270
 122.0962240  32.9920320  62.9678860 117.3939790  38.4248420  54.1365030
 116.8256690  37.9766670  53.5100940 118.1028790  38.7841200  53.6030180
 112.4708970  42.3260440  68.0131760 112.0863760  41.6854110  68.6114720
 112.7821160  43.0296560  68.5826490 118.6206110  39.1736980  63.4940380
 118.9876240  38.6995550  64.2401720 118.4311170  40.0478550  63.8348720
 111.4846600  33.9180670  59.6233850 111.1993520  33.5536340  60.4612470
 111.4225460  33.1861130  59.0096990 116.4105480  38.2145620  65.8124590
 116.1062550  39.0937600  66.0374950 117.3651940  38.2745410  65.8482030
 114.9387270  42.4206610  56.4091440 114.1649530  41.8804230  56.2490160
 115.6681900  41.9013220  56.0709200 121.1585190  32.8109930  56.3447220
 120.3449800  32.3123100  56.2692530 120.9647140  33.6508180  55.9283570
 121.0794050  41.4881030  68.0886830 121.0131360  40.5676700  67.8344420
 120.4499190  41.5856470  68.8031470 123.8733580  37.1829580  54.6409380
 124.7613200  37.4946810  54.4660720 123.8438670  36.3101830  54.2489960
 114.9824670  42.0886990  60.0470250 115.5003340  41.2855250  59.9927140
 114.5308690  42.0266130  60.8887080 119.8694170  43.3553270  55.3197550
 120.2109870  44.0995500  54.8240870 119.0406880  43.6684390  55.6822380
 112.4669210  39.0548360  66.9595950 112.1084150  39.7202210  67.5469290
 112.1723770  38.2231910  67.3308570 115.6682330  39.5132600  69.8435500
 115.3682470  39.6589780  68.9463320 116.4393570  38.9537890  69.7508890
 121.0110780  44.3101600  67.8390630 121.0255320  43.3782560  67.6209540
 120.3035880  44.3961360  68.4780400 122.7521580  42.6769110  60.6843060
 123.1045400  42.0797240  60.0244430 121.8683910  42.3513340  60.8551310
 118.8384860  43.4366800  58.0913470 119.5255990  43.9836010  58.4721060
 118.0517280  43.9807530  58.1263080 110.9777260  39.0539620  53.5830550
 111.8472110  39.3364420  53.8666470 110.4867580  39.8675490  53.4679360
 118.1412070  40.4412830  57.7038830 118.5974850  41.2518080  57.9299020
 117.7900280  40.1235970  58.5357320 120.4444680  45.9519170  64.9331130
 121.0886900  46.1578550  65.6104550 120.8074120  45.1907570  64.4801980
 114.0423850  30.7850480  58.1761350 113.9138480  30.7768380  59.1246270
 113.2185870  31.1233570  57.8252360 121.7176760  43.9551520  63.6508580
 122.3598990  43.2544680  63.7640750 122.2426110  44.7349960  63.4705470
 123.4914380  44.7546420  66.8544640 123.8270620  45.3413110  67.5322560
 122.5714720  44.6239130  67.0842430 111.3448510  48.2667000  54.1492180
 111.7046150  48.8656340  53.4949450 111.2040850  48.8126890  54.9227210
 111.0417780  32.5441600  67.6368050 110.3276300  32.7438520  68.2420660
 111.4612820  31.7681170  68.0082850 111.3290370  46.5321860  68.6234580
 111.4381490  45.5916600  68.4829970 110.6770930  46.7976610  67.9748310
 119.3202960  44.8037750  70.0232700 118.9999830  44.0846990  70.5678390
 118.6461320  45.4792820  70.0968760 117.3617130  45.6498200  54.9665850
 117.3527230  46.3827890  54.3510360 116.4415490  45.4029780  55.0592810
 112.9623770  40.8713090  55.7112610 112.3551720  41.6111990  55.7207910
 113.4373120  40.9612450  54.8850810 122.5356560  35.0363910  65.3869500
 122.9037380  34.2159120  65.7149070 121.6754760  35.0965800  65.8025150
 120.3476730  45.7126440  53.6291040 120.4488710  45.5090430  52.6993020
 119.4478470  45.4584720  53.8338820 117.8702620  36.2706800  57.6114940
 117.1618770  36.7393140  58.0528550 118.1547100  35.6128810  58.2460130
 119.4958550  37.6903500  65.6107470 119.9943800  38.1649320  66.2759320
 119.6381500  36.7667020  65.8177500 121.9018050  32.9957460  59.0510730
 121.7785830  33.0143590  58.1020240 122.8502610  33.0436400  59.1709130
 118.9894840  48.2312760  58.3238710 119.2436340  48.1934150  57.4018080
 118.0407320  48.1046090  58.3166960 116.0737640  34.5791880  54.9865650
 116.9228170  35.0162030  54.9205840 115.7068910  34.8912140  55.8137710
 124.9947420  39.1504640  59.8997220 124.0537560  39.1654870  60.0744910
 125.3091490  38.3640600  60.3457520 114.9729060  40.8324240  53.4601180
 115.7392330  40.7205600  54.0226610 115.0503750  40.1362210  52.8077950
 113.6675820  38.2649310  54.1434070 113.7479410  37.3176820  54.2551470
 114.5595570  38.5956190  54.2494730 114.4690530  48.4144700  61.2468610
 115.2053010  47.8660160  61.5177180 114.8531450  49.2800710  61.1074600
 111.3536010  44.4818270  57.1210120 110.4275790  44.7239410  57.1115530
 111.8192440  45.3092530  56.9994870 113.4748810  47.5990770  70.4354190
 114.2761540  47.9202820  70.8489590 112.9600630  47.2386350  71.1574100
 117.5792840  47.5875010  53.0694180 118.3721450  47.8763840  52.6175970
 117.0597190  47.1567180  52.3906660 122.3113440  43.7070640  70.3829600
 121.7051600  43.7302240  69.6425350 122.0067550  42.9753680  70.9196850
 123.7413810  47.4350930  68.9939010 124.6935560  47.3508950  68.9439250
 123.5942030  48.0992640  69.6672800 111.1946620  40.0864230  69.3790240
 111.6985640  39.5071510  69.9506470 110.4554040  40.3704460  69.9166610
 118.0970240  42.8078420  52.9336530 117.9920880  42.1930770  53.6597910
 117.9294460  42.2844310  52.1499540 118.2484560  41.4935220  68.9125760
 117.4830230  42.0620220  68.8280430 118.4300520  41.2011430  68.0193990
 121.3372970  41.8698450  53.5378520 120.7883070  42.3167750  54.1821260
 121.9592230  41.3647700  54.0616190 113.2269700  38.2293820  70.2740310
 113.2675040  37.9307690  71.1825540 114.0815200  38.6301430  70.1147830
 117.0048090  40.8289370  55.4343820 117.4264510  40.6629240  56.2775210
 117.1298930  40.0189600  54.9398960 115.1675510  36.8085920  68.2414800
 114.6371970  36.3176870  67.6138140 115.8363580  37.2370120  67.7072730
 119.5175730  39.8526980  52.6820920 120.0381390  39.1376000  52.3162070
 120.1644130  40.4912850  52.9821430 124.0653570  41.2755380  68.0055990
 124.4794590  41.4300460  68.8546410 123.1304570  41.4010600  68.1681770
 124.5375740  38.6151540  70.0095140 125.1196510  37.8603860  69.9215620
 124.7137510  39.1458980  69.2326620 115.6547810  33.7748290  68.3212090
 115.5604680  33.1569040  67.5962960 115.0745200  34.5014580  68.0942000
 118.4209250  32.3321530  65.3539480 117.9726550  32.3545790  64.5085030
 117.7874450  31.9340550  65.9509780 118.8268800  41.2275860  65.9751920
 119.2456910  42.0708590  65.8028160 117.9077430  41.3647900  65.7458700
 121.1632700  38.9592040  67.3589760 121.2828910  38.3633180  68.0984600
 122.0226700  38.9961730  66.9391060 123.5020600  39.5129230  65.9352270
 122.9755820  40.0371850  65.3317410 123.8451940  40.1456620  66.5662000
 115.9006990  36.9022600  52.3801980 115.6996050  36.0389960  52.7415320
 115.7299040  36.8155960  51.4423580 116.6776220  47.5328870  67.0909650
 116.1397310  48.2574930  66.7718350 116.9310180  47.0559210  66.3006990
 117.9301470  35.5013390  68.6165580 118.5201160  35.1929240  69.3043400
 117.1121710  35.0293140  68.7725480 122.7494900  35.1179200  68.8498600
 122.0610420  34.4560740  68.7848590 123.4700920  34.6717470  69.2947060
 123.3795300  31.7130830  54.9088860 123.6597590  30.8698730  55.2648280
 122.6061030  31.9453940  55.4227610 114.6989790  34.0023220  52.3679860
 115.0015690  34.0090650  51.4599010 115.4384380  33.6521080  52.8647520
 119.5338430  48.7680080  67.3496300 119.4597130  49.6715220  67.6568670
 118.6317270  48.4491980  67.3218370 117.9174720  32.9457840  53.3536060
 117.5696720  32.2681830  52.7738510 118.1187490  32.4847350  54.1679450
 120.0823760  47.9338590  54.9722660 120.9774550  48.2723560  54.9941420
 120.1141390  47.2118000  54.3446940 113.7219920  43.3065640  53.2009660
 114.1594790  43.8495310  53.8567240 114.2067650  42.4812590  53.2106000
 110.9365720  46.0954670  60.6529920 111.2668730  45.2275730  60.4208560
 111.3656720  46.3013190  61.4834880 115.5327640  44.4263680  58.3131890
 115.2323180  44.3028650  59.2135800 115.4265130  43.5672270  57.9047620
 111.4255930  46.9625260  63.3911550 110.9886920  47.1426060  64.2235700
 111.9933610  47.7199880  63.2493270 111.2580360  39.4745490  59.7500430
 110.6029200  39.2057130  59.1060130 112.0958310  39.3649970  59.3002410
 124.2070800  34.2686780  53.9718920 124.6255680  34.0817760  53.1315580
 123.9006860  33.4165830  54.2821850 112.2956290  39.8598060  64.2903770
 112.6629330  39.7725460  65.1699790 111.7267110  39.0964610  64.1910630
 111.8472290  36.7707150  68.1962190 110.9528340  36.7373910  68.5355900
 112.3869840  36.9693940  68.9613440 110.4718440  36.6844420  55.6925760
 109.5682520  36.9474620  55.5177420 110.9559060  36.9555590  54.9125720
 113.0145650  35.7409960  53.6020140 113.7237350  35.3193180  53.1167420
 112.2985590  35.8085190  52.9703490 112.6619810  31.7949290  52.6422790
 113.3847940  32.3358230  52.9604010 112.9344330  31.5212710  51.7664330
 112.3512000  31.0455480  62.5445410 112.9988190  30.4952860  62.1040570
 112.7713840  31.2998630  63.3661220 112.1044000  31.2011150  65.2870730
 111.7558820  31.6574970  66.0528910 111.7731700  30.3068280  65.3693160
 113.7108370  44.3730750  69.4523920 113.6678000  44.0023660  70.3338380
 113.8419380  45.3108320  69.5925740 117.4114400  45.9290340  65.0533640
 117.1705760  46.1964900  64.1664160 118.3517040  46.0996070  65.1084500
 119.6168820  32.3923030  68.8090150 119.5557710  32.9844860  69.5585560
 120.5569200  32.2848990  68.6640410 122.2543380  32.0493090  68.4482440
 122.8683790  32.3672380  67.7863520 122.7992940  31.5641680  69.0678300
 112.7764640  30.7287350  68.5621500 113.3247630  30.5475400  67.7987610
 112.8419950  29.9381460  69.0977810 113.5496400  47.3193000  66.5721700
 112.9556720  47.1877700  67.3111740 113.5420240  46.4831140  66.1063800
 122.9951420  30.6125230  64.7751730 122.1211260  30.9460340  64.5724660
 122.8862170  30.1398410  65.6003600 123.9023400  32.8196100  66.1593450
 123.5736760  32.0047860  65.7795180 124.8505700  32.7765910  66.0359140
 113.1808630  44.6851380  65.5229740 112.4542690  44.0656670  65.4555690
 113.2417780  45.0791990  64.6527820 116.7853730  46.8996380  62.3079150
 117.3018750  46.2883740  61.7827410 117.4351110  47.4025160  62.7990160
 119.5249230  47.7904870  63.1348130 119.8127040  47.5359170  62.2581140
 120.0372450  47.2382230  63.7253700 120.7426240  31.5295070  63.7144640
 119.9598030  32.0040570  63.9941400 120.4489170  30.6249900  63.6057820
 111.4638630  48.0025770  58.7326500 111.2960670  47.3696450  59.4308390
 110.5973140  48.2085170  58.3820690 112.0866650  31.8342550  56.2358360
 112.8446010  31.9471430  55.6622390 111.6243820  32.6711750  56.1901790
 118.6280460  33.9481820  59.2260670 117.8154970  33.5738710  58.8856550
 119.1322100  33.1926900  59.5281860 123.1305440  30.6124270  60.4643740
 123.7334810  31.1844480  60.9392260 122.3898430  31.1763710  60.2417640
 113.0701330  46.6959000  56.1776640 112.5448950  47.0767030  55.4738600
 112.9945910  47.3209770  56.8986350 114.4591800  32.3606600  54.7760330
 114.9884560  31.5736400  54.6468280 115.0920120  33.0397790  55.0095860
 116.6529640  32.0981740  57.8305720 116.0232380  31.3969050  57.9975850
 116.1134780  32.8585870  57.6138880 119.5921590  48.7120970  70.5016330
 120.5188900  48.4765240  70.5452290 119.5772020  49.5392970  70.0202360
 116.7785200  31.3765720  70.2658210 116.4969470  31.8799320  69.5019030
 117.1604900  30.5787470  69.9000340 115.6694300  48.6441380  55.0525890
 116.4013120  48.3600660  54.5049780 115.9287970  48.4054660  55.9425270
 114.8309090  44.7606110  55.0572220 114.2017970  45.2291210  55.6058050
 114.9456920  43.9155330  55.4918410 123.3800660  30.7919300  70.8438680
 123.2666110  31.1113910  71.7390200 124.1970400  31.1931810  70.5475960
 122.2858810  38.8111770  41.2073420 122.2052860  37.8966380  40.9365130
 121.8723230  39.3078840  40.5013130 120.4176850  40.5890790  43.0882690
 119.6418950  40.1091230  43.3781260 121.0689780  39.9096440  42.9138850
 114.4342680  40.9010600  43.9658450 113.6027560  40.6459310  44.3654960
 115.0423660  40.9721370  44.7016370 124.4384280  44.9950980  41.8681820
 123.9765810  44.2238220  42.1968990 125.2509830  45.0217050  42.3734270
 114.4143940  44.9350690  44.1616470 114.7171980  44.0448430  43.9826690
 115.1587530  45.4920910  43.9338720 112.8434630  35.8612490  37.7500840
 111.9551330  36.2028460  37.6480720 113.1275820  35.6612810  36.8581670
 110.8067640  38.4618140  43.6340540 111.3783750  37.6940340  43.6344180
 110.8069180  38.7606900  42.7247150 120.6647590  47.2808990  41.4885810
 120.0459030  47.7366490  40.9180250 121.5199370  47.4360450  41.0875510
 119.8585840  43.2647980  43.0952850 119.7894120  42.3237920  42.9341980
 120.6205700  43.3549390  43.6675420 112.0492510  33.8702500  45.4209470
 111.8695350  32.9728250  45.7012230 111.6472590  34.4174370  46.0956420
 120.8891010  36.0718360  43.3221780 121.2655830  35.1990240  43.2095450
 120.7910520  36.4077060  42.4312220 115.0196020  34.4443990  38.7839220
 115.1262770  35.3447720  39.0907980 114.1088380  34.3961960  38.4933870
 112.6679180  36.3663000  44.0291810 113.3489290  36.6301370  44.6479210
 112.3527230  35.5263870  44.3629820 116.8603750  37.4130360  43.1164400
 117.3681970  37.9111330  43.7569420 117.3916990  36.6365560  42.9403760
 115.1439850  32.0528920  47.3827820 115.1458290  32.5701310  46.5773720
 114.3144160  31.5759100  47.3597750 121.5310940  42.1648230  38.8817720
 120.9128210  42.6297680  38.3180440 122.0434190  42.8575710  39.2987230
 116.3942700  41.6924100  45.5601320 116.0612080  42.3193020  46.2022390
 116.5709380  42.2185980  44.7802990 124.9076610  35.5069180  43.0277660
 124.2032180  35.7954070  43.6080770 125.2688770  36.3169290  42.6677220
 114.8255180  33.7638880  45.3898270 115.1671990  34.6080930  45.0952140
 113.8870990  33.9122620  45.5063610 115.6061800  43.6604900  47.3750500
 116.2235800  44.3355980  47.0934950 114.7454920  44.0692880  47.2838000
 110.8994140  42.8504760  36.2557350 110.5222120  43.3391860  35.5242250
 111.1567210  43.5230040  36.8863880 118.5083070  31.2521150  41.7142860
 118.8158050  30.6968040  40.9978360 117.5783770  31.3865610  41.5315850
 124.0598130  46.9688440  44.0050320 124.0725290  46.5650730  43.1372580
 123.5073350  47.7435730  43.9011750 123.4583570  41.8718280  45.3332930
 123.8752360  41.6578390  44.4986390 124.1823390  42.1291070  45.9041550
 120.8963830  39.3169980  38.4502980 119.9693110  39.2507360  38.6791450
 121.0488650  40.2550110  38.3358220 120.8832910  35.5886980  35.4470140
 119.9436580  35.7500940  35.5322600 121.2016170  36.3072660  34.9006130
 124.9261120  40.8790280  38.9538230 124.3073540  40.5409830  38.3064530
 124.9085570  40.2350040  39.6617420 124.3687680  37.0574820  46.3704040
 123.9558860  37.8828530  46.6244030 123.6363630  36.4719860  46.1780400
 116.5020470  39.8434720  41.2322710 116.0977470  39.1311970  40.7368610
 116.5883590  39.4987960  42.1210750 116.9702170  43.5302280  43.3961920
 116.6730460  42.9247750  42.7169700 117.9201990  43.5679590  43.2851280
 115.2149090  36.6177930  45.0121750 115.7663680  36.7273270  44.2375000
 115.7292600  36.9915530  45.7276980 125.0587780  47.1034150  47.0585020
 124.5818340  47.9106340  46.8657630 124.3749570  46.4512480  47.2111230
 116.0620600  43.2683970  50.0469720 115.1649130  43.4923940  50.2943120
 116.0873470  43.3918910  49.0981120 123.1025820  40.1177090  35.9610980
 123.5419100  39.2799520  35.8148800 123.8154240  40.7506490  36.0475120
 114.8891820  40.1397290  48.6227090 114.7499590  41.0120090  48.9914490
 114.0073180  39.7970100  48.4775030 121.2121200  45.0573160  39.9292220
 121.6517110  45.7997490  39.5147610 121.1508090  45.2999730  40.8531180
 116.6872170  46.0818990  50.8312240 116.6587600  46.4861940  49.9640670
 116.5237140  45.1529350  50.6683840 113.2025100  38.7379700  38.7329360
 113.0822700  39.4641790  38.1210630 112.8925990  37.9682610  38.2557270
 110.8410470  41.9094840  44.5398000 110.9190890  42.0443610  43.5953720
 111.4552150  41.2010730  44.7326120 112.0858100  43.6095030  40.9504180
 111.6786180  43.7509620  40.0957780 112.9771110  43.3255190  40.7475390
 121.9036980  47.7586940  47.8571230 122.4181650  47.6694950  48.6593660
 121.0606060  48.1046640  48.1499140 123.8791380  48.0442280  37.2855230
 123.7192520  47.7545220  38.1837060 123.7138090  47.2682410  36.7500460
 116.3579760  47.8240810  39.0626850 116.1822240  46.9076350  38.8494650
 115.5035500  48.1828100  39.3024650 123.5817510  45.5529840  35.8453230
 122.8882670  45.5507130  35.1855510 124.3240370  45.1289160  35.4147400
 123.1467440  47.1792550  39.9201720 123.6024390  46.3981930  40.2340340
 123.4859960  47.8899370  40.4642900 110.8969990  42.9509010  47.0792460
 111.0601030  42.4814370  46.2611830 111.3622440  42.4432570  47.7441300
 115.6688760  32.0814770  42.1153030 115.2256910  32.8624310  41.7837550
 116.2273750  32.4044660  42.8223970 119.9558570  34.9483290  47.7188350
 119.4937940  35.1566310  48.5308290 119.5536680  34.1342640  47.4159020
 124.9563080  36.1692240  48.8485010 124.1056670  35.8697990  49.1694080
 124.7964870  36.4134250  47.9368830 122.0512790  37.6693990  50.9483800
 122.3766200  36.8357740  50.6086030 122.8393120  38.1922510  51.0962130
 118.7847580  31.7025470  36.9958860 118.1601760  31.6985340  37.7212170
 118.6977700  30.8356430  36.5994830 117.7064660  32.6262100  43.9742630
 118.0036990  33.5324930  43.8934650 118.2550220  32.1380880  43.3602200
 115.4602980  37.2048340  39.8434280 115.2343900  36.9885510  40.7480900
 114.6795510  37.6376800  39.4980250 122.6900740  37.2111710  38.4424930
 122.0909630  37.9347510  38.2588550 123.2380350  37.1488490  37.6601380
 117.9002190  38.1033920  50.5094550 117.8045790  37.1628650  50.3594950
 118.7434170  38.3248990  50.1142620 121.2965610  35.8475250  40.4728210
 121.6895180  36.1647450  39.6596900 121.6582460  34.9687130  40.5872730
 113.0312730  34.5147590  48.6628330 112.6376120  35.3622800  48.8701110
 112.3431130  33.8773960  48.8536970 119.6057780  34.5982560  51.7325070
 118.9156100  34.4054760  52.3671160 120.3490080  34.8817200  52.2649370
 110.3329780  32.4376050  42.6958410 110.0442830  33.0078910  43.4083390
 111.0775540  31.9580500  43.0589640 110.5200010  36.3796170  33.9061130
 110.4374680  37.3226930  34.0476120 110.1683070  36.2371080  33.0273480
 121.8820750  38.4381000  44.5678990 121.1501870  38.9467810  44.9169090
 121.4845090  37.6210980  44.2667770 118.3198140  35.1135200  42.9731480
 118.3234200  34.6725150  42.1236020 119.2149260  35.4352530  43.0803300
 114.1700520  34.9961690  41.9325690 113.8300570  35.4736920  42.6892740
 113.4077840  34.5426810  41.5726790 118.3818290  36.1147280  35.9638240
 118.5031110  36.0733760  36.9124060 117.9966800  36.9771430  35.8084970
 122.3446660  33.8914680  43.9801930 122.3619400  34.3423330  44.8243780
 122.0962240  32.9920320  44.1935370 117.3939790  38.4248420  35.3621540
 116.8256690  37.9766670  34.7357450 118.1028790  38.7841200  34.8286690
 112.4708970  42.3260440  49.2388270 112.0863760  41.6854110  49.8371230
 112.7821160  43.0296560  49.8083000 118.6206110  39.1736980  44.7196890
 118.9876240  38.6995550  45.4658230 118.4311170  40.0478550  45.0605230
 111.4846600  33.9180670  40.8490360 111.1993520  33.5536340  41.6868980
 111.4225460  33.1861130  40.2353500 116.4105480  38.2145620  47.0381100
 116.1062550  39.0937600  47.2631460 117.3651940  38.2745410  47.0738540
 114.9387270  42.4206610  37.6347950 114.1649530  41.8804230  37.4746670
 115.6681900  41.9013220  37.2965710 121.1585190  32.8109930  37.5703730
 120.3449800  32.3123100  37.4949040 120.9647140  33.6508180  37.1540080
 121.0794050  41.4881030  49.3143340 121.0131360  40.5676700  49.0600930
 120.4499190  41.5856470  50.0287980 123.8733580  37.1829580  35.8665890
 124.7613200  37.4946810  35.6917230 123.8438670  36.3101830  35.4746470
 114.9824670  42.0886990  41.2726760 115.5003340  41.2855250  41.2183650
 114.5308690  42.0266130  42.1143590 119.8694170  43.3553270  36.5454060
 120.2109870  44.0995500  36.0497380 119.0406880  43.6684390  36.9078890
 112.4669210  39.0548360  48.1852460 112.1084150  39.7202210  48.7725800
 112.1723770  38.2231910  48.5565080 115.6682330  39.5132600  51.0692010
 115.3682470  39.6589780  50.1719830 116.4393570  38.9537890  50.9765400
 121.0110780  44.3101600  49.0647140 121.0255320  43.3782560  48.8466050
 120.3035880  44.3961360  49.7036910 122.7521580  42.6769110  41.9099570
 123.1045400  42.0797240  41.2500940 121.8683910  42.3513340  42.0807820
 118.8384860  43.4366800  39.3169980 119.5255990  43.9836010  39.6977570
 118.0517280  43.9807530  39.3519590 110.9777260  39.0539620  34.8087060
 111.8472110  39.3364420  35.0922980 110.4867580  39.8675490  34.6935870
 118.1412070  40.4412830  38.9295340 118.5974850  41.2518080  39.1555530
 117.7900280  40.1235970  39.7613830 120.4444680  45.9519170  46.1587640
 121.0886900  46.1578550  46.8361060 120.8074120  45.1907570  45.7058490
 114.0423850  30.7850480  39.4017860 113.9138480  30.7768380  40.3502780
 113.2185870  31.1233570  39.0508870 121.7176760  43.9551520  44.8765090
 122.3598990  43.2544680  44.9897260 122.2426110  44.7349960  44.6961980
 123.4914380  44.7546420  48.0801150 123.8270620  45.3413110  48.7579070
 122.5714720  44.6239130  48.3098940 111.3448510  48.2667000  35.3748690
 111.7046150  48.8656340  34.7205960 111.2040850  48.8126890  36.1483720
 111.0417780  32.5441600  48.8624560 110.3276300  32.7438520  49.4677170
 111.4612820  31.7681170  49.2339360 111.3290370  46.5321860  49.8491090
 111.4381490  45.5916600  49.7086480 110.6770930  46.7976610  49.2004820
 119.3202960  44.8037750  51.2489210 118.9999830  44.0846990  51.7934900
 118.6461320  45.4792820  51.3225270 117.3617130  45.6498200  36.1922360
 117.3527230  46.3827890  35.5766870 116.4415490  45.4029780  36.2849320
 112.9623770  40.8713090  36.9369120 112.3551720  41.6111990  36.9464420
 113.4373120  40.9612450  36.1107320 122.5356560  35.0363910  46.6126010
 122.9037380  34.2159120  46.9405580 121.6754760  35.0965800  47.0281660
 120.3476730  45.7126440  34.8547550 120.4488710  45.5090430  33.9249530
 119.4478470  45.4584720  35.0595330 117.8702620  36.2706800  38.8371450
 117.1618770  36.7393140  39.2785060 118.1547100  35.6128810  39.4716640
 119.4958550  37.6903500  46.8363980 119.9943800  38.1649320  47.5015830
 119.6381500  36.7667020  47.0434010 121.9018050  32.9957460  40.2767240
 121.7785830  33.0143590  39.3276750 122.8502610  33.0436400  40.3965640
 118.9894840  48.2312760  39.5495220 119.2436340  48.1934150  38.6274590
 118.0407320  48.1046090  39.5423470 116.0737640  34.5791880  36.2122160
 116.9228170  35.0162030  36.1462350 115.7068910  34.8912140  37.0394220
 124.9947420  39.1504640  41.1253730 124.0537560  39.1654870  41.3001420
 125.3091490  38.3640600  41.5714030 114.9729060  40.8324240  34.6857690
 115.7392330  40.7205600  35.2483120 115.0503750  40.1362210  34.0334460
 113.6675820  38.2649310  35.3690580 113.7479410  37.3176820  35.4807980
 114.5595570  38.5956190  35.4751240 114.4690530  48.4144700  42.4725120
 115.2053010  47.8660160  42.7433690 114.8531450  49.2800710  42.3331110
 111.3536010  44.4818270  38.3466630 110.4275790  44.7239410  38.3372040
 111.8192440  45.3092530  38.2251380 113.4748810  47.5990770  51.6610700
 114.2761540  47.9202820  52.0746100 112.9600630  47.2386350  52.3830610
 117.5792840  47.5875010  34.2950690 118.3721450  47.8763840  33.8432480
 117.0597190  47.1567180  33.6163170 122.3113440  43.7070640  51.6086110
 121.7051600  43.7302240  50.8681860 122.0067550  42.9753680  52.1453360
 123.7413810  47.4350930  50.2195520 124.6935560  47.3508950  50.1695760
 123.5942030  48.0992640  50.8929310 111.1946620  40.0864230  50.6046750
 111.6985640  39.5071510  51.1762980 110.4554040  40.3704460  51.1423120
 118.0970240  42.8078420  34.1593040 117.9920880  42.1930770  34.8854420
 117.9294460  42.2844310  33.3756050 118.2484560  41.4935220  50.1382270
 117.4830230  42.0620220  50.0536940 118.4300520  41.2011430  49.2450500
 121.3372970  41.8698450  34.7635030 120.7883070  42.3167750  35.4077770
 121.9592230  41.3647700  35.2872700 113.2269700  38.2293820  51.4996820
 113.2675040  37.9307690  52.4082050 114.0815200  38.6301430  51.3404340
 117.0048090  40.8289370  36.6600330 117.4264510  40.6629240  37.5031720
 117.1298930  40.0189600  36.1655470 115.1675510  36.8085920  49.4671310
 114.6371970  36.3176870  48.8394650 115.8363580  37.2370120  48.9329240
 119.5175730  39.8526980  33.9077430 120.0381390  39.1376000  33.5418580
 120.1644130  40.4912850  34.2077940 124.0653570  41.2755380  49.2312500
 124.4794590  41.4300460  50.0802920 123.1304570  41.4010600  49.3938280
 124.5375740  38.6151540  51.2351650 125.1196510  37.8603860  51.1472130
 124.7137510  39.1458980  50.4583130 115.6547810  33.7748290  49.5468600
 115.5604680  33.1569040  48.8219470 115.0745200  34.5014580  49.3198510
 118.4209250  32.3321530  46.5795990 117.9726550  32.3545790  45.7341540
 117.7874450  31.9340550  47.1766290 118.8268800  41.2275860  47.2008430
 119.2456910  42.0708590  47.0284670 117.9077430  41.3647900  46.9715210
 121.1632700  38.9592040  48.5846270 121.2828910  38.3633180  49.3241110
 122.0226700  38.9961730  48.1647570 123.5020600  39.5129230  47.1608780
 122.9755820  40.0371850  46.5573920 123.8451940  40.1456620  47.7918510
 115.9006990  36.9022600  33.6058490 115.6996050  36.0389960  33.9671830
 115.7299040  36.8155960  32.6680090 116.6776220  47.5328870  48.3166160
 116.1397310  48.2574930  47.9974860 116.9310180  47.0559210  47.5263500
 117.9301470  35.5013390  49.8422090 118.5201160  35.1929240  50.5299910
 117.1121710  35.0293140  49.9981990 122.7494900  35.1179200  50.0755110
 122.0610420  34.4560740  50.0105100 123.4700920  34.6717470  50.5203570
 123.3795300  31.7130830  36.1345370 123.6597590  30.8698730  36.4904790
 122.6061030  31.9453940  36.6484120 114.6989790  34.0023220  33.5936370
 115.0015690  34.0090650  32.6855520 115.4384380  33.6521080  34.0904030
 119.5338430  48.7680080  48.5752810 119.4597130  49.6715220  48.8825180
 118.6317270  48.4491980  48.5474880 117.9174720  32.9457840  34.5792570
 117.5696720  32.2681830  33.9995020 118.1187490  32.4847350  35.3935960
 120.0823760  47.9338590  36.1979170 120.9774550  48.2723560  36.2197930
 120.1141390  47.2118000  35.5703450 113.7219920  43.3065640  34.4266170
 114.1594790  43.8495310  35.0823750 114.2067650  42.4812590  34.4362510
 110.9365720  46.0954670  41.8786430 111.2668730  45.2275730  41.6465070
 111.3656720  46.3013190  42.7091390 115.5327640  44.4263680  39.5388400
 115.2323180  44.3028650  40.4392310 115.4265130  43.5672270  39.1304130
 111.4255930  46.9625260  44.6168060 110.9886920  47.1426060  45.4492210
 111.9933610  47.7199880  44.4749780 111.2580360  39.4745490  40.9756940
 110.6029200  39.2057130  40.3316640 112.0958310  39.3649970  40.5258920
 124.2070800  34.2686780  35.1975430 124.6255680  34.0817760  34.3572090
 123.9006860  33.4165830  35.5078360 112.2956290  39.8598060  45.5160280
 112.6629330  39.7725460  46.3956300 111.7267110  39.0964610  45.4167140
 111.8472290  36.7707150  49.4218700 110.9528340  36.7373910  49.7612410
 112.3869840  36.9693940  50.1869950 110.4718440  36.6844420  36.9182270
 109.5682520  36.9474620  36.7433930 110.9559060  36.9555590  36.1382230
 113.0145650  35.7409960  34.8276650 113.7237350  35.3193180  34.3423930
 112.2985590  35.8085190  34.1960000 112.6619810  31.7949290  33.8679300
 113.3847940  32.3358230  34.1860520 112.9344330  31.5212710  32.9920840
 112.3512000  31.0455480  43.7701920 112.9988190  30.4952860  43.3297080
 112.7713840  31.2998630  44.5917730 112.1044000  31.2011150  46.5127240
 111.7558820  31.6574970  47.2785420 111.7731700  30.3068280  46.5949670
 113.7108370  44.3730750  50.6780430 113.6678000  44.0023660  51.5594890
 113.8419380  45.3108320  50.8182250 117.4114400  45.9290340  46.2790150
 117.1705760  46.1964900  45.3920670 118.3517040  46.0996070  46.3341010
 119.6168820  32.3923030  50.0346660 119.5557710  32.9844860  50.7842070
 120.5569200  32.2848990  49.8896920 122.2543380  32.0493090  49.6738950
 122.8683790  32.3672380  49.0120030 122.7992940  31.5641680  50.2934810
 112.7764640  30.7287350  49.7878010 113.3247630  30.5475400  49.0244120
 112.8419950  29.9381460  50.3234320 113.5496400  47.3193000  47.7978210
 112.9556720  47.1877700  48.5368250 113.5420240  46.4831140  47.3320310
 122.9951420  30.6125230  46.0008240 122.1211260  30.9460340  45.7981170
 122.8862170  30.1398410  46.8260110 123.9023400  32.8196100  47.3849960
 123.5736760  32.0047860  47.0051690 124.8505700  32.7765910  47.2615650
 113.1808630  44.6851380  46.7486250 112.4542690  44.0656670  46.6812200
 113.2417780  45.0791990  45.8784330 116.7853730  46.8996380  43.5335660
 117.3018750  46.2883740  43.0083920 117.4351110  47.4025160  44.0246670
 119.5249230  47.7904870  44.3604640 119.8127040  47.5359170  43.4837650
 120.0372450  47.2382230  44.9510210 120.7426240  31.5295070  44.9401150
 119.9598030  32.0040570  45.2197910 120.4489170  30.6249900  44.8314330
 111.4638630  48.0025770  39.9583010 111.2960670  47.3696450  40.6564900
 110.5973140  48.2085170  39.6077200 112.0866650  31.8342550  37.4614870
 112.8446010  31.9471430  36.8878900 111.6243820  32.6711750  37.4158300
 118.6280460  33.9481820  40.4517180 117.8154970  33.5738710  40.1113060
 119.1322100  33.1926900  40.7538370 123.1305440  30.6124270  41.6900250
 123.7334810  31.1844480  42.1648770 122.3898430  31.1763710  41.4674150
 113.0701330  46.6959000  37.4033150 112.5448950  47.0767030  36.6995110
 112.9945910  47.3209770  38.1242860 114.4591800  32.3606600  36.0016840
 114.9884560  31.5736400  35.8724790 115.0920120  33.0397790  36.2352370
 116.6529640  32.0981740  39.0562230 116.0232380  31.3969050  39.2232360
 116.1134780  32.8585870  38.8395390 119.5921590  48.7120970  51.7272840
 120.5188900  48.4765240  51.7708800 119.5772020  49.5392970  51.2458870
 116.7785200  31.3765720  51.4914720 116.4969470  31.8799320  50.7275540
 117.1604900  30.5787470  51.1256850 115.6694300  48.6441380  36.2782400
 116.4013120  48.3600660  35.7306290 115.9287970  48.4054660  37.1681780
 114.8309090  44.7606110  36.2828730 114.2017970  45.2291210  36.8314560
 114.9456920  43.9155330  36.7174920 123.3800660  30.7919300  52.0695190
 123.2666110  31.1113910  52.9646710 124.1970400  31.1931810  51.7732470
 122.2858810  38.8111770  22.4329930 122.2052860  37.8966380  22.1621640
 121.8723230  39.3078840  21.7269640 120.4176850  40.5890790  24.3139200
 119.6418950  40.1091230  24.6037770 121.0689780  39.9096440  24.1395360
 114.4342680  40.9010600  25.1914960 113.6027560  40.6459310  25.5911470
 115.0423660  40.9721370  25.9272880 124.4384280  44.9950980  23.0938330
 123.9765810  44.2238220  23.4225500 125.2509830  45.0217050  23.5990780
 114.4143940  44.9350690  25.3872980 114.7171980  44.0448430  25.2083200
 115.1587530  45.4920910  25.1595230 112.8434630  35.8612490  18.9757350
 111.9551330  36.2028460  18.8737230 113.1275820  35.6612810  18.0838180
 110.8067640  38.4618140  24.8597050 111.3783750  37.6940340  24.8600690
 110.8069180  38.7606900  23.9503660 120.6647590  47.2808990  22.7142320
 120.0459030  47.7366490  22.1436760 121.5199370  47.4360450  22.3132020
 119.8585840  43.2647980  24.3209360 119.7894120  42.3237920  24.1598490
 120.6205700  43.3549390  24.8931930 112.0492510  33.8702500  26.6465980
 111.8695350  32.9728250  26.9268740 111.6472590  34.4174370  27.3212930
 120.8891010  36.0718360  24.5478290 121.2655830  35.1990240  24.4351960
 120.7910520  36.4077060  23.6568730 115.0196020  34.4443990  20.0095730
 115.1262770  35.3447720  20.3164490 114.1088380  34.3961960  19.7190380
 112.6679180  36.3663000  25.2548320 113.3489290  36.6301370  25.8735720
 112.3527230  35.5263870  25.5886330 116.8603750  37.4130360  24.3420910
 117.3681970  37.9111330  24.9825930 117.3916990  36.6365560  24.1660270
 115.1439850  32.0528920  28.6084330 115.1458290  32.5701310  27.8030230
 114.3144160  31.5759100  28.5854260 121.5310940  42.1648230  20.1074230
 120.9128210  42.6297680  19.5436950 122.0434190  42.8575710  20.5243740
 116.3942700  41.6924100  26.7857830 116.0612080  42.3193020  27.4278900
 116.5709380  42.2185980  26.0059500 124.9076610  35.5069180  24.2534170
 124.2032180  35.7954070  24.8337280 125.2688770  36.3169290  23.8933730
 114.8255180  33.7638880  26.6154780 115.1671990  34.6080930  26.3208650
 113.8870990  33.9122620  26.7320120 115.6061800  43.6604900  28.6007010
 116.2235800  44.3355980  28.3191460 114.7454920  44.0692880  28.5094510
 110.8994140  42.8504760  17.4813860 110.5222120  43.3391860  16.7498760
 111.1567210  43.5230040  18.1120390 118.5083070  31.2521150  22.9399370
 118.8158050  30.6968040  22.2234870 117.5783770  31.3865610  22.7572360
 124.0598130  46.9688440  25.2306830 124.0725290  46.5650730  24.3629090
 123.5073350  47.7435730  25.1268260 123.4583570  41.8718280  26.5589440
 123.8752360  41.6578390  25.7242900 124.1823390  42.1291070  27.1298060
 120.8963830  39.3169980  19.6759490 119.9693110  39.2507360  19.9047960
 121.0488650  40.2550110  19.5614730 120.8832910  35.5886980  16.6726650
 119.9436580  35.7500940  16.7579110 121.2016170  36.3072660  16.1262640
 124.9261120  40.8790280  20.1794740 124.3073540  40.5409830  19.5321040
 124.9085570  40.2350040  20.8873930 124.3687680  37.0574820  27.5960550
 123.9558860  37.8828530  27.8500540 123.6363630  36.4719860  27.4036910
 116.5020470  39.8434720  22.4579220 116.0977470  39.1311970  21.9625120
 116.5883590  39.4987960  23.3467260 116.9702170  43.5302280  24.6218430
 116.6730460  42.9247750  23.9426210 117.9201990  43.5679590  24.5107790
 115.2149090  36.6177930  26.2378260 115.7663680  36.7273270  25.4631510
 115.7292600  36.9915530  26.9533490 125.0587780  47.1034150  28.2841530
 124.5818340  47.9106340  28.0914140 124.3749570  46.4512480  28.4367740
 116.0620600  43.2683970  31.2726230 115.1649130  43.4923940  31.5199630
 116.0873470  43.3918910  30.3237630 123.1025820  40.1177090  17.1867490
 123.5419100  39.2799520  17.0405310 123.8154240  40.7506490  17.2731630
 114.8891820  40.1397290  29.8483600 114.7499590  41.0120090  30.2171000
 114.0073180  39.7970100  29.7031540 121.2121200  45.0573160  21.1548730
 121.6517110  45.7997490  20.7404120 121.1508090  45.2999730  22.0787690
 116.6872170  46.0818990  32.0568750 116.6587600  46.4861940  31.1897180
 116.5237140  45.1529350  31.8940350 113.2025100  38.7379700  19.9585870
 113.0822700  39.4641790  19.3467140 112.8925990  37.9682610  19.4813780
 110.8410470  41.9094840  25.7654510 110.9190890  42.0443610  24.8210230
 111.4552150  41.2010730  25.9582630 112.0858100  43.6095030  22.1760690
 111.6786180  43.7509620  21.3214290 112.9771110  43.3255190  21.9731900
 121.9036980  47.7586940  29.0827740 122.4181650  47.6694950  29.8850170
 121.0606060  48.1046640  29.3755650 123.8791380  48.0442280  18.5111740
 123.7192520  47.7545220  19.4093570 123.7138090  47.2682410  17.9756970
 116.3579760  47.8240810  20.2883360 116.1822240  46.9076350  20.0751160
 115.5035500  48.1828100  20.5281160 123.5817510  45.5529840  17.0709740
 122.8882670  45.5507130  16.4112020 124.3240370  45.1289160  16.6403910
 123.1467440  47.1792550  21.1458230 123.6024390  46.3981930  21.4596850
 123.4859960  47.8899370  21.6899410 110.8969990  42.9509010  28.3048970
 111.0601030  42.4814370  27.4868340 111.3622440  42.4432570  28.9697810
 115.6688760  32.0814770  23.3409540 115.2256910  32.8624310  23.0094060
 116.2273750  32.4044660  24.0480480 119.9558570  34.9483290  28.9444860
 119.4937940  35.1566310  29.7564800 119.5536680  34.1342640  28.6415530
 124.9563080  36.1692240  30.0741520 124.1056670  35.8697990  30.3950590
 124.7964870  36.4134250  29.1625340 122.0512790  37.6693990  32.1740310
 122.3766200  36.8357740  31.8342540 122.8393120  38.1922510  32.3218640
 118.7847580  31.7025470  18.2215370 118.1601760  31.6985340  18.9468680
 118.6977700  30.8356430  17.8251340 117.7064660  32.6262100  25.1999140
 118.0036990  33.5324930  25.1191160 118.2550220  32.1380880  24.5858710
 115.4602980  37.2048340  21.0690790 115.2343900  36.9885510  21.9737410
 114.6795510  37.6376800  20.7236760 122.6900740  37.2111710  19.6681440
 122.0909630  37.9347510  19.4845060 123.2380350  37.1488490  18.8857890
 117.9002190  38.1033920  31.7351060 117.8045790  37.1628650  31.5851460
 118.7434170  38.3248990  31.3399130 121.2965610  35.8475250  21.6984720
 121.6895180  36.1647450  20.8853410 121.6582460  34.9687130  21.8129240
 113.0312730  34.5147590  29.8884840 112.6376120  35.3622800  30.0957620
 112.3431130  33.8773960  30.0793480 119.6057780  34.5982560  32.9581580
 118.9156100  34.4054760  33.5927670 120.3490080  34.8817200  33.4905880
 110.3329780  32.4376050  23.9214920 110.0442830  33.0078910  24.6339900
 111.0775540  31.9580500  24.2846150 110.5200010  36.3796170  15.1317640
 110.4374680  37.3226930  15.2732630 110.1683070  36.2371080  14.2529990
 121.8820750  38.4381000  25.7935500 121.1501870  38.9467810  26.1425600
 121.4845090  37.6210980  25.4924280 118.3198140  35.1135200  24.1987990
 118.3234200  34.6725150  23.3492530 119.2149260  35.4352530  24.3059810
 114.1700520  34.9961690  23.1582200 113.8300570  35.4736920  23.9149250
 113.4077840  34.5426810  22.7983300 118.3818290  36.1147280  17.1894750
 118.5031110  36.0733760  18.1380570 117.9966800  36.9771430  17.0341480
 122.3446660  33.8914680  25.2058440 122.3619400  34.3423330  26.0500290
 122.0962240  32.9920320  25.4191880 117.3939790  38.4248420  16.5878050
 116.8256690  37.9766670  15.9613960 118.1028790  38.7841200  16.0543200
 112.4708970  42.3260440  30.4644780 112.0863760  41.6854110  31.0627740
 112.7821160  43.0296560  31.0339510 118.6206110  39.1736980  25.9453400
 118.9876240  38.6995550  26.6914740 118.4311170  40.0478550  26.2861740
 111.4846600  33.9180670  22.0746870 111.1993520  33.5536340  22.9125490
 111.4225460  33.1861130  21.4610010 116.4105480  38.2145620  28.2637610
 116.1062550  39.0937600  28.4887970 117.3651940  38.2745410  28.2995050
 114.9387270  42.4206610  18.8604460 114.1649530  41.8804230  18.7003180
 115.6681900  41.9013220  18.5222220 121.1585190  32.8109930  18.7960240
 120.3449800  32.3123100  18.7205550 120.9647140  33.6508180  18.3796590
 121.0794050  41.4881030  30.5399850 121.0131360  40.5676700  30.2857440
 120.4499190  41.5856470  31.2544490 123.8733580  37.1829580  17.0922400
 124.7613200  37.4946810  16.9173740 123.8438670  36.3101830  16.7002980
 114.9824670  42.0886990  22.4983270 115.5003340  41.2855250  22.4440160
 114.5308690  42.0266130  23.3400100 119.8694170  43.3553270  17.7710570
 120.2109870  44.0995500  17.2753890 119.0406880  43.6684390  18.1335400
 112.4669210  39.0548360  29.4108970 112.1084150  39.7202210  29.9982310
 112.1723770  38.2231910  29.7821590 115.6682330  39.5132600  32.2948520
 115.3682470  39.6589780  31.3976340 116.4393570  38.9537890  32.2021910
 121.0110780  44.3101600  30.2903650 121.0255320  43.3782560  30.0722560
 120.3035880  44.3961360  30.9293420 122.7521580  42.6769110  23.1356080
 123.1045400  42.0797240  22.4757450 121.8683910  42.3513340  23.3064330
 118.8384860  43.4366800  20.5426490 119.5255990  43.9836010  20.9234080
 118.0517280  43.9807530  20.5776100 110.9777260  39.0539620  16.0343570
 111.8472110  39.3364420  16.3179490 110.4867580  39.8675490  15.9192380
 118.1412070  40.4412830  20.1551850 118.5974850  41.2518080  20.3812040
 117.7900280  40.1235970  20.9870340 120.4444680  45.9519170  27.3844150
 121.0886900  46.1578550  28.0617570 120.8074120  45.1907570  26.9315000
 114.0423850  30.7850480  20.6274370 113.9138480  30.7768380  21.5759290
 113.2185870  31.1233570  20.2765380 121.7176760  43.9551520  26.1021600
 122.3598990  43.2544680  26.2153770 122.2426110  44.7349960  25.9218490
 123.4914380  44.7546420  29.3057660 123.8270620  45.3413110  29.9835580
 122.5714720  44.6239130  29.5355450 111.3448510  48.2667000  16.6005200
 111.7046150  48.8656340  15.9462470 111.2040850  48.8126890  17.3740230
 111.0417780  32.5441600  30.0881070 110.3276300  32.7438520  30.6933680
 111.4612820  31.7681170  30.4595870 111.3290370  46.5321860  31.0747600
 111.4381490  45.5916600  30.9342990 110.6770930  46.7976610  30.4261330
 119.3202960  44.8037750  32.4745720 118.9999830  44.0846990  33.0191410
 118.6461320  45.4792820  32.5481780 117.3617130  45.6498200  17.4178870
 117.3527230  46.3827890  16.8023380 116.4415490  45.4029780  17.5105830
 112.9623770  40.8713090  18.1625630 112.3551720  41.6111990  18.1720930
 113.4373120  40.9612450  17.3363830 122.5356560  35.0363910  27.8382520
 122.9037380  34.2159120  28.1662090 121.6754760  35.0965800  28.2538170
 120.3476730  45.7126440  16.0804060 120.4488710  45.5090430  15.1506040
 119.4478470  45.4584720  16.2851840 117.8702620  36.2706800  20.0627960
 117.1618770  36.7393140  20.5041570 118.1547100  35.6128810  20.6973150
 119.4958550  37.6903500  28.0620490 119.9943800  38.1649320  28.7272340
 119.6381500  36.7667020  28.2690520 121.9018050  32.9957460  21.5023750
 121.7785830  33.0143590  20.5533260 122.8502610  33.0436400  21.6222150
 118.9894840  48.2312760  20.7751730 119.2436340  48.1934150  19.8531100
 118.0407320  48.1046090  20.7679980 116.0737640  34.5791880  17.4378670
 116.9228170  35.0162030  17.3718860 115.7068910  34.8912140  18.2650730
 124.9947420  39.1504640  22.3510240 124.0537560  39.1654870  22.5257930
 125.3091490  38.3640600  22.7970540 114.9729060  40.8324240  15.9114200
 115.7392330  40.7205600  16.4739630 115.0503750  40.1362210  15.2590970
 113.6675820  38.2649310  16.5947090 113.7479410  37.3176820  16.7064490
 114.5595570  38.5956190  16.7007750 114.4690530  48.4144700  23.6981630
 115.2053010  47.8660160  23.9690200 114.8531450  49.2800710  23.5587620
 111.3536010  44.4818270  19.5723140 110.4275790  44.7239410  19.5628550
 111.8192440  45.3092530  19.4507890 113.4748810  47.5990770  32.8867210
 114.2761540  47.9202820  33.3002610 112.9600630  47.2386350  33.6087120
 117.5792840  47.5875010  15.5207200 118.3721450  47.8763840  15.0688990
 117.0597190  47.1567180  14.8419680 122.3113440  43.7070640  32.8342620
 121.7051600  43.7302240  32.0938370 122.0067550  42.9753680  33.3709870
 123.7413810  47.4350930  31.4452030 124.6935560  47.3508950  31.3952270
 123.5942030  48.0992640  32.1185820 111.1946620  40.0864230  31.8303260
 111.6985640  39.5071510  32.4019490 110.4554040  40.3704460  32.3679630
 118.0970240  42.8078420  15.3849550 117.9920880  42.1930770  16.1110930
 117.9294460  42.2844310  14.6012560 118.2484560  41.4935220  31.3638780
 117.4830230  42.0620220  31.2793450 118.4300520  41.2011430  30.4707010
 121.3372970  41.8698450  15.9891540 120.7883070  42.3167750  16.6334280
 121.9592230  41.3647700  16.5129210 113.2269700  38.2293820  32.7253330
 113.2675040  37.9307690  33.6338560 114.0815200  38.6301430  32.5660850
 117.0048090  40.8289370  17.8856840 117.4264510  40.6629240  18.7288230
 117.1298930  40.0189600  17.3911980 115.1675510  36.8085920  30.6927820
 114.6371970  36.3176870  30.0651160 115.8363580  37.2370120  30.1585750
 119.5175730  39.8526980  15.1333940 120.0381390  39.1376000  14.7675090
 120.1644130  40.4912850  15.4334450 124.0653570  41.2755380  30.4569010
 124.4794590  41.4300460  31.3059430 123.1304570  41.4010600  30.6194790
 124.5375740  38.6151540  32.4608160 125.1196510  37.8603860  32.3728640
 124.7137510  39.1458980  31.6839640 115.6547810  33.7748290  30.7725110
 115.5604680  33.1569040  30.0475980 115.0745200  34.5014580  30.5455020
 118.4209250  32.3321530  27.8052500 117.9726550  32.3545790  26.9598050
 117.7874450  31.9340550  28.4022800 118.8268800  41.2275860  28.4264940
 119.2456910  42.0708590  28.2541180 117.9077430  41.3647900  28.1971720
 121.1632700  38.9592040  29.8102780 121.2828910  38.3633180  30.5497620
 122.0226700  38.9961730  29.3904080 123.5020600  39.5129230  28.3865290
 122.9755820  40.0371850  27.7830430 123.8451940  40.1456620  29.0175020
 115.9006990  36.9022600  14.8315000 115.6996050  36.0389960  15.1928340
 115.7299040  36.8155960  13.8936600 116.6776220  47.5328870  29.5422670
 116.1397310  48.2574930  29.2231370 116.9310180  47.0559210  28.7520010
 117.9301470  35.5013390  31.0678600 118.5201160  35.1929240  31.7556420
 117.1121710  35.0293140  31.2238500 122.7494900  35.1179200  31.3011620
 122.0610420  34.4560740  31.2361610 123.4700920  34.6717470  31.7460080
 123.3795300  31.7130830  17.3601880 123.6597590  30.8698730  17.7161300
 122.6061030  31.9453940  17.8740630 114.6989790  34.0023220  14.8192880
 115.0015690  34.0090650  13.9112030 115.4384380  33.6521080  15.3160540
 119.5338430  48.7680080  29.8009320 119.4597130  49.6715220  30.1081690
 118.6317270  48.4491980  29.7731390 117.9174720  32.9457840  15.8049080
 117.5696720  32.2681830  15.2251530 118.1187490  32.4847350  16.6192470
 120.0823760  47.9338590  17.4235680 120.9774550  48.2723560  17.4454440
 120.1141390  47.2118000  16.7959960 113.7219920  43.3065640  15.6522680
 114.1594790  43.8495310  16.3080260 114.2067650  42.4812590  15.6619020
 110.9365720  46.0954670  23.1042940 111.2668730  45.2275730  22.8721580
 111.3656720  46.3013190  23.9347900 115.5327640  44.4263680  20.7644910
 115.2323180  44.3028650  21.6648820 115.4265130  43.5672270  20.3560640
 111.4255930  46.9625260  25.8424570 110.9886920  47.1426060  26.6748720
 111.9933610  47.7199880  25.7006290 111.2580360  39.4745490  22.2013450
 110.6029200  39.2057130  21.5573150 112.0958310  39.3649970  21.7515430
 124.2070800  34.2686780  16.4231940 124.6255680  34.0817760  15.5828600
 123.9006860  33.4165830  16.7334870 112.2956290  39.8598060  26.7416790
 112.6629330  39.7725460  27.6212810 111.7267110  39.0964610  26.6423650
 111.8472290  36.7707150  30.6475210 110.9528340  36.7373910  30.9868920
 112.3869840  36.9693940  31.4126460 110.4718440  36.6844420  18.1438780
 109.5682520  36.9474620  17.9690440 110.9559060  36.9555590  17.3638740
 113.0145650  35.7409960  16.0533160 113.7237350  35.3193180  15.5680440
 112.2985590  35.8085190  15.4216510 112.6619810  31.7949290  15.0935810
 113.3847940  32.3358230  15.4117030 112.9344330  31.5212710  14.2177350
 112.3512000  31.0455480  24.9958430 112.9988190  30.4952860  24.5553590
 112.7713840  31.2998630  25.8174240 112.1044000  31.2011150  27.7383750
 111.7558820  31.6574970  28.5041930 111.7731700  30.3068280  27.8206180
 113.7108370  44.3730750  31.9036940 113.6678000  44.0023660  32.7851400
 113.8419380  45.3108320  32.0438760 117.4114400  45.9290340  27.5046660
 117.1705760  46.1964900  26.6177180 118.3517040  46.0996070  27.5597520
 119.6168820  32.3923030  31.2603170 119.5557710  32.9844860  32.0098580
 120.5569200  32.2848990  31.1153430 122.2543380  32.0493090  30.8995460
 122.8683790  32.3672380  30.2376540 122.7992940  31.5641680  31.5191320
 112.7764640  30.7287350  31.0134520 113.3247630  30.5475400  30.2500630
 112.8419950  29.9381460  31.5490830 113.5496400  47.3193000  29.0234720
 112.9556720  47.1877700  29.7624760 113.5420240  46.4831140  28.5576820
 122.9951420  30.6125230  27.2264750 122.1211260  30.9460340  27.0237680
 122.8862170  30.1398410  28.0516620 123.9023400  32.8196100  28.6106470
 123.5736760  32.0047860  28.2308200 124.8505700  32.7765910  28.4872160
 113.1808630  44.6851380  27.9742760 112.4542690  44.0656670  27.9068710
 113.2417780  45.0791990  27.1040840 116.7853730  46.8996380  24.7592170
 117.3018750  46.2883740  24.2340430 117.4351110  47.4025160  25.2503180
 119.5249230  47.7904870  25.5861150 119.8127040  47.5359170  24.7094160
 120.0372450  47.2382230  26.1766720 120.7426240  31.5295070  26.1657660
 119.9598030  32.0040570  26.4454420 120.4489170  30.6249900  26.0570840
 111.4638630  48.0025770  21.1839520 111.2960670  47.3696450  21.8821410
 110.5973140  48.2085170  20.8333710 112.0866650  31.8342550  18.6871380
 112.8446010  31.9471430  18.1135410 111.6243820  32.6711750  18.6414810
 118.6280460  33.9481820  21.6773690 117.8154970  33.5738710  21.3369570
 119.1322100  33.1926900  21.9794880 123.1305440  30.6124270  22.9156760
 123.7334810  31.1844480  23.3905280 122.3898430  31.1763710  22.6930660
 113.0701330  46.6959000  18.6289660 112.5448950  47.0767030  17.9251620
 112.9945910  47.3209770  19.3499370 114.4591800  32.3606600  17.2273350
 114.9884560  31.5736400  17.0981300 115.0920120  33.0397790  17.4608880
 116.6529640  32.0981740  20.2818740 116.0232380  31.3969050  20.4488870
 116.1134780  32.8585870  20.0651900 119.5921590  48.7120970  32.9529350
 120.5188900  48.4765240  32.9965310 119.5772020  49.5392970  32.4715380
 116.7785200  31.3765720  32.7171230 116.4969470  31.8799320  31.9532050
 117.1604900  30.5787470  32.3513360 115.6694300  48.6441380  17.5038910
 116.4013120  48.3600660  16.9562800 115.9287970  48.4054660  18.3938290
 114.8309090  44.7606110  17.5085240 114.2017970  45.2291210  18.0571070
 114.9456920  43.9155330  17.9431430 123.3800660  30.7919300  33.2951700
 123.2666110  31.1113910  34.1903220 124.1970400  31.1931810  32.9988980
 122.2858810  38.8111770   3.6586440 122.2052860  37.8966380   3.3878150
 121.8723230  39.3078840   2.9526150 120.4176850  40.5890790   5.5395710
 119.6418950  40.1091230   5.8294280 121.0689780  39.9096440   5.3651870
 114.4342680  40.9010600   6.4171470 113.6027560  40.6459310   6.8167980
 115.0423660  40.9721370   7.1529390 124.4384280  44.9950980   4.3194840
 123.9765810  44.2238220   4.6482010 125.2509830  45.0217050   4.8247290
 114.4143940  44.9350690   6.6129490 114.7171980  44.0448430   6.4339710
 115.1587530  45.4920910   6.3851740 110.8067640  38.4618140   6.0853560
 111.3783750  37.6940340   6.0857200 110.8069180  38.7606900   5.1760170
 120.6647590  47.2808990   3.9398830 120.0459030  47.7366490   3.3693270
 121.5199370  47.4360450   3.5388530 119.8585840  43.2647980   5.5465870
 119.7894120  42.3237920   5.3855000 120.6205700  43.3549390   6.1188440
 112.0492510  33.8702500   7.8722490 111.8695350  32.9728250   8.1525250
 111.6472590  34.4174370   8.5469440 120.8891010  36.0718360   5.7734800
 121.2655830  35.1990240   5.6608470 120.7910520  36.4077060   4.8825240
 112.6679180  36.3663000   6.4804830 113.3489290  36.6301370   7.0992230
 112.3527230  35.5263870   6.8142840 116.8603750  37.4130360   5.5677420
 117.3681970  37.9111330   6.2082440 117.3916990  36.6365560   5.3916780
 115.1439850  32.0528920   9.8340840 115.1458290  32.5701310   9.0286740
 114.3144160  31.5759100   9.8110770 116.3942700  41.6924100   8.0114340
 116.0612080  42.3193020   8.6535410 116.5709380  42.2185980   7.2316010
 124.9076610  35.5069180   5.4790680 124.2032180  35.7954070   6.0593790
 125.2688770  36.3169290   5.1190240 114.8255180  33.7638880   7.8411290
 115.1671990  34.6080930   7.5465160 113.8870990  33.9122620   7.9576630
 115.6061800  43.6604900   9.8263520 116.2235800  44.3355980   9.5447970
 114.7454920  44.0692880   9.7351020 118.5083070  31.2521150   4.1655880
 118.8158050  30.6968040   3.4491380 117.5783770  31.3865610   3.9828870
 124.0598130  46.9688440   6.4563340 124.0725290  46.5650730   5.5885600
 123.5073350  47.7435730   6.3524770 123.4583570  41.8718280   7.7845950
 123.8752360  41.6578390   6.9499410 124.1823390  42.1291070   8.3554570
 124.3687680  37.0574820   8.8217060 123.9558860  37.8828530   9.0757050
 123.6363630  36.4719860   8.6293420 116.5020470  39.8434720   3.6835730
 116.0977470  39.1311970   3.1881630 116.5883590  39.4987960   4.5723770
 116.9702170  43.5302280   5.8474940 116.6730460  42.9247750   5.1682720
 117.9201990  43.5679590   5.7364300 115.2149090  36.6177930   7.4634770
 115.7663680  36.7273270   6.6888020 115.7292600  36.9915530   8.1790000
 125.0587780  47.1034150   9.5098040 124.5818340  47.9106340   9.3170650
 124.3749570  46.4512480   9.6624250 116.0620600  43.2683970  12.4982740
 115.1649130  43.4923940  12.7456140 116.0873470  43.3918910  11.5494140
 114.8891820  40.1397290  11.0740110 114.7499590  41.0120090  11.4427510
 114.0073180  39.7970100  10.9288050 121.2121200  45.0573160   2.3805240
 121.6517110  45.7997490   1.9660630 121.1508090  45.2999730   3.3044200
 116.6872170  46.0818990  13.2825260 116.6587600  46.4861940  12.4153690
 116.5237140  45.1529350  13.1196860 110.8410470  41.9094840   6.9911020
 110.9190890  42.0443610   6.0466740 111.4552150  41.2010730   7.1839140
 112.0858100  43.6095030   3.4017200 111.6786180  43.7509620   2.5470800
 112.9771110  43.3255190   3.1988410 121.9036980  47.7586940  10.3084250
 122.4181650  47.6694950  11.1106680 121.0606060  48.1046640  10.6012160
 123.1467440  47.1792550   2.3714740 123.6024390  46.3981930   2.6853360
 123.4859960  47.8899370   2.9155920 110.8969990  42.9509010   9.5305480
 111.0601030  42.4814370   8.7124850 111.3622440  42.4432570  10.1954320
 115.6688760  32.0814770   4.5666050 115.2256910  32.8624310   4.2350570
 116.2273750  32.4044660   5.2736990 119.9558570  34.9483290  10.1701370
 119.4937940  35.1566310  10.9821310 119.5536680  34.1342640   9.8672040
 124.9563080  36.1692240  11.2998030 124.1056670  35.8697990  11.6207100
 124.7964870  36.4134250  10.3881850 122.0512790  37.6693990  13.3996820
 122.3766200  36.8357740  13.0599050 122.8393120  38.1922510  13.5475150
 117.7064660  32.6262100   6.4255650 118.0036990  33.5324930   6.3447670
 118.2550220  32.1380880   5.8115220 115.4602980  37.2048340   2.2947300
 115.2343900  36.9885510   3.1993920 114.6795510  37.6376800   1.9493270
 117.9002190  38.1033920  12.9607570 117.8045790  37.1628650  12.8107970
 118.7434170  38.3248990  12.5655640 121.2965610  35.8475250   2.9241230
 121.6895180  36.1647450   2.1109920 121.6582460  34.9687130   3.0385750
 113.0312730  34.5147590  11.1141350 112.6376120  35.3622800  11.3214130
 112.3431130  33.8773960  11.3049990 119.6057780  34.5982560  14.1838090
 118.9156100  34.4054760  14.8184180 120.3490080  34.8817200  14.7162390
 110.3329780  32.4376050   5.1471430 110.0442830  33.0078910   5.8596410
 111.0775540  31.9580500   5.5102660 121.8820750  38.4381000   7.0192010
 121.1501870  38.9467810   7.3682110 121.4845090  37.6210980   6.7180790
 118.3198140  35.1135200   5.4244500 118.3234200  34.6725150   4.5749040
 119.2149260  35.4352530   5.5316320 114.1700520  34.9961690   4.3838710
 113.8300570  35.4736920   5.1405760 113.4077840  34.5426810   4.0239810
 122.3446660  33.8914680   6.4314950 122.3619400  34.3423330   7.2756800
 122.0962240  32.9920320   6.6448390 112.4708970  42.3260440  11.6901290
 112.0863760  41.6854110  12.2884250 112.7821160  43.0296560  12.2596020
 118.6206110  39.1736980   7.1709910 118.9876240  38.6995550   7.9171250
 118.4311170  40.0478550   7.5118250 111.4846600  33.9180670   3.3003380
 111.1993520  33.5536340   4.1382000 111.4225460  33.1861130   2.6866520
 116.4105480  38.2145620   9.4894120 116.1062550  39.0937600   9.7144480
 117.3651940  38.2745410   9.5251560 121.0794050  41.4881030  11.7656360
 121.0131360  40.5676700  11.5113950 120.4499190  41.5856470  12.4801000
 114.9824670  42.0886990   3.7239780 115.5003340  41.2855250   3.6696670
 114.5308690  42.0266130   4.5656610 112.4669210  39.0548360  10.6365480
 112.1084150  39.7202210  11.2238820 112.1723770  38.2231910  11.0078100
 115.6682330  39.5132600  13.5205030 115.3682470  39.6589780  12.6232850
 116.4393570  38.9537890  13.4278420 121.0110780  44.3101600  11.5160160
 121.0255320  43.3782560  11.2979070 120.3035880  44.3961360  12.1549930
 122.7521580  42.6769110   4.3612590 123.1045400  42.0797240   3.7013960
 121.8683910  42.3513340   4.5320840 118.8384860  43.4366800   1.7683000
 119.5255990  43.9836010   2.1490590 118.0517280  43.9807530   1.8032610
 120.4444680  45.9519170   8.6100660 121.0886900  46.1578550   9.2874080
 120.8074120  45.1907570   8.1571510 121.7176760  43.9551520   7.3278110
 122.3598990  43.2544680   7.4410280 122.2426110  44.7349960   7.1475000
 123.4914380  44.7546420  10.5314170 123.8270620  45.3413110  11.2092090
 122.5714720  44.6239130  10.7611960 111.0417780  32.5441600  11.3137580
 110.3276300  32.7438520  11.9190190 111.4612820  31.7681170  11.6852380
 111.3290370  46.5321860  12.3004110 111.4381490  45.5916600  12.1599500
 110.6770930  46.7976610  11.6517840 119.3202960  44.8037750  13.7002230
 118.9999830  44.0846990  14.2447920 118.6461320  45.4792820  13.7738290
 122.5356560  35.0363910   9.0639030 122.9037380  34.2159120   9.3918600
 121.6754760  35.0965800   9.4794680 119.4958550  37.6903500   9.2877000
 119.9943800  38.1649320   9.9528850 119.6381500  36.7667020   9.4947030
 121.9018050  32.9957460   2.7280260 121.7785830  33.0143590   1.7789770
 122.8502610  33.0436400   2.8478660 124.9947420  39.1504640   3.5766750
 124.0537560  39.1654870   3.7514440 125.3091490  38.3640600   4.0227050
 114.4690530  48.4144700   4.9238140 115.2053010  47.8660160   5.1946710
 114.8531450  49.2800710   4.7844130 113.4748810  47.5990770  14.1123720
 114.2761540  47.9202820  14.5259120 112.9600630  47.2386350  14.8343630
 122.3113440  43.7070640  14.0599130 121.7051600  43.7302240  13.3194880
 122.0067550  42.9753680  14.5966380 123.7413810  47.4350930  12.6708540
 124.6935560  47.3508950  12.6208780 123.5942030  48.0992640  13.3442330
 111.1946620  40.0864230  13.0559770 111.6985640  39.5071510  13.6276000
 110.4554040  40.3704460  13.5936140 118.2484560  41.4935220  12.5895290
 117.4830230  42.0620220  12.5049960 118.4300520  41.2011430  11.6963520
 113.2269700  38.2293820  13.9509840 113.2675040  37.9307690  14.8595070
 114.0815200  38.6301430  13.7917360 115.1675510  36.8085920  11.9184330
 114.6371970  36.3176870  11.2907670 115.8363580  37.2370120  11.3842260
 124.0653570  41.2755380  11.6825520 124.4794590  41.4300460  12.5315940
 123.1304570  41.4010600  11.8451300 124.5375740  38.6151540  13.6864670
 125.1196510  37.8603860  13.5985150 124.7137510  39.1458980  12.9096150
 115.6547810  33.7748290  11.9981620 115.5604680  33.1569040  11.2732490
 115.0745200  34.5014580  11.7711530 118.4209250  32.3321530   9.0309010
 117.9726550  32.3545790   8.1854560 117.7874450  31.9340550   9.6279310
 118.8268800  41.2275860   9.6521450 119.2456910  42.0708590   9.4797690
 117.9077430  41.3647900   9.4228230 121.1632700  38.9592040  11.0359290
 121.2828910  38.3633180  11.7754130 122.0226700  38.9961730  10.6160590
 123.5020600  39.5129230   9.6121800 122.9755820  40.0371850   9.0086940
 123.8451940  40.1456620  10.2431530 116.6776220  47.5328870  10.7679180
 116.1397310  48.2574930  10.4487880 116.9310180  47.0559210   9.9776520
 117.9301470  35.5013390  12.2935110 118.5201160  35.1929240  12.9812930
 117.1121710  35.0293140  12.4495010 122.7494900  35.1179200  12.5268130
 122.0610420  34.4560740  12.4618120 123.4700920  34.6717470  12.9716590
 119.5338430  48.7680080  11.0265830 119.4597130  49.6715220  11.3338200
 118.6317270  48.4491980  10.9987900 110.9365720  46.0954670   4.3299450
 111.2668730  45.2275730   4.0978090 111.3656720  46.3013190   5.1604410
 111.4255930  46.9625260   7.0681080 110.9886920  47.1426060   7.9005230
 111.9933610  47.7199880   6.9262800 111.2580360  39.4745490   3.4269960
 110.6029200  39.2057130   2.7829660 112.0958310  39.3649970   2.9771940
 112.2956290  39.8598060   7.9673300 112.6629330  39.7725460   8.8469320
 111.7267110  39.0964610   7.8680160 111.8472290  36.7707150  11.8731720
 110.9528340  36.7373910  12.2125430 112.3869840  36.9693940  12.6382970
 112.3512000  31.0455480   6.2214940 112.9988190  30.4952860   5.7810100
 112.7713840  31.2998630   7.0430750 112.1044000  31.2011150   8.9640260
 111.7558820  31.6574970   9.7298440 111.7731700  30.3068280   9.0462690
 113.7108370  44.3730750  13.1293450 113.6678000  44.0023660  14.0107910
 113.8419380  45.3108320  13.2695270 117.4114400  45.9290340   8.7303170
 117.1705760  46.1964900   7.8433690 118.3517040  46.0996070   8.7854030
 119.6168820  32.3923030  12.4859680 119.5557710  32.9844860  13.2355090
 120.5569200  32.2848990  12.3409940 122.2543380  32.0493090  12.1251970
 122.8683790  32.3672380  11.4633050 122.7992940  31.5641680  12.7447830
 112.7764640  30.7287350  12.2391030 113.3247630  30.5475400  11.4757140
 112.8419950  29.9381460  12.7747340 113.5496400  47.3193000  10.2491230
 112.9556720  47.1877700  10.9881270 113.5420240  46.4831140   9.7833330
 122.9951420  30.6125230   8.4521260 122.1211260  30.9460340   8.2494190
 122.8862170  30.1398410   9.2773130 123.9023400  32.8196100   9.8362980
 123.5736760  32.0047860   9.4564710 124.8505700  32.7765910   9.7128670
 113.1808630  44.6851380   9.1999270 112.4542690  44.0656670   9.1325220
 113.2417780  45.0791990   8.3297350 116.7853730  46.8996380   5.9848680
 117.3018750  46.2883740   5.4596940 117.4351110  47.4025160   6.4759690
 119.5249230  47.7904870   6.8117660 119.8127040  47.5359170   5.9350670
 120.0372450  47.2382230   7.4023230 120.7426240  31.5295070   7.3914170
 119.9598030  32.0040570   7.6710930 120.4489170  30.6249900   7.2827350
 111.4638630  48.0025770   2.4096030 111.2960670  47.3696450   3.1077920
 110.5973140  48.2085170   2.0590220 118.6280460  33.9481820   2.9030200
 117.8154970  33.5738710   2.5626080 119.1322100  33.1926900   3.2051390
 123.1305440  30.6124270   4.1413270 123.7334810  31.1844480   4.6161790
 122.3898430  31.1763710   3.9187170 119.5921590  48.7120970  14.1785860
 120.5188900  48.4765240  14.2221820 119.5772020  49.5392970  13.6971890
 116.7785200  31.3765720  13.9427740 116.4969470  31.8799320  13.1788560
 117.1604900  30.5787470  13.5769870 123.3800660  30.7919300  14.5208210
 123.2666110  31.1113910  15.4159730 124.1970400  31.1931810  14.2245490
 122.2858810  20.0368280  97.5303890 122.2052860  19.1222890  97.2595600
 121.8723230  20.5335350  96.8243600 120.4176850  21.8147300  99.4113160
 119.6418950  21.3347740  99.7011730 121.0689780  21.1352950  99.2369320
 114.4342680  22.1267110 100.2888920 113.6027560  21.8715820 100.6885430
 115.0423660  22.1977880 101.0246840 124.4384280  26.2207490  98.1912290
 123.9765810  25.4494730  98.5199460 125.2509830  26.2473560  98.6964740
 114.4143940  26.1607200 100.4846940 114.7171980  25.2704940 100.3057160
 115.1587530  26.7177420 100.2569190 112.8434630  17.0869000  94.0731310
 111.9551330  17.4284970  93.9711190 113.1275820  16.8869320  93.1812140
 110.8067640  19.6874650  99.9571010 111.3783750  18.9196850  99.9574650
 110.8069180  19.9863410  99.0477620 120.6647590  28.5065500  97.8116280
 120.0459030  28.9623000  97.2410720 121.5199370  28.6616960  97.4105980
 119.8585840  24.4904490  99.4183320 119.7894120  23.5494430  99.2572450
 120.6205700  24.5805900  99.9905890 112.0492510  15.0959010 101.7439940
 111.8695350  14.1984760 102.0242700 111.6472590  15.6430880 102.4186890
 120.8891010  17.2974870  99.6452250 121.2655830  16.4246750  99.5325920
 120.7910520  17.6333570  98.7542690 115.0196020  15.6700500  95.1069690
 115.1262770  16.5704230  95.4138450 114.1088380  15.6218470  94.8164340
 112.6679180  17.5919510 100.3522280 113.3489290  17.8557880 100.9709680
 112.3527230  16.7520380 100.6860290 116.8603750  18.6386870  99.4394870
 117.3681970  19.1367840 100.0799890 117.3916990  17.8622070  99.2634230
 121.5310940  23.3904740  95.2048190 120.9128210  23.8554190  94.6410910
 122.0434190  24.0832220  95.6217700 116.3942700  22.9180610 101.8831790
 116.0612080  23.5449530 102.5252860 116.5709380  23.4442490 101.1033460
 124.9076610  16.7325690  99.3508130 124.2032180  17.0210580  99.9311240
 125.2688770  17.5425800  98.9907690 114.8255180  14.9895390 101.7128740
 115.1671990  15.8337440 101.4182610 113.8870990  15.1379130 101.8294080
 110.8994140  24.0761270  92.5787820 110.5222120  24.5648370  91.8472720
 111.1567210  24.7486550  93.2094350 118.5083070  12.4777660  98.0373330
 118.8158050  11.9224550  97.3208830 117.5783770  12.6122120  97.8546320
 124.0598130  28.1944950 100.3280790 124.0725290  27.7907240  99.4603050
 123.5073350  28.9692240 100.2242220 123.4583570  23.0974790 101.6563400
 123.8752360  22.8834900 100.8216860 124.1823390  23.3547580 102.2272020
 120.8963830  20.5426490  94.7733450 119.9693110  20.4763870  95.0021920
 121.0488650  21.4806620  94.6588690 120.8832910  16.8143490  91.7700610
 119.9436580  16.9757450  91.8553070 121.2016170  17.5329170  91.2236600
 124.9261120  22.1046790  95.2768700 124.3073540  21.7666340  94.6295000
 124.9085570  21.4606550  95.9847890 116.5020470  21.0691230  97.5553180
 116.0977470  20.3568480  97.0599080 116.5883590  20.7244470  98.4441220
 116.9702170  24.7558790  99.7192390 116.6730460  24.1504260  99.0400170
 117.9201990  24.7936100  99.6081750 115.2149090  17.8434440 101.3352220
 115.7663680  17.9529780 100.5605470 115.7292600  18.2172040 102.0507450
 123.1025820  21.3433600  92.2841450 123.5419100  20.5056030  92.1379270
 123.8154240  21.9763000  92.3705590 121.2121200  26.2829670  96.2522690
 121.6517110  27.0254000  95.8378080 121.1508090  26.5256240  97.1761650
 113.2025100  19.9636210  95.0559830 113.0822700  20.6898300  94.4441100
 112.8925990  19.1939120  94.5787740 110.8410470  23.1351350 100.8628470
 110.9190890  23.2700120  99.9184190 111.4552150  22.4267240 101.0556590
 112.0858100  24.8351540  97.2734650 111.6786180  24.9766130  96.4188250
 112.9771110  24.5511700  97.0705860 123.8791380  29.2698790  93.6085700
 123.7192520  28.9801730  94.5067530 123.7138090  28.4938920  93.0730930
 116.3579760  29.0497320  95.3857320 116.1822240  28.1332860  95.1725120
 115.5035500  29.4084610  95.6255120 123.5817510  26.7786350  92.1683700
 122.8882670  26.7763640  91.5085980 124.3240370  26.3545670  91.7377870
 123.1467440  28.4049060  96.2432190 123.6024390  27.6238440  96.5570810
 123.4859960  29.1155880  96.7873370 115.6688760  13.3071280  98.4383500
 115.2256910  14.0880820  98.1068020 116.2273750  13.6301170  99.1454440
 118.7847580  12.9281980  93.3189330 118.1601760  12.9241850  94.0442640
 118.6977700  12.0612940  92.9225300 117.7064660  13.8518610 100.2973100
 118.0036990  14.7581440 100.2165120 118.2550220  13.3637390  99.6832670
 115.4602980  18.4304850  96.1664750 115.2343900  18.2142020  97.0711370
 114.6795510  18.8633310  95.8210720 122.6900740  18.4368220  94.7655400
 122.0909630  19.1604020  94.5819020 123.2380350  18.3745000  93.9831850
 121.2965610  17.0731760  96.7958680 121.6895180  17.3903960  95.9827370
 121.6582460  16.1943640  96.9103200 110.3329780  13.6632560  99.0188880
 110.0442830  14.2335420  99.7313860 111.0775540  13.1837010  99.3820110
 110.5200010  17.6052680  90.2291600 110.4374680  18.5483440  90.3706590
 110.1683070  17.4627590  89.3503950 121.8820750  19.6637510 100.8909460
 121.1501870  20.1724320 101.2399560 121.4845090  18.8467490 100.5898240
 118.3198140  16.3391710  99.2961950 118.3234200  15.8981660  98.4466490
 119.2149260  16.6609040  99.4033770 114.1700520  16.2218200  98.2556160
 113.8300570  16.6993430  99.0123210 113.4077840  15.7683320  97.8957260
 118.3818290  17.3403790  92.2868710 118.5031110  17.2990270  93.2354530
 117.9966800  18.2027940  92.1315440 122.3446660  15.1171190 100.3032400
 122.3619400  15.5679840 101.1474250 122.0962240  14.2176830 100.5165840
 117.3939790  19.6504930  91.6852010 116.8256690  19.2023180  91.0587920
 118.1028790  20.0097710  91.1517160 118.6206110  20.3993490 101.0427360
 118.9876240  19.9252060 101.7888700 118.4311170  21.2735060 101.3835700
 111.4846600  15.1437180  97.1720830 111.1993520  14.7792850  98.0099450
 111.4225460  14.4117640  96.5583970 114.9387270  23.6463120  93.9578420
 114.1649530  23.1060740  93.7977140 115.6681900  23.1269730  93.6196180
 121.1585190  14.0366440  93.8934200 120.3449800  13.5379610  93.8179510
 120.9647140  14.8764690  93.4770550 123.8733580  18.4086090  92.1896360
 124.7613200  18.7203320  92.0147700 123.8438670  17.5358340  91.7976940
 114.9824670  23.3143500  97.5957230 115.5003340  22.5111760  97.5414120
 114.5308690  23.2522640  98.4374060 119.8694170  24.5809780  92.8684530
 120.2109870  25.3252010  92.3727850 119.0406880  24.8940900  93.2309360
 122.7521580  23.9025620  98.2330040 123.1045400  23.3053750  97.5731410
 121.8683910  23.5769850  98.4038290 118.8384860  24.6623310  95.6400450
 119.5255990  25.2092520  96.0208040 118.0517280  25.2064040  95.6750060
 110.9777260  20.2796130  91.1317530 111.8472110  20.5620930  91.4153450
 110.4867580  21.0932000  91.0166340 118.1412070  21.6669340  95.2525810
 118.5974850  22.4774590  95.4786000 117.7900280  21.3492480  96.0844300
 114.0423850  12.0106990  95.7248330 113.9138480  12.0024890  96.6733250
 113.2185870  12.3490080  95.3739340 121.7176760  25.1808030 101.1995560
 122.3598990  24.4801190 101.3127730 122.2426110  25.9606470 101.0192450
 111.3448510  29.4923510  91.6979160 111.7046150  30.0912850  91.0436430
 111.2040850  30.0383400  92.4714190 117.3617130  26.8754710  92.5152830
 117.3527230  27.6084400  91.8997340 116.4415490  26.6286290  92.6079790
 112.9623770  22.0969600  93.2599590 112.3551720  22.8368500  93.2694890
 113.4373120  22.1868960  92.4337790 120.3476730  26.9382950  91.1778020
 120.4488710  26.7346940  90.2480000 119.4478470  26.6841230  91.3825800
 117.8702620  17.4963310  95.1601920 117.1618770  17.9649650  95.6015530
 118.1547100  16.8385320  95.7947110 121.9018050  14.2213970  96.5997710
 121.7785830  14.2400100  95.6507220 122.8502610  14.2692910  96.7196110
 118.9894840  29.4569270  95.8725690 119.2436340  29.4190660  94.9505060
 118.0407320  29.3302600  95.8653940 116.0737640  15.8048390  92.5352630
 116.9228170  16.2418540  92.4692820 115.7068910  16.1168650  93.3624690
 124.9947420  20.3761150  97.4484200 124.0537560  20.3911380  97.6231890
 125.3091490  19.5897110  97.8944500 114.9729060  22.0580750  91.0088160
 115.7392330  21.9462110  91.5713590 115.0503750  21.3618720  90.3564930
 113.6675820  19.4905820  91.6921050 113.7479410  18.5433330  91.8038450
 114.5595570  19.8212700  91.7981710 114.4690530  29.6401210  98.7955590
 115.2053010  29.0916670  99.0664160 114.8531450  30.5057220  98.6561580
 111.3536010  25.7074780  94.6697100 110.4275790  25.9495920  94.6602510
 111.8192440  26.5349040  94.5481850 117.5792840  28.8131520  90.6181160
 118.3721450  29.1020350  90.1662950 117.0597190  28.3823690  89.9393640
 118.0970240  24.0334930  90.4823510 117.9920880  23.4187280  91.2084890
 117.9294460  23.5100820  89.6986520 121.3372970  23.0954960  91.0865500
 120.7883070  23.5424260  91.7308240 121.9592230  22.5904210  91.6103170
 117.0048090  22.0545880  92.9830800 117.4264510  21.8885750  93.8262190
 117.1298930  21.2446110  92.4885940 119.5175730  21.0783490  90.2307900
 120.0381390  20.3632510  89.8649050 120.1644130  21.7169360  90.5308410
 115.9006990  18.1279110  89.9288960 115.6996050  17.2646470  90.2902300
 115.7299040  18.0412470  88.9910560 123.3795300  12.9387340  92.4575840
 123.6597590  12.0955240  92.8135260 122.6061030  13.1710450  92.9714590
 114.6989790  15.2279730  89.9166840 115.0015690  15.2347160  89.0085990
 115.4384380  14.8777590  90.4134500 117.9174720  14.1714350  90.9023040
 117.5696720  13.4938340  90.3225490 118.1187490  13.7103860  91.7166430
 120.0823760  29.1595100  92.5209640 120.9774550  29.4980070  92.5428400
 120.1141390  28.4374510  91.8933920 113.7219920  24.5322150  90.7496640
 114.1594790  25.0751820  91.4054220 114.2067650  23.7069100  90.7592980
 110.9365720  27.3211180  98.2016900 111.2668730  26.4532240  97.9695540
 111.3656720  27.5269700  99.0321860 115.5327640  25.6520190  95.8618870
 115.2323180  25.5285160  96.7622780 115.4265130  24.7928780  95.4534600
 111.4255930  28.1881770 100.9398530 110.9886920  28.3682570 101.7722680
 111.9933610  28.9456390 100.7980250 111.2580360  20.7002000  97.2987410
 110.6029200  20.4313640  96.6547110 112.0958310  20.5906480  96.8489390
 124.2070800  15.4943290  91.5205900 124.6255680  15.3074270  90.6802560
 123.9006860  14.6422340  91.8308830 112.2956290  21.0854570 101.8390750
 112.6629330  20.9981970 102.7186770 111.7267110  20.3221120 101.7397610
 110.4718440  17.9100930  93.2412740 109.5682520  18.1731130  93.0664400
 110.9559060  18.1812100  92.4612700 113.0145650  16.9666470  91.1507120
 113.7237350  16.5449690  90.6654400 112.2985590  17.0341700  90.5190470
 112.6619810  13.0205800  90.1909770 113.3847940  13.5614740  90.5090990
 112.9344330  12.7469220  89.3151310 112.3512000  12.2711990 100.0932390
 112.9988190  11.7209370  99.6527550 112.7713840  12.5255140 100.9148200
 117.4114400  27.1546850 102.6020620 117.1705760  27.4221410 101.7151140
 118.3517040  27.3252580 102.6571480 116.7853730  28.1252890  99.8566130
 117.3018750  27.5140250  99.3314390 117.4351110  28.6281670 100.3477140
 119.5249230  29.0161380 100.6835110 119.8127040  28.7615680  99.8068120
 120.0372450  28.4638740 101.2740680 120.7426240  12.7551580 101.2631620
 119.9598030  13.2297080 101.5428380 120.4489170  11.8506410 101.1544800
 111.4638630  29.2282280  96.2813480 111.2960670  28.5952960  96.9795370
 110.5973140  29.4341680  95.9307670 112.0866650  13.0599060  93.7845340
 112.8446010  13.1727940  93.2109370 111.6243820  13.8968260  93.7388770
 118.6280460  15.1738330  96.7747650 117.8154970  14.7995220  96.4343530
 119.1322100  14.4183410  97.0768840 123.1305440  11.8380780  98.0130720
 123.7334810  12.4100990  98.4879240 122.3898430  12.4020220  97.7904620
 113.0701330  27.9215510  93.7263620 112.5448950  28.3023540  93.0225580
 112.9945910  28.5466280  94.4473330 114.4591800  13.5863110  92.3247310
 114.9884560  12.7992910  92.1955260 115.0920120  14.2654300  92.5582840
 116.6529640  13.3238250  95.3792700 116.0232380  12.6225560  95.5462830
 116.1134780  14.0842380  95.1625860 115.6694300  29.8697890  92.6012870
 116.4013120  29.5857170  92.0536760 115.9287970  29.6311170  93.4912250
 114.8309090  25.9862620  92.6059200 114.2017970  26.4547720  93.1545030
 114.9456920  25.1411840  93.0405390 122.2858810  20.0368280  78.7560400
 122.2052860  19.1222890  78.4852110 121.8723230  20.5335350  78.0500110
 120.4176850  21.8147300  80.6369670 119.6418950  21.3347740  80.9268240
 121.0689780  21.1352950  80.4625830 114.4342680  22.1267110  81.5145430
 113.6027560  21.8715820  81.9141940 115.0423660  22.1977880  82.2503350
 124.4384280  26.2207490  79.4168800 123.9765810  25.4494730  79.7455970
 125.2509830  26.2473560  79.9221250 114.4143940  26.1607200  81.7103450
 114.7171980  25.2704940  81.5313670 115.1587530  26.7177420  81.4825700
 112.8434630  17.0869000  75.2987820 111.9551330  17.4284970  75.1967700
 113.1275820  16.8869320  74.4068650 110.8067640  19.6874650  81.1827520
 111.3783750  18.9196850  81.1831160 110.8069180  19.9863410  80.2734130
 120.6647590  28.5065500  79.0372790 120.0459030  28.9623000  78.4667230
 121.5199370  28.6616960  78.6362490 119.8585840  24.4904490  80.6439830
 119.7894120  23.5494430  80.4828960 120.6205700  24.5805900  81.2162400
 112.0492510  15.0959010  82.9696450 111.8695350  14.1984760  83.2499210
 111.6472590  15.6430880  83.6443400 120.8891010  17.2974870  80.8708760
 121.2655830  16.4246750  80.7582430 120.7910520  17.6333570  79.9799200
 115.0196020  15.6700500  76.3326200 115.1262770  16.5704230  76.6394960
 114.1088380  15.6218470  76.0420850 112.6679180  17.5919510  81.5778790
 113.3489290  17.8557880  82.1966190 112.3527230  16.7520380  81.9116800
 116.8603750  18.6386870  80.6651380 117.3681970  19.1367840  81.3056400
 117.3916990  17.8622070  80.4890740 115.1439850  13.2785430  84.9314800
 115.1458290  13.7957820  84.1260700 114.3144160  12.8015610  84.9084730
 121.5310940  23.3904740  76.4304700 120.9128210  23.8554190  75.8667420
 122.0434190  24.0832220  76.8474210 116.3942700  22.9180610  83.1088300
 116.0612080  23.5449530  83.7509370 116.5709380  23.4442490  82.3289970
 124.9076610  16.7325690  80.5764640 124.2032180  17.0210580  81.1567750
 125.2688770  17.5425800  80.2164200 114.8255180  14.9895390  82.9385250
 115.1671990  15.8337440  82.6439120 113.8870990  15.1379130  83.0550590
 115.6061800  24.8861410  84.9237480 116.2235800  25.5612490  84.6421930
 114.7454920  25.2949390  84.8324980 110.8994140  24.0761270  73.8044330
 110.5222120  24.5648370  73.0729230 111.1567210  24.7486550  74.4350860
 118.5083070  12.4777660  79.2629840 118.8158050  11.9224550  78.5465340
 117.5783770  12.6122120  79.0802830 124.0598130  28.1944950  81.5537300
 124.0725290  27.7907240  80.6859560 123.5073350  28.9692240  81.4498730
 123.4583570  23.0974790  82.8819910 123.8752360  22.8834900  82.0473370
 124.1823390  23.3547580  83.4528530 120.8963830  20.5426490  75.9989960
 119.9693110  20.4763870  76.2278430 121.0488650  21.4806620  75.8845200
 120.8832910  16.8143490  72.9957120 119.9436580  16.9757450  73.0809580
 121.2016170  17.5329170  72.4493110 124.9261120  22.1046790  76.5025210
 124.3073540  21.7666340  75.8551510 124.9085570  21.4606550  77.2104400
 124.3687680  18.2831330  83.9191020 123.9558860  19.1085040  84.1731010
 123.6363630  17.6976370  83.7267380 116.5020470  21.0691230  78.7809690
 116.0977470  20.3568480  78.2855590 116.5883590  20.7244470  79.6697730
 116.9702170  24.7558790  80.9448900 116.6730460  24.1504260  80.2656680
 117.9201990  24.7936100  80.8338260 115.2149090  17.8434440  82.5608730
 115.7663680  17.9529780  81.7861980 115.7292600  18.2172040  83.2763960
 125.0587780  28.3290660  84.6072000 124.5818340  29.1362850  84.4144610
 124.3749570  27.6768990  84.7598210 116.0620600  24.4940480  87.5956700
 115.1649130  24.7180450  87.8430100 116.0873470  24.6175420  86.6468100
 123.1025820  21.3433600  73.5097960 123.5419100  20.5056030  73.3635780
 123.8154240  21.9763000  73.5962100 114.8891820  21.3653800  86.1714070
 114.7499590  22.2376600  86.5401470 114.0073180  21.0226610  86.0262010
 121.2121200  26.2829670  77.4779200 121.6517110  27.0254000  77.0634590
 121.1508090  26.5256240  78.4018160 116.6872170  27.3075500  88.3799220
 116.6587600  27.7118450  87.5127650 116.5237140  26.3785860  88.2170820
 113.2025100  19.9636210  76.2816340 113.0822700  20.6898300  75.6697610
 112.8925990  19.1939120  75.8044250 110.8410470  23.1351350  82.0884980
 110.9190890  23.2700120  81.1440700 111.4552150  22.4267240  82.2813100
 112.0858100  24.8351540  78.4991160 111.6786180  24.9766130  77.6444760
 112.9771110  24.5511700  78.2962370 121.9036980  28.9843450  85.4058210
 122.4181650  28.8951460  86.2080640 121.0606060  29.3303150  85.6986120
 123.8791380  29.2698790  74.8342210 123.7192520  28.9801730  75.7324040
 123.7138090  28.4938920  74.2987440 116.3579760  29.0497320  76.6113830
 116.1822240  28.1332860  76.3981630 115.5035500  29.4084610  76.8511630
 123.5817510  26.7786350  73.3940210 122.8882670  26.7763640  72.7342490
 124.3240370  26.3545670  72.9634380 123.1467440  28.4049060  77.4688700
 123.6024390  27.6238440  77.7827320 123.4859960  29.1155880  78.0129880
 110.8969990  24.1765520  84.6279440 111.0601030  23.7070880  83.8098810
 111.3622440  23.6689080  85.2928280 115.6688760  13.3071280  79.6640010
 115.2256910  14.0880820  79.3324530 116.2273750  13.6301170  80.3710950
 119.9558570  16.1739800  85.2675330 119.4937940  16.3822820  86.0795270
 119.5536680  15.3599150  84.9646000 124.9563080  17.3948750  86.3971990
 124.1056670  17.0954500  86.7181060 124.7964870  17.6390760  85.4855810
 122.0512790  18.8950500  88.4970780 122.3766200  18.0614250  88.1573010
 122.8393120  19.4179020  88.6449110 118.7847580  12.9281980  74.5445840
 118.1601760  12.9241850  75.2699150 118.6977700  12.0612940  74.1481810
 117.7064660  13.8518610  81.5229610 118.0036990  14.7581440  81.4421630
 118.2550220  13.3637390  80.9089180 115.4602980  18.4304850  77.3921260
 115.2343900  18.2142020  78.2967880 114.6795510  18.8633310  77.0467230
 122.6900740  18.4368220  75.9911910 122.0909630  19.1604020  75.8075530
 123.2380350  18.3745000  75.2088360 117.9002190  19.3290430  88.0581530
 117.8045790  18.3885160  87.9081930 118.7434170  19.5505500  87.6629600
 121.2965610  17.0731760  78.0215190 121.6895180  17.3903960  77.2083880
 121.6582460  16.1943640  78.1359710 113.0312730  15.7404100  86.2115310
 112.6376120  16.5879310  86.4188090 112.3431130  15.1030470  86.4023950
 119.6057780  15.8239070  89.2812050 118.9156100  15.6311270  89.9158140
 120.3490080  16.1073710  89.8136350 110.3329780  13.6632560  80.2445390
 110.0442830  14.2335420  80.9570370 111.0775540  13.1837010  80.6076620
 110.5200010  17.6052680  71.4548110 110.4374680  18.5483440  71.5963100
 110.1683070  17.4627590  70.5760460 121.8820750  19.6637510  82.1165970
 121.1501870  20.1724320  82.4656070 121.4845090  18.8467490  81.8154750
 118.3198140  16.3391710  80.5218460 118.3234200  15.8981660  79.6723000
 119.2149260  16.6609040  80.6290280 114.1700520  16.2218200  79.4812670
 113.8300570  16.6993430  80.2379720 113.4077840  15.7683320  79.1213770
 118.3818290  17.3403790  73.5125220 118.5031110  17.2990270  74.4611040
 117.9966800  18.2027940  73.3571950 122.3446660  15.1171190  81.5288910
 122.3619400  15.5679840  82.3730760 122.0962240  14.2176830  81.7422350
 117.3939790  19.6504930  72.9108520 116.8256690  19.2023180  72.2844430
 118.1028790  20.0097710  72.3773670 112.4708970  23.5516950  86.7875250
 112.0863760  22.9110620  87.3858210 112.7821160  24.2553070  87.3569980
 118.6206110  20.3993490  82.2683870 118.9876240  19.9252060  83.0145210
 118.4311170  21.2735060  82.6092210 111.4846600  15.1437180  78.3977340
 111.1993520  14.7792850  79.2355960 111.4225460  14.4117640  77.7840480
 116.4105480  19.4402130  84.5868080 116.1062550  20.3194110  84.8118440
 117.3651940  19.5001920  84.6225520 114.9387270  23.6463120  75.1834930
 114.1649530  23.1060740  75.0233650 115.6681900  23.1269730  74.8452690
 121.1585190  14.0366440  75.1190710 120.3449800  13.5379610  75.0436020
 120.9647140  14.8764690  74.7027060 121.0794050  22.7137540  86.8630320
 121.0131360  21.7933210  86.6087910 120.4499190  22.8112980  87.5774960
 123.8733580  18.4086090  73.4152870 124.7613200  18.7203320  73.2404210
 123.8438670  17.5358340  73.0233450 114.9824670  23.3143500  78.8213740
 115.5003340  22.5111760  78.7670630 114.5308690  23.2522640  79.6630570
 119.8694170  24.5809780  74.0941040 120.2109870  25.3252010  73.5984360
 119.0406880  24.8940900  74.4565870 112.4669210  20.2804870  85.7339440
 112.1084150  20.9458720  86.3212780 112.1723770  19.4488420  86.1052060
 115.6682330  20.7389110  88.6178990 115.3682470  20.8846290  87.7206810
 116.4393570  20.1794400  88.5252380 121.0110780  25.5358110  86.6134120
 121.0255320  24.6039070  86.3953030 120.3035880  25.6217870  87.2523890
 122.7521580  23.9025620  79.4586550 123.1045400  23.3053750  78.7987920
 121.8683910  23.5769850  79.6294800 118.8384860  24.6623310  76.8656960
 119.5255990  25.2092520  77.2464550 118.0517280  25.2064040  76.9006570
 110.9777260  20.2796130  72.3574040 111.8472110  20.5620930  72.6409960
 110.4867580  21.0932000  72.2422850 118.1412070  21.6669340  76.4782320
 118.5974850  22.4774590  76.7042510 117.7900280  21.3492480  77.3100810
 120.4444680  27.1775680  83.7074620 121.0886900  27.3835060  84.3848040
 120.8074120  26.4164080  83.2545470 114.0423850  12.0106990  76.9504840
 113.9138480  12.0024890  77.8989760 113.2185870  12.3490080  76.5995850
 121.7176760  25.1808030  82.4252070 122.3598990  24.4801190  82.5384240
 122.2426110  25.9606470  82.2448960 123.4914380  25.9802930  85.6288130
 123.8270620  26.5669620  86.3066050 122.5714720  25.8495640  85.8585920
 111.3448510  29.4923510  72.9235670 111.7046150  30.0912850  72.2692940
 111.2040850  30.0383400  73.6970700 111.0417780  13.7698110  86.4111540
 110.3276300  13.9695030  87.0164150 111.4612820  12.9937680  86.7826340
 111.3290370  27.7578370  87.3978070 111.4381490  26.8173110  87.2573460
 110.6770930  28.0233120  86.7491800 119.3202960  26.0294260  88.7976190
 118.9999830  25.3103500  89.3421880 118.6461320  26.7049330  88.8712250
 117.3617130  26.8754710  73.7409340 117.3527230  27.6084400  73.1253850
 116.4415490  26.6286290  73.8336300 112.9623770  22.0969600  74.4856100
 112.3551720  22.8368500  74.4951400 113.4373120  22.1868960  73.6594300
 122.5356560  16.2620420  84.1612990 122.9037380  15.4415630  84.4892560
 121.6754760  16.3222310  84.5768640 120.3476730  26.9382950  72.4034530
 120.4488710  26.7346940  71.4736510 119.4478470  26.6841230  72.6082310
 117.8702620  17.4963310  76.3858430 117.1618770  17.9649650  76.8272040
 118.1547100  16.8385320  77.0203620 119.4958550  18.9160010  84.3850960
 119.9943800  19.3905830  85.0502810 119.6381500  17.9923530  84.5920990
 121.9018050  14.2213970  77.8254220 121.7785830  14.2400100  76.8763730
 122.8502610  14.2692910  77.9452620 118.9894840  29.4569270  77.0982200
 119.2436340  29.4190660  76.1761570 118.0407320  29.3302600  77.0910450
 116.0737640  15.8048390  73.7609140 116.9228170  16.2418540  73.6949330
 115.7068910  16.1168650  74.5881200 124.9947420  20.3761150  78.6740710
 124.0537560  20.3911380  78.8488400 125.3091490  19.5897110  79.1201010
 114.9729060  22.0580750  72.2344670 115.7392330  21.9462110  72.7970100
 115.0503750  21.3618720  71.5821440 113.6675820  19.4905820  72.9177560
 113.7479410  18.5433330  73.0294960 114.5595570  19.8212700  73.0238220
 114.4690530  29.6401210  80.0212100 115.2053010  29.0916670  80.2920670
 114.8531450  30.5057220  79.8818090 111.3536010  25.7074780  75.8953610
 110.4275790  25.9495920  75.8859020 111.8192440  26.5349040  75.7738360
 113.4748810  28.8247280  89.2097680 114.2761540  29.1459330  89.6233080
 112.9600630  28.4642860  89.9317590 117.5792840  28.8131520  71.8437670
 118.3721450  29.1020350  71.3919460 117.0597190  28.3823690  71.1650150
 122.3113440  24.9327150  89.1573090 121.7051600  24.9558750  88.4168840
 122.0067550  24.2010190  89.6940340 123.7413810  28.6607440  87.7682500
 124.6935560  28.5765460  87.7182740 123.5942030  29.3249150  88.4416290
 111.1946620  21.3120740  88.1533730 111.6985640  20.7328020  88.7249960
 110.4554040  21.5960970  88.6910100 118.0970240  24.0334930  71.7080020
 117.9920880  23.4187280  72.4341400 117.9294460  23.5100820  70.9243030
 118.2484560  22.7191730  87.6869250 117.4830230  23.2876730  87.6023920
 118.4300520  22.4267940  86.7937480 121.3372970  23.0954960  72.3122010
 120.7883070  23.5424260  72.9564750 121.9592230  22.5904210  72.8359680
 113.2269700  19.4550330  89.0483800 113.2675040  19.1564200  89.9569030
 114.0815200  19.8557940  88.8891320 117.0048090  22.0545880  74.2087310
 117.4264510  21.8885750  75.0518700 117.1298930  21.2446110  73.7142450
 115.1675510  18.0342430  87.0158290 114.6371970  17.5433380  86.3881630
 115.8363580  18.4626630  86.4816220 119.5175730  21.0783490  71.4564410
 120.0381390  20.3632510  71.0905560 120.1644130  21.7169360  71.7564920
 124.0653570  22.5011890  86.7799480 124.4794590  22.6556970  87.6289900
 123.1304570  22.6267110  86.9425260 124.5375740  19.8408050  88.7838630
 125.1196510  19.0860370  88.6959110 124.7137510  20.3715490  88.0070110
 115.6547810  15.0004800  87.0955580 115.5604680  14.3825550  86.3706450
 115.0745200  15.7271090  86.8685490 118.4209250  13.5578040  84.1282970
 117.9726550  13.5802300  83.2828520 117.7874450  13.1597060  84.7253270
 118.8268800  22.4532370  84.7495410 119.2456910  23.2965100  84.5771650
 117.9077430  22.5904410  84.5202190 121.1632700  20.1848550  86.1333250
 121.2828910  19.5889690  86.8728090 122.0226700  20.2218240  85.7134550
 123.5020600  20.7385740  84.7095760 122.9755820  21.2628360  84.1060900
 123.8451940  21.3713130  85.3405490 115.9006990  18.1279110  71.1545470
 115.6996050  17.2646470  71.5158810 115.7299040  18.0412470  70.2167070
 116.6776220  28.7585380  85.8653140 116.1397310  29.4831440  85.5461840
 116.9310180  28.2815720  85.0750480 117.9301470  16.7269900  87.3909070
 118.5201160  16.4185750  88.0786890 117.1121710  16.2549650  87.5468970
 122.7494900  16.3435710  87.6242090 122.0610420  15.6817250  87.5592080
 123.4700920  15.8973980  88.0690550 123.3795300  12.9387340  73.6832350
 123.6597590  12.0955240  74.0391770 122.6061030  13.1710450  74.1971100
 114.6989790  15.2279730  71.1423350 115.0015690  15.2347160  70.2342500
 115.4384380  14.8777590  71.6391010 119.5338430  29.9936590  86.1239790
 119.4597130  30.8971730  86.4312160 118.6317270  29.6748490  86.0961860
 117.9174720  14.1714350  72.1279550 117.5696720  13.4938340  71.5482000
 118.1187490  13.7103860  72.9422940 120.0823760  29.1595100  73.7466150
 120.9774550  29.4980070  73.7684910 120.1141390  28.4374510  73.1190430
 113.7219920  24.5322150  71.9753150 114.1594790  25.0751820  72.6310730
 114.2067650  23.7069100  71.9849490 110.9365720  27.3211180  79.4273410
 111.2668730  26.4532240  79.1952050 111.3656720  27.5269700  80.2578370
 115.5327640  25.6520190  77.0875380 115.2323180  25.5285160  77.9879290
 115.4265130  24.7928780  76.6791110 111.4255930  28.1881770  82.1655040
 110.9886920  28.3682570  82.9979190 111.9933610  28.9456390  82.0236760
 111.2580360  20.7002000  78.5243920 110.6029200  20.4313640  77.8803620
 112.0958310  20.5906480  78.0745900 124.2070800  15.4943290  72.7462410
 124.6255680  15.3074270  71.9059070 123.9006860  14.6422340  73.0565340
 112.2956290  21.0854570  83.0647260 112.6629330  20.9981970  83.9443280
 111.7267110  20.3221120  82.9654120 111.8472290  17.9963660  86.9705680
 110.9528340  17.9630420  87.3099390 112.3869840  18.1950450  87.7356930
 110.4718440  17.9100930  74.4669250 109.5682520  18.1731130  74.2920910
 110.9559060  18.1812100  73.6869210 113.0145650  16.9666470  72.3763630
 113.7237350  16.5449690  71.8910910 112.2985590  17.0341700  71.7446980
 112.6619810  13.0205800  71.4166280 113.3847940  13.5614740  71.7347500
 112.9344330  12.7469220  70.5407820 112.3512000  12.2711990  81.3188900
 112.9988190  11.7209370  80.8784060 112.7713840  12.5255140  82.1404710
 112.1044000  12.4267660  84.0614220 111.7558820  12.8831480  84.8272400
 111.7731700  11.5324790  84.1436650 113.7108370  25.5987260  88.2267410
 113.6678000  25.2280170  89.1081870 113.8419380  26.5364830  88.3669230
 117.4114400  27.1546850  83.8277130 117.1705760  27.4221410  82.9407650
 118.3517040  27.3252580  83.8827990 119.6168820  13.6179540  87.5833640
 119.5557710  14.2101370  88.3329050 120.5569200  13.5105500  87.4383900
 122.2543380  13.2749600  87.2225930 122.8683790  13.5928890  86.5607010
 122.7992940  12.7898190  87.8421790 112.7764640  11.9543860  87.3364990
 113.3247630  11.7731910  86.5731100 112.8419950  11.1637970  87.8721300
 113.5496400  28.5449510  85.3465190 112.9556720  28.4134210  86.0855230
 113.5420240  27.7087650  84.8807290 122.9951420  11.8381740  83.5495220
 122.1211260  12.1716850  83.3468150 122.8862170  11.3654920  84.3747090
 123.9023400  14.0452610  84.9336940 123.5736760  13.2304370  84.5538670
 124.8505700  14.0022420  84.8102630 113.1808630  25.9107890  84.2973230
 112.4542690  25.2913180  84.2299180 113.2417780  26.3048500  83.4271310
 116.7853730  28.1252890  81.0822640 117.3018750  27.5140250  80.5570900
 117.4351110  28.6281670  81.5733650 119.5249230  29.0161380  81.9091620
 119.8127040  28.7615680  81.0324630 120.0372450  28.4638740  82.4997190
 120.7426240  12.7551580  82.4888130 119.9598030  13.2297080  82.7684890
 120.4489170  11.8506410  82.3801310 111.4638630  29.2282280  77.5069990
 111.2960670  28.5952960  78.2051880 110.5973140  29.4341680  77.1564180
 112.0866650  13.0599060  75.0101850 112.8446010  13.1727940  74.4365880
 111.6243820  13.8968260  74.9645280 118.6280460  15.1738330  78.0004160
 117.8154970  14.7995220  77.6600040 119.1322100  14.4183410  78.3025350
 123.1305440  11.8380780  79.2387230 123.7334810  12.4100990  79.7135750
 122.3898430  12.4020220  79.0161130 113.0701330  27.9215510  74.9520130
 112.5448950  28.3023540  74.2482090 112.9945910  28.5466280  75.6729840
 114.4591800  13.5863110  73.5503820 114.9884560  12.7992910  73.4211770
 115.0920120  14.2654300  73.7839350 116.6529640  13.3238250  76.6049210
 116.0232380  12.6225560  76.7719340 116.1134780  14.0842380  76.3882370
 119.5921590  29.9377480  89.2759820 120.5188900  29.7021750  89.3195780
 119.5772020  30.7649480  88.7945850 116.7785200  12.6022230  89.0401700
 116.4969470  13.1055830  88.2762520 117.1604900  11.8043980  88.6743830
 115.6694300  29.8697890  73.8269380 116.4013120  29.5857170  73.2793270
 115.9287970  29.6311170  74.7168760 114.8309090  25.9862620  73.8315710
 114.2017970  26.4547720  74.3801540 114.9456920  25.1411840  74.2661900
 123.3800660  12.0175810  89.6182170 123.2666110  12.3370420  90.5133690
 124.1970400  12.4188320  89.3219450 122.2858810  20.0368280  59.9816910
 122.2052860  19.1222890  59.7108620 121.8723230  20.5335350  59.2756620
 120.4176850  21.8147300  61.8626180 119.6418950  21.3347740  62.1524750
 121.0689780  21.1352950  61.6882340 114.4342680  22.1267110  62.7401940
 113.6027560  21.8715820  63.1398450 115.0423660  22.1977880  63.4759860
 124.4384280  26.2207490  60.6425310 123.9765810  25.4494730  60.9712480
 125.2509830  26.2473560  61.1477760 114.4143940  26.1607200  62.9359960
 114.7171980  25.2704940  62.7570180 115.1587530  26.7177420  62.7082210
 112.8434630  17.0869000  56.5244330 111.9551330  17.4284970  56.4224210
 113.1275820  16.8869320  55.6325160 110.8067640  19.6874650  62.4084030
 111.3783750  18.9196850  62.4087670 110.8069180  19.9863410  61.4990640
 120.6647590  28.5065500  60.2629300 120.0459030  28.9623000  59.6923740
 121.5199370  28.6616960  59.8619000 119.8585840  24.4904490  61.8696340
 119.7894120  23.5494430  61.7085470 120.6205700  24.5805900  62.4418910
 112.0492510  15.0959010  64.1952960 111.8695350  14.1984760  64.4755720
 111.6472590  15.6430880  64.8699910 120.8891010  17.2974870  62.0965270
 121.2655830  16.4246750  61.9838940 120.7910520  17.6333570  61.2055710
 115.0196020  15.6700500  57.5582710 115.1262770  16.5704230  57.8651470
 114.1088380  15.6218470  57.2677360 112.6679180  17.5919510  62.8035300
 113.3489290  17.8557880  63.4222700 112.3527230  16.7520380  63.1373310
 116.8603750  18.6386870  61.8907890 117.3681970  19.1367840  62.5312910
 117.3916990  17.8622070  61.7147250 115.1439850  13.2785430  66.1571310
 115.1458290  13.7957820  65.3517210 114.3144160  12.8015610  66.1341240
 121.5310940  23.3904740  57.6561210 120.9128210  23.8554190  57.0923930
 122.0434190  24.0832220  58.0730720 116.3942700  22.9180610  64.3344810
 116.0612080  23.5449530  64.9765880 116.5709380  23.4442490  63.5546480
 124.9076610  16.7325690  61.8021150 124.2032180  17.0210580  62.3824260
 125.2688770  17.5425800  61.4420710 114.8255180  14.9895390  64.1641760
 115.1671990  15.8337440  63.8695630 113.8870990  15.1379130  64.2807100
 115.6061800  24.8861410  66.1493990 116.2235800  25.5612490  65.8678440
 114.7454920  25.2949390  66.0581490 110.8994140  24.0761270  55.0300840
 110.5222120  24.5648370  54.2985740 111.1567210  24.7486550  55.6607370
 118.5083070  12.4777660  60.4886350 118.8158050  11.9224550  59.7721850
 117.5783770  12.6122120  60.3059340 124.0598130  28.1944950  62.7793810
 124.0725290  27.7907240  61.9116070 123.5073350  28.9692240  62.6755240
 123.4583570  23.0974790  64.1076420 123.8752360  22.8834900  63.2729880
 124.1823390  23.3547580  64.6785040 120.8963830  20.5426490  57.2246470
 119.9693110  20.4763870  57.4534940 121.0488650  21.4806620  57.1101710
 120.8832910  16.8143490  54.2213630 119.9436580  16.9757450  54.3066090
 121.2016170  17.5329170  53.6749620 124.9261120  22.1046790  57.7281720
 124.3073540  21.7666340  57.0808020 124.9085570  21.4606550  58.4360910
 124.3687680  18.2831330  65.1447530 123.9558860  19.1085040  65.3987520
 123.6363630  17.6976370  64.9523890 116.5020470  21.0691230  60.0066200
 116.0977470  20.3568480  59.5112100 116.5883590  20.7244470  60.8954240
 116.9702170  24.7558790  62.1705410 116.6730460  24.1504260  61.4913190
 117.9201990  24.7936100  62.0594770 115.2149090  17.8434440  63.7865240
 115.7663680  17.9529780  63.0118490 115.7292600  18.2172040  64.5020470
 125.0587780  28.3290660  65.8328510 124.5818340  29.1362850  65.6401120
 124.3749570  27.6768990  65.9854720 116.0620600  24.4940480  68.8213210
 115.1649130  24.7180450  69.0686610 116.0873470  24.6175420  67.8724610
 123.1025820  21.3433600  54.7354470 123.5419100  20.5056030  54.5892290
 123.8154240  21.9763000  54.8218610 114.8891820  21.3653800  67.3970580
 114.7499590  22.2376600  67.7657980 114.0073180  21.0226610  67.2518520
 121.2121200  26.2829670  58.7035710 121.6517110  27.0254000  58.2891100
 121.1508090  26.5256240  59.6274670 116.6872170  27.3075500  69.6055730
 116.6587600  27.7118450  68.7384160 116.5237140  26.3785860  69.4427330
 113.2025100  19.9636210  57.5072850 113.0822700  20.6898300  56.8954120
 112.8925990  19.1939120  57.0300760 110.8410470  23.1351350  63.3141490
 110.9190890  23.2700120  62.3697210 111.4552150  22.4267240  63.5069610
 112.0858100  24.8351540  59.7247670 111.6786180  24.9766130  58.8701270
 112.9771110  24.5511700  59.5218880 121.9036980  28.9843450  66.6314720
 122.4181650  28.8951460  67.4337150 121.0606060  29.3303150  66.9242630
 123.8791380  29.2698790  56.0598720 123.7192520  28.9801730  56.9580550
 123.7138090  28.4938920  55.5243950 116.3579760  29.0497320  57.8370340
 116.1822240  28.1332860  57.6238140 115.5035500  29.4084610  58.0768140
 123.5817510  26.7786350  54.6196720 122.8882670  26.7763640  53.9599000
 124.3240370  26.3545670  54.1890890 123.1467440  28.4049060  58.6945210
 123.6024390  27.6238440  59.0083830 123.4859960  29.1155880  59.2386390
 110.8969990  24.1765520  65.8535950 111.0601030  23.7070880  65.0355320
 111.3622440  23.6689080  66.5184790 115.6688760  13.3071280  60.8896520
 115.2256910  14.0880820  60.5581040 116.2273750  13.6301170  61.5967460
 119.9558570  16.1739800  66.4931840 119.4937940  16.3822820  67.3051780
 119.5536680  15.3599150  66.1902510 124.9563080  17.3948750  67.6228500
 124.1056670  17.0954500  67.9437570 124.7964870  17.6390760  66.7112320
 122.0512790  18.8950500  69.7227290 122.3766200  18.0614250  69.3829520
 122.8393120  19.4179020  69.8705620 118.7847580  12.9281980  55.7702350
 118.1601760  12.9241850  56.4955660 118.6977700  12.0612940  55.3738320
 117.7064660  13.8518610  62.7486120 118.0036990  14.7581440  62.6678140
 118.2550220  13.3637390  62.1345690 115.4602980  18.4304850  58.6177770
 115.2343900  18.2142020  59.5224390 114.6795510  18.8633310  58.2723740
 122.6900740  18.4368220  57.2168420 122.0909630  19.1604020  57.0332040
 123.2380350  18.3745000  56.4344870 117.9002190  19.3290430  69.2838040
 117.8045790  18.3885160  69.1338440 118.7434170  19.5505500  68.8886110
 121.2965610  17.0731760  59.2471700 121.6895180  17.3903960  58.4340390
 121.6582460  16.1943640  59.3616220 113.0312730  15.7404100  67.4371820
 112.6376120  16.5879310  67.6444600 112.3431130  15.1030470  67.6280460
 119.6057780  15.8239070  70.5068560 118.9156100  15.6311270  71.1414650
 120.3490080  16.1073710  71.0392860 110.3329780  13.6632560  61.4701900
 110.0442830  14.2335420  62.1826880 111.0775540  13.1837010  61.8333130
 110.5200010  17.6052680  52.6804620 110.4374680  18.5483440  52.8219610
 110.1683070  17.4627590  51.8016970 121.8820750  19.6637510  63.3422480
 121.1501870  20.1724320  63.6912580 121.4845090  18.8467490  63.0411260
 118.3198140  16.3391710  61.7474970 118.3234200  15.8981660  60.8979510
 119.2149260  16.6609040  61.8546790 114.1700520  16.2218200  60.7069180
 113.8300570  16.6993430  61.4636230 113.4077840  15.7683320  60.3470280
 118.3818290  17.3403790  54.7381730 118.5031110  17.2990270  55.6867550
 117.9966800  18.2027940  54.5828460 122.3446660  15.1171190  62.7545420
 122.3619400  15.5679840  63.5987270 122.0962240  14.2176830  62.9678860
 117.3939790  19.6504930  54.1365030 116.8256690  19.2023180  53.5100940
 118.1028790  20.0097710  53.6030180 112.4708970  23.5516950  68.0131760
 112.0863760  22.9110620  68.6114720 112.7821160  24.2553070  68.5826490
 118.6206110  20.3993490  63.4940380 118.9876240  19.9252060  64.2401720
 118.4311170  21.2735060  63.8348720 111.4846600  15.1437180  59.6233850
 111.1993520  14.7792850  60.4612470 111.4225460  14.4117640  59.0096990
 116.4105480  19.4402130  65.8124590 116.1062550  20.3194110  66.0374950
 117.3651940  19.5001920  65.8482030 114.9387270  23.6463120  56.4091440
 114.1649530  23.1060740  56.2490160 115.6681900  23.1269730  56.0709200
 121.1585190  14.0366440  56.3447220 120.3449800  13.5379610  56.2692530
 120.9647140  14.8764690  55.9283570 121.0794050  22.7137540  68.0886830
 121.0131360  21.7933210  67.8344420 120.4499190  22.8112980  68.8031470
 123.8733580  18.4086090  54.6409380 124.7613200  18.7203320  54.4660720
 123.8438670  17.5358340  54.2489960 114.9824670  23.3143500  60.0470250
 115.5003340  22.5111760  59.9927140 114.5308690  23.2522640  60.8887080
 119.8694170  24.5809780  55.3197550 120.2109870  25.3252010  54.8240870
 119.0406880  24.8940900  55.6822380 112.4669210  20.2804870  66.9595950
 112.1084150  20.9458720  67.5469290 112.1723770  19.4488420  67.3308570
 115.6682330  20.7389110  69.8435500 115.3682470  20.8846290  68.9463320
 116.4393570  20.1794400  69.7508890 121.0110780  25.5358110  67.8390630
 121.0255320  24.6039070  67.6209540 120.3035880  25.6217870  68.4780400
 122.7521580  23.9025620  60.6843060 123.1045400  23.3053750  60.0244430
 121.8683910  23.5769850  60.8551310 118.8384860  24.6623310  58.0913470
 119.5255990  25.2092520  58.4721060 118.0517280  25.2064040  58.1263080
 110.9777260  20.2796130  53.5830550 111.8472110  20.5620930  53.8666470
 110.4867580  21.0932000  53.4679360 118.1412070  21.6669340  57.7038830
 118.5974850  22.4774590  57.9299020 117.7900280  21.3492480  58.5357320
 120.4444680  27.1775680  64.9331130 121.0886900  27.3835060  65.6104550
 120.8074120  26.4164080  64.4801980 114.0423850  12.0106990  58.1761350
 113.9138480  12.0024890  59.1246270 113.2185870  12.3490080  57.8252360
 121.7176760  25.1808030  63.6508580 122.3598990  24.4801190  63.7640750
 122.2426110  25.9606470  63.4705470 123.4914380  25.9802930  66.8544640
 123.8270620  26.5669620  67.5322560 122.5714720  25.8495640  67.0842430
 111.3448510  29.4923510  54.1492180 111.7046150  30.0912850  53.4949450
 111.2040850  30.0383400  54.9227210 111.0417780  13.7698110  67.6368050
 110.3276300  13.9695030  68.2420660 111.4612820  12.9937680  68.0082850
 111.3290370  27.7578370  68.6234580 111.4381490  26.8173110  68.4829970
 110.6770930  28.0233120  67.9748310 119.3202960  26.0294260  70.0232700
 118.9999830  25.3103500  70.5678390 118.6461320  26.7049330  70.0968760
 117.3617130  26.8754710  54.9665850 117.3527230  27.6084400  54.3510360
 116.4415490  26.6286290  55.0592810 112.9623770  22.0969600  55.7112610
 112.3551720  22.8368500  55.7207910 113.4373120  22.1868960  54.8850810
 122.5356560  16.2620420  65.3869500 122.9037380  15.4415630  65.7149070
 121.6754760  16.3222310  65.8025150 120.3476730  26.9382950  53.6291040
 120.4488710  26.7346940  52.6993020 119.4478470  26.6841230  53.8338820
 117.8702620  17.4963310  57.6114940 117.1618770  17.9649650  58.0528550
 118.1547100  16.8385320  58.2460130 119.4958550  18.9160010  65.6107470
 119.9943800  19.3905830  66.2759320 119.6381500  17.9923530  65.8177500
 121.9018050  14.2213970  59.0510730 121.7785830  14.2400100  58.1020240
 122.8502610  14.2692910  59.1709130 118.9894840  29.4569270  58.3238710
 119.2436340  29.4190660  57.4018080 118.0407320  29.3302600  58.3166960
 116.0737640  15.8048390  54.9865650 116.9228170  16.2418540  54.9205840
 115.7068910  16.1168650  55.8137710 124.9947420  20.3761150  59.8997220
 124.0537560  20.3911380  60.0744910 125.3091490  19.5897110  60.3457520
 114.9729060  22.0580750  53.4601180 115.7392330  21.9462110  54.0226610
 115.0503750  21.3618720  52.8077950 113.6675820  19.4905820  54.1434070
 113.7479410  18.5433330  54.2551470 114.5595570  19.8212700  54.2494730
 114.4690530  29.6401210  61.2468610 115.2053010  29.0916670  61.5177180
 114.8531450  30.5057220  61.1074600 111.3536010  25.7074780  57.1210120
 110.4275790  25.9495920  57.1115530 111.8192440  26.5349040  56.9994870
 113.4748810  28.8247280  70.4354190 114.2761540  29.1459330  70.8489590
 112.9600630  28.4642860  71.1574100 117.5792840  28.8131520  53.0694180
 118.3721450  29.1020350  52.6175970 117.0597190  28.3823690  52.3906660
 122.3113440  24.9327150  70.3829600 121.7051600  24.9558750  69.6425350
 122.0067550  24.2010190  70.9196850 123.7413810  28.6607440  68.9939010
 124.6935560  28.5765460  68.9439250 123.5942030  29.3249150  69.6672800
 111.1946620  21.3120740  69.3790240 111.6985640  20.7328020  69.9506470
 110.4554040  21.5960970  69.9166610 118.0970240  24.0334930  52.9336530
 117.9920880  23.4187280  53.6597910 117.9294460  23.5100820  52.1499540
 118.2484560  22.7191730  68.9125760 117.4830230  23.2876730  68.8280430
 118.4300520  22.4267940  68.0193990 121.3372970  23.0954960  53.5378520
 120.7883070  23.5424260  54.1821260 121.9592230  22.5904210  54.0616190
 113.2269700  19.4550330  70.2740310 113.2675040  19.1564200  71.1825540
 114.0815200  19.8557940  70.1147830 117.0048090  22.0545880  55.4343820
 117.4264510  21.8885750  56.2775210 117.1298930  21.2446110  54.9398960
 115.1675510  18.0342430  68.2414800 114.6371970  17.5433380  67.6138140
 115.8363580  18.4626630  67.7072730 119.5175730  21.0783490  52.6820920
 120.0381390  20.3632510  52.3162070 120.1644130  21.7169360  52.9821430
 124.0653570  22.5011890  68.0055990 124.4794590  22.6556970  68.8546410
 123.1304570  22.6267110  68.1681770 124.5375740  19.8408050  70.0095140
 125.1196510  19.0860370  69.9215620 124.7137510  20.3715490  69.2326620
 115.6547810  15.0004800  68.3212090 115.5604680  14.3825550  67.5962960
 115.0745200  15.7271090  68.0942000 118.4209250  13.5578040  65.3539480
 117.9726550  13.5802300  64.5085030 117.7874450  13.1597060  65.9509780
 118.8268800  22.4532370  65.9751920 119.2456910  23.2965100  65.8028160
 117.9077430  22.5904410  65.7458700 121.1632700  20.1848550  67.3589760
 121.2828910  19.5889690  68.0984600 122.0226700  20.2218240  66.9391060
 123.5020600  20.7385740  65.9352270 122.9755820  21.2628360  65.3317410
 123.8451940  21.3713130  66.5662000 115.9006990  18.1279110  52.3801980
 115.6996050  17.2646470  52.7415320 115.7299040  18.0412470  51.4423580
 116.6776220  28.7585380  67.0909650 116.1397310  29.4831440  66.7718350
 116.9310180  28.2815720  66.3006990 117.9301470  16.7269900  68.6165580
 118.5201160  16.4185750  69.3043400 117.1121710  16.2549650  68.7725480
 122.7494900  16.3435710  68.8498600 122.0610420  15.6817250  68.7848590
 123.4700920  15.8973980  69.2947060 123.3795300  12.9387340  54.9088860
 123.6597590  12.0955240  55.2648280 122.6061030  13.1710450  55.4227610
 114.6989790  15.2279730  52.3679860 115.0015690  15.2347160  51.4599010
 115.4384380  14.8777590  52.8647520 119.5338430  29.9936590  67.3496300
 119.4597130  30.8971730  67.6568670 118.6317270  29.6748490  67.3218370
 117.9174720  14.1714350  53.3536060 117.5696720  13.4938340  52.7738510
 118.1187490  13.7103860  54.1679450 120.0823760  29.1595100  54.9722660
 120.9774550  29.4980070  54.9941420 120.1141390  28.4374510  54.3446940
 113.7219920  24.5322150  53.2009660 114.1594790  25.0751820  53.8567240
 114.2067650  23.7069100  53.2106000 110.9365720  27.3211180  60.6529920
 111.2668730  26.4532240  60.4208560 111.3656720  27.5269700  61.4834880
 115.5327640  25.6520190  58.3131890 115.2323180  25.5285160  59.2135800
 115.4265130  24.7928780  57.9047620 111.4255930  28.1881770  63.3911550
 110.9886920  28.3682570  64.2235700 111.9933610  28.9456390  63.2493270
 111.2580360  20.7002000  59.7500430 110.6029200  20.4313640  59.1060130
 112.0958310  20.5906480  59.3002410 124.2070800  15.4943290  53.9718920
 124.6255680  15.3074270  53.1315580 123.9006860  14.6422340  54.2821850
 112.2956290  21.0854570  64.2903770 112.6629330  20.9981970  65.1699790
 111.7267110  20.3221120  64.1910630 111.8472290  17.9963660  68.1962190
 110.9528340  17.9630420  68.5355900 112.3869840  18.1950450  68.9613440
 110.4718440  17.9100930  55.6925760 109.5682520  18.1731130  55.5177420
 110.9559060  18.1812100  54.9125720 113.0145650  16.9666470  53.6020140
 113.7237350  16.5449690  53.1167420 112.2985590  17.0341700  52.9703490
 112.6619810  13.0205800  52.6422790 113.3847940  13.5614740  52.9604010
 112.9344330  12.7469220  51.7664330 112.3512000  12.2711990  62.5445410
 112.9988190  11.7209370  62.1040570 112.7713840  12.5255140  63.3661220
 112.1044000  12.4267660  65.2870730 111.7558820  12.8831480  66.0528910
 111.7731700  11.5324790  65.3693160 113.7108370  25.5987260  69.4523920
 113.6678000  25.2280170  70.3338380 113.8419380  26.5364830  69.5925740
 117.4114400  27.1546850  65.0533640 117.1705760  27.4221410  64.1664160
 118.3517040  27.3252580  65.1084500 119.6168820  13.6179540  68.8090150
 119.5557710  14.2101370  69.5585560 120.5569200  13.5105500  68.6640410
 122.2543380  13.2749600  68.4482440 122.8683790  13.5928890  67.7863520
 122.7992940  12.7898190  69.0678300 112.7764640  11.9543860  68.5621500
 113.3247630  11.7731910  67.7987610 112.8419950  11.1637970  69.0977810
 113.5496400  28.5449510  66.5721700 112.9556720  28.4134210  67.3111740
 113.5420240  27.7087650  66.1063800 122.9951420  11.8381740  64.7751730
 122.1211260  12.1716850  64.5724660 122.8862170  11.3654920  65.6003600
 123.9023400  14.0452610  66.1593450 123.5736760  13.2304370  65.7795180
 124.8505700  14.0022420  66.0359140 113.1808630  25.9107890  65.5229740
 112.4542690  25.2913180  65.4555690 113.2417780  26.3048500  64.6527820
 116.7853730  28.1252890  62.3079150 117.3018750  27.5140250  61.7827410
 117.4351110  28.6281670  62.7990160 119.5249230  29.0161380  63.1348130
 119.8127040  28.7615680  62.2581140 120.0372450  28.4638740  63.7253700
 120.7426240  12.7551580  63.7144640 119.9598030  13.2297080  63.9941400
 120.4489170  11.8506410  63.6057820 111.4638630  29.2282280  58.7326500
 111.2960670  28.5952960  59.4308390 110.5973140  29.4341680  58.3820690
 112.0866650  13.0599060  56.2358360 112.8446010  13.1727940  55.6622390
 111.6243820  13.8968260  56.1901790 118.6280460  15.1738330  59.2260670
 117.8154970  14.7995220  58.8856550 119.1322100  14.4183410  59.5281860
 123.1305440  11.8380780  60.4643740 123.7334810  12.4100990  60.9392260
 122.3898430  12.4020220  60.2417640 113.0701330  27.9215510  56.1776640
 112.5448950  28.3023540  55.4738600 112.9945910  28.5466280  56.8986350
 114.4591800  13.5863110  54.7760330 114.9884560  12.7992910  54.6468280
 115.0920120  14.2654300  55.0095860 116.6529640  13.3238250  57.8305720
 116.0232380  12.6225560  57.9975850 116.1134780  14.0842380  57.6138880
 119.5921590  29.9377480  70.5016330 120.5188900  29.7021750  70.5452290
 119.5772020  30.7649480  70.0202360 116.7785200  12.6022230  70.2658210
 116.4969470  13.1055830  69.5019030 117.1604900  11.8043980  69.9000340
 115.6694300  29.8697890  55.0525890 116.4013120  29.5857170  54.5049780
 115.9287970  29.6311170  55.9425270 114.8309090  25.9862620  55.0572220
 114.2017970  26.4547720  55.6058050 114.9456920  25.1411840  55.4918410
 123.3800660  12.0175810  70.8438680 123.2666110  12.3370420  71.7390200
 124.1970400  12.4188320  70.5475960 122.2858810  20.0368280  41.2073420
 122.2052860  19.1222890  40.9365130 121.8723230  20.5335350  40.5013130
 120.4176850  21.8147300  43.0882690 119.6418950  21.3347740  43.3781260
 121.0689780  21.1352950  42.9138850 114.4342680  22.1267110  43.9658450
 113.6027560  21.8715820  44.3654960 115.0423660  22.1977880  44.7016370
 124.4384280  26.2207490  41.8681820 123.9765810  25.4494730  42.1968990
 125.2509830  26.2473560  42.3734270 114.4143940  26.1607200  44.1616470
 114.7171980  25.2704940  43.9826690 115.1587530  26.7177420  43.9338720
 112.8434630  17.0869000  37.7500840 111.9551330  17.4284970  37.6480720
 113.1275820  16.8869320  36.8581670 110.8067640  19.6874650  43.6340540
 111.3783750  18.9196850  43.6344180 110.8069180  19.9863410  42.7247150
 120.6647590  28.5065500  41.4885810 120.0459030  28.9623000  40.9180250
 121.5199370  28.6616960  41.0875510 119.8585840  24.4904490  43.0952850
 119.7894120  23.5494430  42.9341980 120.6205700  24.5805900  43.6675420
 112.0492510  15.0959010  45.4209470 111.8695350  14.1984760  45.7012230
 111.6472590  15.6430880  46.0956420 120.8891010  17.2974870  43.3221780
 121.2655830  16.4246750  43.2095450 120.7910520  17.6333570  42.4312220
 115.0196020  15.6700500  38.7839220 115.1262770  16.5704230  39.0907980
 114.1088380  15.6218470  38.4933870 112.6679180  17.5919510  44.0291810
 113.3489290  17.8557880  44.6479210 112.3527230  16.7520380  44.3629820
 116.8603750  18.6386870  43.1164400 117.3681970  19.1367840  43.7569420
 117.3916990  17.8622070  42.9403760 115.1439850  13.2785430  47.3827820
 115.1458290  13.7957820  46.5773720 114.3144160  12.8015610  47.3597750
 121.5310940  23.3904740  38.8817720 120.9128210  23.8554190  38.3180440
 122.0434190  24.0832220  39.2987230 116.3942700  22.9180610  45.5601320
 116.0612080  23.5449530  46.2022390 116.5709380  23.4442490  44.7802990
 124.9076610  16.7325690  43.0277660 124.2032180  17.0210580  43.6080770
 125.2688770  17.5425800  42.6677220 114.8255180  14.9895390  45.3898270
 115.1671990  15.8337440  45.0952140 113.8870990  15.1379130  45.5063610
 115.6061800  24.8861410  47.3750500 116.2235800  25.5612490  47.0934950
 114.7454920  25.2949390  47.2838000 110.8994140  24.0761270  36.2557350
 110.5222120  24.5648370  35.5242250 111.1567210  24.7486550  36.8863880
 118.5083070  12.4777660  41.7142860 118.8158050  11.9224550  40.9978360
 117.5783770  12.6122120  41.5315850 124.0598130  28.1944950  44.0050320
 124.0725290  27.7907240  43.1372580 123.5073350  28.9692240  43.9011750
 123.4583570  23.0974790  45.3332930 123.8752360  22.8834900  44.4986390
 124.1823390  23.3547580  45.9041550 120.8963830  20.5426490  38.4502980
 119.9693110  20.4763870  38.6791450 121.0488650  21.4806620  38.3358220
 120.8832910  16.8143490  35.4470140 119.9436580  16.9757450  35.5322600
 121.2016170  17.5329170  34.9006130 124.9261120  22.1046790  38.9538230
 124.3073540  21.7666340  38.3064530 124.9085570  21.4606550  39.6617420
 124.3687680  18.2831330  46.3704040 123.9558860  19.1085040  46.6244030
 123.6363630  17.6976370  46.1780400 116.5020470  21.0691230  41.2322710
 116.0977470  20.3568480  40.7368610 116.5883590  20.7244470  42.1210750
 116.9702170  24.7558790  43.3961920 116.6730460  24.1504260  42.7169700
 117.9201990  24.7936100  43.2851280 115.2149090  17.8434440  45.0121750
 115.7663680  17.9529780  44.2375000 115.7292600  18.2172040  45.7276980
 125.0587780  28.3290660  47.0585020 124.5818340  29.1362850  46.8657630
 124.3749570  27.6768990  47.2111230 116.0620600  24.4940480  50.0469720
 115.1649130  24.7180450  50.2943120 116.0873470  24.6175420  49.0981120
 123.1025820  21.3433600  35.9610980 123.5419100  20.5056030  35.8148800
 123.8154240  21.9763000  36.0475120 114.8891820  21.3653800  48.6227090
 114.7499590  22.2376600  48.9914490 114.0073180  21.0226610  48.4775030
 121.2121200  26.2829670  39.9292220 121.6517110  27.0254000  39.5147610
 121.1508090  26.5256240  40.8531180 116.6872170  27.3075500  50.8312240
 116.6587600  27.7118450  49.9640670 116.5237140  26.3785860  50.6683840
 113.2025100  19.9636210  38.7329360 113.0822700  20.6898300  38.1210630
 112.8925990  19.1939120  38.2557270 110.8410470  23.1351350  44.5398000
 110.9190890  23.2700120  43.5953720 111.4552150  22.4267240  44.7326120
 112.0858100  24.8351540  40.9504180 111.6786180  24.9766130  40.0957780
 112.9771110  24.5511700  40.7475390 121.9036980  28.9843450  47.8571230
 122.4181650  28.8951460  48.6593660 121.0606060  29.3303150  48.1499140
 123.8791380  29.2698790  37.2855230 123.7192520  28.9801730  38.1837060
 123.7138090  28.4938920  36.7500460 116.3579760  29.0497320  39.0626850
 116.1822240  28.1332860  38.8494650 115.5035500  29.4084610  39.3024650
 123.5817510  26.7786350  35.8453230 122.8882670  26.7763640  35.1855510
 124.3240370  26.3545670  35.4147400 123.1467440  28.4049060  39.9201720
 123.6024390  27.6238440  40.2340340 123.4859960  29.1155880  40.4642900
 110.8969990  24.1765520  47.0792460 111.0601030  23.7070880  46.2611830
 111.3622440  23.6689080  47.7441300 115.6688760  13.3071280  42.1153030
 115.2256910  14.0880820  41.7837550 116.2273750  13.6301170  42.8223970
 119.9558570  16.1739800  47.7188350 119.4937940  16.3822820  48.5308290
 119.5536680  15.3599150  47.4159020 124.9563080  17.3948750  48.8485010
 124.1056670  17.0954500  49.1694080 124.7964870  17.6390760  47.9368830
 122.0512790  18.8950500  50.9483800 122.3766200  18.0614250  50.6086030
 122.8393120  19.4179020  51.0962130 118.7847580  12.9281980  36.9958860
 118.1601760  12.9241850  37.7212170 118.6977700  12.0612940  36.5994830
 117.7064660  13.8518610  43.9742630 118.0036990  14.7581440  43.8934650
 118.2550220  13.3637390  43.3602200 115.4602980  18.4304850  39.8434280
 115.2343900  18.2142020  40.7480900 114.6795510  18.8633310  39.4980250
 122.6900740  18.4368220  38.4424930 122.0909630  19.1604020  38.2588550
 123.2380350  18.3745000  37.6601380 117.9002190  19.3290430  50.5094550
 117.8045790  18.3885160  50.3594950 118.7434170  19.5505500  50.1142620
 121.2965610  17.0731760  40.4728210 121.6895180  17.3903960  39.6596900
 121.6582460  16.1943640  40.5872730 113.0312730  15.7404100  48.6628330
 112.6376120  16.5879310  48.8701110 112.3431130  15.1030470  48.8536970
 119.6057780  15.8239070  51.7325070 118.9156100  15.6311270  52.3671160
 120.3490080  16.1073710  52.2649370 110.3329780  13.6632560  42.6958410
 110.0442830  14.2335420  43.4083390 111.0775540  13.1837010  43.0589640
 110.5200010  17.6052680  33.9061130 110.4374680  18.5483440  34.0476120
 110.1683070  17.4627590  33.0273480 121.8820750  19.6637510  44.5678990
 121.1501870  20.1724320  44.9169090 121.4845090  18.8467490  44.2667770
 118.3198140  16.3391710  42.9731480 118.3234200  15.8981660  42.1236020
 119.2149260  16.6609040  43.0803300 114.1700520  16.2218200  41.9325690
 113.8300570  16.6993430  42.6892740 113.4077840  15.7683320  41.5726790
 118.3818290  17.3403790  35.9638240 118.5031110  17.2990270  36.9124060
 117.9966800  18.2027940  35.8084970 122.3446660  15.1171190  43.9801930
 122.3619400  15.5679840  44.8243780 122.0962240  14.2176830  44.1935370
 117.3939790  19.6504930  35.3621540 116.8256690  19.2023180  34.7357450
 118.1028790  20.0097710  34.8286690 112.4708970  23.5516950  49.2388270
 112.0863760  22.9110620  49.8371230 112.7821160  24.2553070  49.8083000
 118.6206110  20.3993490  44.7196890 118.9876240  19.9252060  45.4658230
 118.4311170  21.2735060  45.0605230 111.4846600  15.1437180  40.8490360
 111.1993520  14.7792850  41.6868980 111.4225460  14.4117640  40.2353500
 116.4105480  19.4402130  47.0381100 116.1062550  20.3194110  47.2631460
 117.3651940  19.5001920  47.0738540 114.9387270  23.6463120  37.6347950
 114.1649530  23.1060740  37.4746670 115.6681900  23.1269730  37.2965710
 121.1585190  14.0366440  37.5703730 120.3449800  13.5379610  37.4949040
 120.9647140  14.8764690  37.1540080 121.0794050  22.7137540  49.3143340
 121.0131360  21.7933210  49.0600930 120.4499190  22.8112980  50.0287980
 123.8733580  18.4086090  35.8665890 124.7613200  18.7203320  35.6917230
 123.8438670  17.5358340  35.4746470 114.9824670  23.3143500  41.2726760
 115.5003340  22.5111760  41.2183650 114.5308690  23.2522640  42.1143590
 119.8694170  24.5809780  36.5454060 120.2109870  25.3252010  36.0497380
 119.0406880  24.8940900  36.9078890 112.4669210  20.2804870  48.1852460
 112.1084150  20.9458720  48.7725800 112.1723770  19.4488420  48.5565080
 115.6682330  20.7389110  51.0692010 115.3682470  20.8846290  50.1719830
 116.4393570  20.1794400  50.9765400 121.0110780  25.5358110  49.0647140
 121.0255320  24.6039070  48.8466050 120.3035880  25.6217870  49.7036910
 122.7521580  23.9025620  41.9099570 123.1045400  23.3053750  41.2500940
 121.8683910  23.5769850  42.0807820 118.8384860  24.6623310  39.3169980
 119.5255990  25.2092520  39.6977570 118.0517280  25.2064040  39.3519590
 110.9777260  20.2796130  34.8087060 111.8472110  20.5620930  35.0922980
 110.4867580  21.0932000  34.6935870 118.1412070  21.6669340  38.9295340
 118.5974850  22.4774590  39.1555530 117.7900280  21.3492480  39.7613830
 120.4444680  27.1775680  46.1587640 121.0886900  27.3835060  46.8361060
 120.8074120  26.4164080  45.7058490 114.0423850  12.0106990  39.4017860
 113.9138480  12.0024890  40.3502780 113.2185870  12.3490080  39.0508870
 121.7176760  25.1808030  44.8765090 122.3598990  24.4801190  44.9897260
 122.2426110  25.9606470  44.6961980 123.4914380  25.9802930  48.0801150
 123.8270620  26.5669620  48.7579070 122.5714720  25.8495640  48.3098940
 111.3448510  29.4923510  35.3748690 111.7046150  30.0912850  34.7205960
 111.2040850  30.0383400  36.1483720 111.0417780  13.7698110  48.8624560
 110.3276300  13.9695030  49.4677170 111.4612820  12.9937680  49.2339360
 111.3290370  27.7578370  49.8491090 111.4381490  26.8173110  49.7086480
 110.6770930  28.0233120  49.2004820 119.3202960  26.0294260  51.2489210
 118.9999830  25.3103500  51.7934900 118.6461320  26.7049330  51.3225270
 117.3617130  26.8754710  36.1922360 117.3527230  27.6084400  35.5766870
 116.4415490  26.6286290  36.2849320 112.9623770  22.0969600  36.9369120
 112.3551720  22.8368500  36.9464420 113.4373120  22.1868960  36.1107320
 122.5356560  16.2620420  46.6126010 122.9037380  15.4415630  46.9405580
 121.6754760  16.3222310  47.0281660 120.3476730  26.9382950  34.8547550
 120.4488710  26.7346940  33.9249530 119.4478470  26.6841230  35.0595330
 117.8702620  17.4963310  38.8371450 117.1618770  17.9649650  39.2785060
 118.1547100  16.8385320  39.4716640 119.4958550  18.9160010  46.8363980
 119.9943800  19.3905830  47.5015830 119.6381500  17.9923530  47.0434010
 121.9018050  14.2213970  40.2767240 121.7785830  14.2400100  39.3276750
 122.8502610  14.2692910  40.3965640 118.9894840  29.4569270  39.5495220
 119.2436340  29.4190660  38.6274590 118.0407320  29.3302600  39.5423470
 116.0737640  15.8048390  36.2122160 116.9228170  16.2418540  36.1462350
 115.7068910  16.1168650  37.0394220 124.9947420  20.3761150  41.1253730
 124.0537560  20.3911380  41.3001420 125.3091490  19.5897110  41.5714030
 114.9729060  22.0580750  34.6857690 115.7392330  21.9462110  35.2483120
 115.0503750  21.3618720  34.0334460 113.6675820  19.4905820  35.3690580
 113.7479410  18.5433330  35.4807980 114.5595570  19.8212700  35.4751240
 114.4690530  29.6401210  42.4725120 115.2053010  29.0916670  42.7433690
 114.8531450  30.5057220  42.3331110 111.3536010  25.7074780  38.3466630
 110.4275790  25.9495920  38.3372040 111.8192440  26.5349040  38.2251380
 113.4748810  28.8247280  51.6610700 114.2761540  29.1459330  52.0746100
 112.9600630  28.4642860  52.3830610 117.5792840  28.8131520  34.2950690
 118.3721450  29.1020350  33.8432480 117.0597190  28.3823690  33.6163170
 122.3113440  24.9327150  51.6086110 121.7051600  24.9558750  50.8681860
 122.0067550  24.2010190  52.1453360 123.7413810  28.6607440  50.2195520
 124.6935560  28.5765460  50.1695760 123.5942030  29.3249150  50.8929310
 111.1946620  21.3120740  50.6046750 111.6985640  20.7328020  51.1762980
 110.4554040  21.5960970  51.1423120 118.0970240  24.0334930  34.1593040
 117.9920880  23.4187280  34.8854420 117.9294460  23.5100820  33.3756050
 118.2484560  22.7191730  50.1382270 117.4830230  23.2876730  50.0536940
 118.4300520  22.4267940  49.2450500 121.3372970  23.0954960  34.7635030
 120.7883070  23.5424260  35.4077770 121.9592230  22.5904210  35.2872700
 113.2269700  19.4550330  51.4996820 113.2675040  19.1564200  52.4082050
 114.0815200  19.8557940  51.3404340 117.0048090  22.0545880  36.6600330
 117.4264510  21.8885750  37.5031720 117.1298930  21.2446110  36.1655470
 115.1675510  18.0342430  49.4671310 114.6371970  17.5433380  48.8394650
 115.8363580  18.4626630  48.9329240 119.5175730  21.0783490  33.9077430
 120.0381390  20.3632510  33.5418580 120.1644130  21.7169360  34.2077940
 124.0653570  22.5011890  49.2312500 124.4794590  22.6556970  50.0802920
 123.1304570  22.6267110  49.3938280 124.5375740  19.8408050  51.2351650
 125.1196510  19.0860370  51.1472130 124.7137510  20.3715490  50.4583130
 115.6547810  15.0004800  49.5468600 115.5604680  14.3825550  48.8219470
 115.0745200  15.7271090  49.3198510 118.4209250  13.5578040  46.5795990
 117.9726550  13.5802300  45.7341540 117.7874450  13.1597060  47.1766290
 118.8268800  22.4532370  47.2008430 119.2456910  23.2965100  47.0284670
 117.9077430  22.5904410  46.9715210 121.1632700  20.1848550  48.5846270
 121.2828910  19.5889690  49.3241110 122.0226700  20.2218240  48.1647570
 123.5020600  20.7385740  47.1608780 122.9755820  21.2628360  46.5573920
 123.8451940  21.3713130  47.7918510 115.9006990  18.1279110  33.6058490
 115.6996050  17.2646470  33.9671830 115.7299040  18.0412470  32.6680090
 116.6776220  28.7585380  48.3166160 116.1397310  29.4831440  47.9974860
 116.9310180  28.2815720  47.5263500 117.9301470  16.7269900  49.8422090
 118.5201160  16.4185750  50.5299910 117.1121710  16.2549650  49.9981990
 122.7494900  16.3435710  50.0755110 122.0610420  15.6817250  50.0105100
 123.4700920  15.8973980  50.5203570 123.3795300  12.9387340  36.1345370
 123.6597590  12.0955240  36.4904790 122.6061030  13.1710450  36.6484120
 114.6989790  15.2279730  33.5936370 115.0015690  15.2347160  32.6855520
 115.4384380  14.8777590  34.0904030 119.5338430  29.9936590  48.5752810
 119.4597130  30.8971730  48.8825180 118.6317270  29.6748490  48.5474880
 117.9174720  14.1714350  34.5792570 117.5696720  13.4938340  33.9995020
 118.1187490  13.7103860  35.3935960 120.0823760  29.1595100  36.1979170
 120.9774550  29.4980070  36.2197930 120.1141390  28.4374510  35.5703450
 113.7219920  24.5322150  34.4266170 114.1594790  25.0751820  35.0823750
 114.2067650  23.7069100  34.4362510 110.9365720  27.3211180  41.8786430
 111.2668730  26.4532240  41.6465070 111.3656720  27.5269700  42.7091390
 115.5327640  25.6520190  39.5388400 115.2323180  25.5285160  40.4392310
 115.4265130  24.7928780  39.1304130 111.4255930  28.1881770  44.6168060
 110.9886920  28.3682570  45.4492210 111.9933610  28.9456390  44.4749780
 111.2580360  20.7002000  40.9756940 110.6029200  20.4313640  40.3316640
 112.0958310  20.5906480  40.5258920 124.2070800  15.4943290  35.1975430
 124.6255680  15.3074270  34.3572090 123.9006860  14.6422340  35.5078360
 112.2956290  21.0854570  45.5160280 112.6629330  20.9981970  46.3956300
 111.7267110  20.3221120  45.4167140 111.8472290  17.9963660  49.4218700
 110.9528340  17.9630420  49.7612410 112.3869840  18.1950450  50.1869950
 110.4718440  17.9100930  36.9182270 109.5682520  18.1731130  36.7433930
 110.9559060  18.1812100  36.1382230 113.0145650  16.9666470  34.8276650
 113.7237350  16.5449690  34.3423930 112.2985590  17.0341700  34.1960000
 112.6619810  13.0205800  33.8679300 113.3847940  13.5614740  34.1860520
 112.9344330  12.7469220  32.9920840 112.3512000  12.2711990  43.7701920
 112.9988190  11.7209370  43.3297080 112.7713840  12.5255140  44.5917730
 112.1044000  12.4267660  46.5127240 111.7558820  12.8831480  47.2785420
 111.7731700  11.5324790  46.5949670 113.7108370  25.5987260  50.6780430
 113.6678000  25.2280170  51.5594890 113.8419380  26.5364830  50.8182250
 117.4114400  27.1546850  46.2790150 117.1705760  27.4221410  45.3920670
 118.3517040  27.3252580  46.3341010 119.6168820  13.6179540  50.0346660
 119.5557710  14.2101370  50.7842070 120.5569200  13.5105500  49.8896920
 122.2543380  13.2749600  49.6738950 122.8683790  13.5928890  49.0120030
 122.7992940  12.7898190  50.2934810 112.7764640  11.9543860  49.7878010
 113.3247630  11.7731910  49.0244120 112.8419950  11.1637970  50.3234320
 113.5496400  28.5449510  47.7978210 112.9556720  28.4134210  48.5368250
 113.5420240  27.7087650  47.3320310 122.9951420  11.8381740  46.0008240
 122.1211260  12.1716850  45.7981170 122.8862170  11.3654920  46.8260110
 123.9023400  14.0452610  47.3849960 123.5736760  13.2304370  47.0051690
 124.8505700  14.0022420  47.2615650 113.1808630  25.9107890  46.7486250
 112.4542690  25.2913180  46.6812200 113.2417780  26.3048500  45.8784330
 116.7853730  28.1252890  43.5335660 117.3018750  27.5140250  43.0083920
 117.4351110  28.6281670  44.0246670 119.5249230  29.0161380  44.3604640
 119.8127040  28.7615680  43.4837650 120.0372450  28.4638740  44.9510210
 120.7426240  12.7551580  44.9401150 119.9598030  13.2297080  45.2197910
 120.4489170  11.8506410  44.8314330 111.4638630  29.2282280  39.9583010
 111.2960670  28.5952960  40.6564900 110.5973140  29.4341680  39.6077200
 112.0866650  13.0599060  37.4614870 112.8446010  13.1727940  36.8878900
 111.6243820  13.8968260  37.4158300 118.6280460  15.1738330  40.4517180
 117.8154970  14.7995220  40.1113060 119.1322100  14.4183410  40.7538370
 123.1305440  11.8380780  41.6900250 123.7334810  12.4100990  42.1648770
 122.3898430  12.4020220  41.4674150 113.0701330  27.9215510  37.4033150
 112.5448950  28.3023540  36.6995110 112.9945910  28.5466280  38.1242860
 114.4591800  13.5863110  36.0016840 114.9884560  12.7992910  35.8724790
 115.0920120  14.2654300  36.2352370 116.6529640  13.3238250  39.0562230
 116.0232380  12.6225560  39.2232360 116.1134780  14.0842380  38.8395390
 119.5921590  29.9377480  51.7272840 120.5188900  29.7021750  51.7708800
 119.5772020  30.7649480  51.2458870 116.7785200  12.6022230  51.4914720
 116.4969470  13.1055830  50.7275540 117.1604900  11.8043980  51.1256850
 115.6694300  29.8697890  36.2782400 116.4013120  29.5857170  35.7306290
 115.9287970  29.6311170  37.1681780 114.8309090  25.9862620  36.2828730
 114.2017970  26.4547720  36.8314560 114.9456920  25.1411840  36.7174920
 123.3800660  12.0175810  52.0695190 123.2666110  12.3370420  52.9646710
 124.1970400  12.4188320  51.7732470 122.2858810  20.0368280  22.4329930
 122.2052860  19.1222890  22.1621640 121.8723230  20.5335350  21.7269640
 120.4176850  21.8147300  24.3139200 119.6418950  21.3347740  24.6037770
 121.0689780  21.1352950  24.1395360 114.4342680  22.1267110  25.1914960
 113.6027560  21.8715820  25.5911470 115.0423660  22.1977880  25.9272880
 124.4384280  26.2207490  23.0938330 123.9765810  25.4494730  23.4225500
 125.2509830  26.2473560  23.5990780 114.4143940  26.1607200  25.3872980
 114.7171980  25.2704940  25.2083200 115.1587530  26.7177420  25.1595230
 112.8434630  17.0869000  18.9757350 111.9551330  17.4284970  18.8737230
 113.1275820  16.8869320  18.0838180 110.8067640  19.6874650  24.8597050
 111.3783750  18.9196850  24.8600690 110.8069180  19.9863410  23.9503660
 120.6647590  28.5065500  22.7142320 120.0459030  28.9623000  22.1436760
 121.5199370  28.6616960  22.3132020 119.8585840  24.4904490  24.3209360
 119.7894120  23.5494430  24.1598490 120.6205700  24.5805900  24.8931930
 112.0492510  15.0959010  26.6465980 111.8695350  14.1984760  26.9268740
 111.6472590  15.6430880  27.3212930 120.8891010  17.2974870  24.5478290
 121.2655830  16.4246750  24.4351960 120.7910520  17.6333570  23.6568730
 115.0196020  15.6700500  20.0095730 115.1262770  16.5704230  20.3164490
 114.1088380  15.6218470  19.7190380 112.6679180  17.5919510  25.2548320
 113.3489290  17.8557880  25.8735720 112.3527230  16.7520380  25.5886330
 116.8603750  18.6386870  24.3420910 117.3681970  19.1367840  24.9825930
 117.3916990  17.8622070  24.1660270 115.1439850  13.2785430  28.6084330
 115.1458290  13.7957820  27.8030230 114.3144160  12.8015610  28.5854260
 121.5310940  23.3904740  20.1074230 120.9128210  23.8554190  19.5436950
 122.0434190  24.0832220  20.5243740 116.3942700  22.9180610  26.7857830
 116.0612080  23.5449530  27.4278900 116.5709380  23.4442490  26.0059500
 124.9076610  16.7325690  24.2534170 124.2032180  17.0210580  24.8337280
 125.2688770  17.5425800  23.8933730 114.8255180  14.9895390  26.6154780
 115.1671990  15.8337440  26.3208650 113.8870990  15.1379130  26.7320120
 115.6061800  24.8861410  28.6007010 116.2235800  25.5612490  28.3191460
 114.7454920  25.2949390  28.5094510 110.8994140  24.0761270  17.4813860
 110.5222120  24.5648370  16.7498760 111.1567210  24.7486550  18.1120390
 118.5083070  12.4777660  22.9399370 118.8158050  11.9224550  22.2234870
 117.5783770  12.6122120  22.7572360 124.0598130  28.1944950  25.2306830
 124.0725290  27.7907240  24.3629090 123.5073350  28.9692240  25.1268260
 123.4583570  23.0974790  26.5589440 123.8752360  22.8834900  25.7242900
 124.1823390  23.3547580  27.1298060 120.8963830  20.5426490  19.6759490
 119.9693110  20.4763870  19.9047960 121.0488650  21.4806620  19.5614730
 120.8832910  16.8143490  16.6726650 119.9436580  16.9757450  16.7579110
 121.2016170  17.5329170  16.1262640 124.9261120  22.1046790  20.1794740
 124.3073540  21.7666340  19.5321040 124.9085570  21.4606550  20.8873930
 124.3687680  18.2831330  27.5960550 123.9558860  19.1085040  27.8500540
 123.6363630  17.6976370  27.4036910 116.5020470  21.0691230  22.4579220
 116.0977470  20.3568480  21.9625120 116.5883590  20.7244470  23.3467260
 116.9702170  24.7558790  24.6218430 116.6730460  24.1504260  23.9426210
 117.9201990  24.7936100  24.5107790 115.2149090  17.8434440  26.2378260
 115.7663680  17.9529780  25.4631510 115.7292600  18.2172040  26.9533490
 125.0587780  28.3290660  28.2841530 124.5818340  29.1362850  28.0914140
 124.3749570  27.6768990  28.4367740 116.0620600  24.4940480  31.2726230
 115.1649130  24.7180450  31.5199630 116.0873470  24.6175420  30.3237630
 123.1025820  21.3433600  17.1867490 123.5419100  20.5056030  17.0405310
 123.8154240  21.9763000  17.2731630 114.8891820  21.3653800  29.8483600
 114.7499590  22.2376600  30.2171000 114.0073180  21.0226610  29.7031540
 121.2121200  26.2829670  21.1548730 121.6517110  27.0254000  20.7404120
 121.1508090  26.5256240  22.0787690 116.6872170  27.3075500  32.0568750
 116.6587600  27.7118450  31.1897180 116.5237140  26.3785860  31.8940350
 113.2025100  19.9636210  19.9585870 113.0822700  20.6898300  19.3467140
 112.8925990  19.1939120  19.4813780 110.8410470  23.1351350  25.7654510
 110.9190890  23.2700120  24.8210230 111.4552150  22.4267240  25.9582630
 112.0858100  24.8351540  22.1760690 111.6786180  24.9766130  21.3214290
 112.9771110  24.5511700  21.9731900 121.9036980  28.9843450  29.0827740
 122.4181650  28.8951460  29.8850170 121.0606060  29.3303150  29.3755650
 123.8791380  29.2698790  18.5111740 123.7192520  28.9801730  19.4093570
 123.7138090  28.4938920  17.9756970 116.3579760  29.0497320  20.2883360
 116.1822240  28.1332860  20.0751160 115.5035500  29.4084610  20.5281160
 123.5817510  26.7786350  17.0709740 122.8882670  26.7763640  16.4112020
 124.3240370  26.3545670  16.6403910 123.1467440  28.4049060  21.1458230
 123.6024390  27.6238440  21.4596850 123.4859960  29.1155880  21.6899410
 110.8969990  24.1765520  28.3048970 111.0601030  23.7070880  27.4868340
 111.3622440  23.6689080  28.9697810 115.6688760  13.3071280  23.3409540
 115.2256910  14.0880820  23.0094060 116.2273750  13.6301170  24.0480480
 119.9558570  16.1739800  28.9444860 119.4937940  16.3822820  29.7564800
 119.5536680  15.3599150  28.6415530 124.9563080  17.3948750  30.0741520
 124.1056670  17.0954500  30.3950590 124.7964870  17.6390760  29.1625340
 122.0512790  18.8950500  32.1740310 122.3766200  18.0614250  31.8342540
 122.8393120  19.4179020  32.3218640 118.7847580  12.9281980  18.2215370
 118.1601760  12.9241850  18.9468680 118.6977700  12.0612940  17.8251340
 117.7064660  13.8518610  25.1999140 118.0036990  14.7581440  25.1191160
 118.2550220  13.3637390  24.5858710 115.4602980  18.4304850  21.0690790
 115.2343900  18.2142020  21.9737410 114.6795510  18.8633310  20.7236760
 122.6900740  18.4368220  19.6681440 122.0909630  19.1604020  19.4845060
 123.2380350  18.3745000  18.8857890 117.9002190  19.3290430  31.7351060
 117.8045790  18.3885160  31.5851460 118.7434170  19.5505500  31.3399130
 121.2965610  17.0731760  21.6984720 121.6895180  17.3903960  20.8853410
 121.6582460  16.1943640  21.8129240 113.0312730  15.7404100  29.8884840
 112.6376120  16.5879310  30.0957620 112.3431130  15.1030470  30.0793480
 119.6057780  15.8239070  32.9581580 118.9156100  15.6311270  33.5927670
 120.3490080  16.1073710  33.4905880 110.3329780  13.6632560  23.9214920
 110.0442830  14.2335420  24.6339900 111.0775540  13.1837010  24.2846150
 110.5200010  17.6052680  15.1317640 110.4374680  18.5483440  15.2732630
 110.1683070  17.4627590  14.2529990 121.8820750  19.6637510  25.7935500
 121.1501870  20.1724320  26.1425600 121.4845090  18.8467490  25.4924280
 118.3198140  16.3391710  24.1987990 118.3234200  15.8981660  23.3492530
 119.2149260  16.6609040  24.3059810 114.1700520  16.2218200  23.1582200
 113.8300570  16.6993430  23.9149250 113.4077840  15.7683320  22.7983300
 118.3818290  17.3403790  17.1894750 118.5031110  17.2990270  18.1380570
 117.9966800  18.2027940  17.0341480 122.3446660  15.1171190  25.2058440
 122.3619400  15.5679840  26.0500290 122.0962240  14.2176830  25.4191880
 117.3939790  19.6504930  16.5878050 116.8256690  19.2023180  15.9613960
 118.1028790  20.0097710  16.0543200 112.4708970  23.5516950  30.4644780
 112.0863760  22.9110620  31.0627740 112.7821160  24.2553070  31.0339510
 118.6206110  20.3993490  25.9453400 118.9876240  19.9252060  26.6914740
 118.4311170  21.2735060  26.2861740 111.4846600  15.1437180  22.0746870
 111.1993520  14.7792850  22.9125490 111.4225460  14.4117640  21.4610010
 116.4105480  19.4402130  28.2637610 116.1062550  20.3194110  28.4887970
 117.3651940  19.5001920  28.2995050 114.9387270  23.6463120  18.8604460
 114.1649530  23.1060740  18.7003180 115.6681900  23.1269730  18.5222220
 121.1585190  14.0366440  18.7960240 120.3449800  13.5379610  18.7205550
 120.9647140  14.8764690  18.3796590 121.0794050  22.7137540  30.5399850
 121.0131360  21.7933210  30.2857440 120.4499190  22.8112980  31.2544490
 123.8733580  18.4086090  17.0922400 124.7613200  18.7203320  16.9173740
 123.8438670  17.5358340  16.7002980 114.9824670  23.3143500  22.4983270
 115.5003340  22.5111760  22.4440160 114.5308690  23.2522640  23.3400100
 119.8694170  24.5809780  17.7710570 120.2109870  25.3252010  17.2753890
 119.0406880  24.8940900  18.1335400 112.4669210  20.2804870  29.4108970
 112.1084150  20.9458720  29.9982310 112.1723770  19.4488420  29.7821590
 115.6682330  20.7389110  32.2948520 115.3682470  20.8846290  31.3976340
 116.4393570  20.1794400  32.2021910 121.0110780  25.5358110  30.2903650
 121.0255320  24.6039070  30.0722560 120.3035880  25.6217870  30.9293420
 122.7521580  23.9025620  23.1356080 123.1045400  23.3053750  22.4757450
 121.8683910  23.5769850  23.3064330 118.8384860  24.6623310  20.5426490
 119.5255990  25.2092520  20.9234080 118.0517280  25.2064040  20.5776100
 110.9777260  20.2796130  16.0343570 111.8472110  20.5620930  16.3179490
 110.4867580  21.0932000  15.9192380 118.1412070  21.6669340  20.1551850
 118.5974850  22.4774590  20.3812040 117.7900280  21.3492480  20.9870340
 120.4444680  27.1775680  27.3844150 121.0886900  27.3835060  28.0617570
 120.8074120  26.4164080  26.9315000 114.0423850  12.0106990  20.6274370
 113.9138480  12.0024890  21.5759290 113.2185870  12.3490080  20.2765380
 121.7176760  25.1808030  26.1021600 122.3598990  24.4801190  26.2153770
 122.2426110  25.9606470  25.9218490 123.4914380  25.9802930  29.3057660
 123.8270620  26.5669620  29.9835580 122.5714720  25.8495640  29.5355450
 111.3448510  29.4923510  16.6005200 111.7046150  30.0912850  15.9462470
 111.2040850  30.0383400  17.3740230 111.0417780  13.7698110  30.0881070
 110.3276300  13.9695030  30.6933680 111.4612820  12.9937680  30.4595870
 111.3290370  27.7578370  31.0747600 111.4381490  26.8173110  30.9342990
 110.6770930  28.0233120  30.4261330 119.3202960  26.0294260  32.4745720
 118.9999830  25.3103500  33.0191410 118.6461320  26.7049330  32.5481780
 117.3617130  26.8754710  17.4178870 117.3527230  27.6084400  16.8023380
 116.4415490  26.6286290  17.5105830 112.9623770  22.0969600  18.1625630
 112.3551720  22.8368500  18.1720930 113.4373120  22.1868960  17.3363830
 122.5356560  16.2620420  27.8382520 122.9037380  15.4415630  28.1662090
 121.6754760  16.3222310  28.2538170 120.3476730  26.9382950  16.0804060
 120.4488710  26.7346940  15.1506040 119.4478470  26.6841230  16.2851840
 117.8702620  17.4963310  20.0627960 117.1618770  17.9649650  20.5041570
 118.1547100  16.8385320  20.6973150 119.4958550  18.9160010  28.0620490
 119.9943800  19.3905830  28.7272340 119.6381500  17.9923530  28.2690520
 121.9018050  14.2213970  21.5023750 121.7785830  14.2400100  20.5533260
 122.8502610  14.2692910  21.6222150 118.9894840  29.4569270  20.7751730
 119.2436340  29.4190660  19.8531100 118.0407320  29.3302600  20.7679980
 116.0737640  15.8048390  17.4378670 116.9228170  16.2418540  17.3718860
 115.7068910  16.1168650  18.2650730 124.9947420  20.3761150  22.3510240
 124.0537560  20.3911380  22.5257930 125.3091490  19.5897110  22.7970540
 114.9729060  22.0580750  15.9114200 115.7392330  21.9462110  16.4739630
 115.0503750  21.3618720  15.2590970 113.6675820  19.4905820  16.5947090
 113.7479410  18.5433330  16.7064490 114.5595570  19.8212700  16.7007750
 114.4690530  29.6401210  23.6981630 115.2053010  29.0916670  23.9690200
 114.8531450  30.5057220  23.5587620 111.3536010  25.7074780  19.5723140
 110.4275790  25.9495920  19.5628550 111.8192440  26.5349040  19.4507890
 113.4748810  28.8247280  32.8867210 114.2761540  29.1459330  33.3002610
 112.9600630  28.4642860  33.6087120 117.5792840  28.8131520  15.5207200
 118.3721450  29.1020350  15.0688990 117.0597190  28.3823690  14.8419680
 122.3113440  24.9327150  32.8342620 121.7051600  24.9558750  32.0938370
 122.0067550  24.2010190  33.3709870 123.7413810  28.6607440  31.4452030
 124.6935560  28.5765460  31.3952270 123.5942030  29.3249150  32.1185820
 111.1946620  21.3120740  31.8303260 111.6985640  20.7328020  32.4019490
 110.4554040  21.5960970  32.3679630 118.0970240  24.0334930  15.3849550
 117.9920880  23.4187280  16.1110930 117.9294460  23.5100820  14.6012560
 118.2484560  22.7191730  31.3638780 117.4830230  23.2876730  31.2793450
 118.4300520  22.4267940  30.4707010 121.3372970  23.0954960  15.9891540
 120.7883070  23.5424260  16.6334280 121.9592230  22.5904210  16.5129210
 113.2269700  19.4550330  32.7253330 113.2675040  19.1564200  33.6338560
 114.0815200  19.8557940  32.5660850 117.0048090  22.0545880  17.8856840
 117.4264510  21.8885750  18.7288230 117.1298930  21.2446110  17.3911980
 115.1675510  18.0342430  30.6927820 114.6371970  17.5433380  30.0651160
 115.8363580  18.4626630  30.1585750 119.5175730  21.0783490  15.1333940
 120.0381390  20.3632510  14.7675090 120.1644130  21.7169360  15.4334450
 124.0653570  22.5011890  30.4569010 124.4794590  22.6556970  31.3059430
 123.1304570  22.6267110  30.6194790 124.5375740  19.8408050  32.4608160
 125.1196510  19.0860370  32.3728640 124.7137510  20.3715490  31.6839640
 115.6547810  15.0004800  30.7725110 115.5604680  14.3825550  30.0475980
 115.0745200  15.7271090  30.5455020 118.4209250  13.5578040  27.8052500
 117.9726550  13.5802300  26.9598050 117.7874450  13.1597060  28.4022800
 118.8268800  22.4532370  28.4264940 119.2456910  23.2965100  28.2541180
 117.9077430  22.5904410  28.1971720 121.1632700  20.1848550  29.8102780
 121.2828910  19.5889690  30.5497620 122.0226700  20.2218240  29.3904080
 123.5020600  20.7385740  28.3865290 122.9755820  21.2628360  27.7830430
 123.8451940  21.3713130  29.0175020 115.9006990  18.1279110  14.8315000
 115.6996050  17.2646470  15.1928340 115.7299040  18.0412470  13.8936600
 116.6776220  28.7585380  29.5422670 116.1397310  29.4831440  29.2231370
 116.9310180  28.2815720  28.7520010 117.9301470  16.7269900  31.0678600
 118.5201160  16.4185750  31.7556420 117.1121710  16.2549650  31.2238500
 122.7494900  16.3435710  31.3011620 122.0610420  15.6817250  31.2361610
 123.4700920  15.8973980  31.7460080 123.3795300  12.9387340  17.3601880
 123.6597590  12.0955240  17.7161300 122.6061030  13.1710450  17.8740630
 114.6989790  15.2279730  14.8192880 115.0015690  15.2347160  13.9112030
 115.4384380  14.8777590  15.3160540 119.5338430  29.9936590  29.8009320
 119.4597130  30.8971730  30.1081690 118.6317270  29.6748490  29.7731390
 117.9174720  14.1714350  15.8049080 117.5696720  13.4938340  15.2251530
 118.1187490  13.7103860  16.6192470 120.0823760  29.1595100  17.4235680
 120.9774550  29.4980070  17.4454440 120.1141390  28.4374510  16.7959960
 113.7219920  24.5322150  15.6522680 114.1594790  25.0751820  16.3080260
 114.2067650  23.7069100  15.6619020 110.9365720  27.3211180  23.1042940
 111.2668730  26.4532240  22.8721580 111.3656720  27.5269700  23.9347900
 115.5327640  25.6520190  20.7644910 115.2323180  25.5285160  21.6648820
 115.4265130  24.7928780  20.3560640 111.4255930  28.1881770  25.8424570
 110.9886920  28.3682570  26.6748720 111.9933610  28.9456390  25.7006290
 111.2580360  20.7002000  22.2013450 110.6029200  20.4313640  21.5573150
 112.0958310  20.5906480  21.7515430 124.2070800  15.4943290  16.4231940
 124.6255680  15.3074270  15.5828600 123.9006860  14.6422340  16.7334870
 112.2956290  21.0854570  26.7416790 112.6629330  20.9981970  27.6212810
 111.7267110  20.3221120  26.6423650 111.8472290  17.9963660  30.6475210
 110.9528340  17.9630420  30.9868920 112.3869840  18.1950450  31.4126460
 110.4718440  17.9100930  18.1438780 109.5682520  18.1731130  17.9690440
 110.9559060  18.1812100  17.3638740 113.0145650  16.9666470  16.0533160
 113.7237350  16.5449690  15.5680440 112.2985590  17.0341700  15.4216510
 112.6619810  13.0205800  15.0935810 113.3847940  13.5614740  15.4117030
 112.9344330  12.7469220  14.2177350 112.3512000  12.2711990  24.9958430
 112.9988190  11.7209370  24.5553590 112.7713840  12.5255140  25.8174240
 112.1044000  12.4267660  27.7383750 111.7558820  12.8831480  28.5041930
 111.7731700  11.5324790  27.8206180 113.7108370  25.5987260  31.9036940
 113.6678000  25.2280170  32.7851400 113.8419380  26.5364830  32.0438760
 117.4114400  27.1546850  27.5046660 117.1705760  27.4221410  26.6177180
 118.3517040  27.3252580  27.5597520 119.6168820  13.6179540  31.2603170
 119.5557710  14.2101370  32.0098580 120.5569200  13.5105500  31.1153430
 122.2543380  13.2749600  30.8995460 122.8683790  13.5928890  30.2376540
 122.7992940  12.7898190  31.5191320 112.7764640  11.9543860  31.0134520
 113.3247630  11.7731910  30.2500630 112.8419950  11.1637970  31.5490830
 113.5496400  28.5449510  29.0234720 112.9556720  28.4134210  29.7624760
 113.5420240  27.7087650  28.5576820 122.9951420  11.8381740  27.2264750
 122.1211260  12.1716850  27.0237680 122.8862170  11.3654920  28.0516620
 123.9023400  14.0452610  28.6106470 123.5736760  13.2304370  28.2308200
 124.8505700  14.0022420  28.4872160 113.1808630  25.9107890  27.9742760
 112.4542690  25.2913180  27.9068710 113.2417780  26.3048500  27.1040840
 116.7853730  28.1252890  24.7592170 117.3018750  27.5140250  24.2340430
 117.4351110  28.6281670  25.2503180 119.5249230  29.0161380  25.5861150
 119.8127040  28.7615680  24.7094160 120.0372450  28.4638740  26.1766720
 120.7426240  12.7551580  26.1657660 119.9598030  13.2297080  26.4454420
 120.4489170  11.8506410  26.0570840 111.4638630  29.2282280  21.1839520
 111.2960670  28.5952960  21.8821410 110.5973140  29.4341680  20.8333710
 112.0866650  13.0599060  18.6871380 112.8446010  13.1727940  18.1135410
 111.6243820  13.8968260  18.6414810 118.6280460  15.1738330  21.6773690
 117.8154970  14.7995220  21.3369570 119.1322100  14.4183410  21.9794880
 123.1305440  11.8380780  22.9156760 123.7334810  12.4100990  23.3905280
 122.3898430  12.4020220  22.6930660 113.0701330  27.9215510  18.6289660
 112.5448950  28.3023540  17.9251620 112.9945910  28.5466280  19.3499370
 114.4591800  13.5863110  17.2273350 114.9884560  12.7992910  17.0981300
 115.0920120  14.2654300  17.4608880 116.6529640  13.3238250  20.2818740
 116.0232380  12.6225560  20.4488870 116.1134780  14.0842380  20.0651900
 119.5921590  29.9377480  32.9529350 120.5188900  29.7021750  32.9965310
 119.5772020  30.7649480  32.4715380 116.7785200  12.6022230  32.7171230
 116.4969470  13.1055830  31.9532050 117.1604900  11.8043980  32.3513360
 115.6694300  29.8697890  17.5038910 116.4013120  29.5857170  16.9562800
 115.9287970  29.6311170  18.3938290 114.8309090  25.9862620  17.5085240
 114.2017970  26.4547720  18.0571070 114.9456920  25.1411840  17.9431430
 123.3800660  12.0175810  33.2951700 123.2666110  12.3370420  34.1903220
 124.1970400  12.4188320  32.9988980 122.2858810  20.0368280   3.6586440
 122.2052860  19.1222890   3.3878150 121.8723230  20.5335350   2.9526150
 120.4176850  21.8147300   5.5395710 119.6418950  21.3347740   5.8294280
 121.0689780  21.1352950   5.3651870 114.4342680  22.1267110   6.4171470
 113.6027560  21.8715820   6.8167980 115.0423660  22.1977880   7.1529390
 124.4384280  26.2207490   4.3194840 123.9765810  25.4494730   4.6482010
 125.2509830  26.2473560   4.8247290 114.4143940  26.1607200   6.6129490
 114.7171980  25.2704940   6.4339710 115.1587530  26.7177420   6.3851740
 110.8067640  19.6874650   6.0853560 111.3783750  18.9196850   6.0857200
 110.8069180  19.9863410   5.1760170 120.6647590  28.5065500   3.9398830
 120.0459030  28.9623000   3.3693270 121.5199370  28.6616960   3.5388530
 119.8585840  24.4904490   5.5465870 119.7894120  23.5494430   5.3855000
 120.6205700  24.5805900   6.1188440 112.0492510  15.0959010   7.8722490
 111.8695350  14.1984760   8.1525250 111.6472590  15.6430880   8.5469440
 120.8891010  17.2974870   5.7734800 121.2655830  16.4246750   5.6608470
 120.7910520  17.6333570   4.8825240 112.6679180  17.5919510   6.4804830
 113.3489290  17.8557880   7.0992230 112.3527230  16.7520380   6.8142840
 116.8603750  18.6386870   5.5677420 117.3681970  19.1367840   6.2082440
 117.3916990  17.8622070   5.3916780 115.1439850  13.2785430   9.8340840
 115.1458290  13.7957820   9.0286740 114.3144160  12.8015610   9.8110770
 116.3942700  22.9180610   8.0114340 116.0612080  23.5449530   8.6535410
 116.5709380  23.4442490   7.2316010 124.9076610  16.7325690   5.4790680
 124.2032180  17.0210580   6.0593790 125.2688770  17.5425800   5.1190240
 114.8255180  14.9895390   7.8411290 115.1671990  15.8337440   7.5465160
 113.8870990  15.1379130   7.9576630 115.6061800  24.8861410   9.8263520
 116.2235800  25.5612490   9.5447970 114.7454920  25.2949390   9.7351020
 118.5083070  12.4777660   4.1655880 118.8158050  11.9224550   3.4491380
 117.5783770  12.6122120   3.9828870 124.0598130  28.1944950   6.4563340
 124.0725290  27.7907240   5.5885600 123.5073350  28.9692240   6.3524770
 123.4583570  23.0974790   7.7845950 123.8752360  22.8834900   6.9499410
 124.1823390  23.3547580   8.3554570 124.3687680  18.2831330   8.8217060
 123.9558860  19.1085040   9.0757050 123.6363630  17.6976370   8.6293420
 116.5020470  21.0691230   3.6835730 116.0977470  20.3568480   3.1881630
 116.5883590  20.7244470   4.5723770 116.9702170  24.7558790   5.8474940
 116.6730460  24.1504260   5.1682720 117.9201990  24.7936100   5.7364300
 115.2149090  17.8434440   7.4634770 115.7663680  17.9529780   6.6888020
 115.7292600  18.2172040   8.1790000 125.0587780  28.3290660   9.5098040
 124.5818340  29.1362850   9.3170650 124.3749570  27.6768990   9.6624250
 116.0620600  24.4940480  12.4982740 115.1649130  24.7180450  12.7456140
 116.0873470  24.6175420  11.5494140 114.8891820  21.3653800  11.0740110
 114.7499590  22.2376600  11.4427510 114.0073180  21.0226610  10.9288050
 121.2121200  26.2829670   2.3805240 121.6517110  27.0254000   1.9660630
 121.1508090  26.5256240   3.3044200 116.6872170  27.3075500  13.2825260
 116.6587600  27.7118450  12.4153690 116.5237140  26.3785860  13.1196860
 110.8410470  23.1351350   6.9911020 110.9190890  23.2700120   6.0466740
 111.4552150  22.4267240   7.1839140 112.0858100  24.8351540   3.4017200
 111.6786180  24.9766130   2.5470800 112.9771110  24.5511700   3.1988410
 121.9036980  28.9843450  10.3084250 122.4181650  28.8951460  11.1106680
 121.0606060  29.3303150  10.6012160 123.1467440  28.4049060   2.3714740
 123.6024390  27.6238440   2.6853360 123.4859960  29.1155880   2.9155920
 110.8969990  24.1765520   9.5305480 111.0601030  23.7070880   8.7124850
 111.3622440  23.6689080  10.1954320 115.6688760  13.3071280   4.5666050
 115.2256910  14.0880820   4.2350570 116.2273750  13.6301170   5.2736990
 119.9558570  16.1739800  10.1701370 119.4937940  16.3822820  10.9821310
 119.5536680  15.3599150   9.8672040 124.9563080  17.3948750  11.2998030
 124.1056670  17.0954500  11.6207100 124.7964870  17.6390760  10.3881850
 122.0512790  18.8950500  13.3996820 122.3766200  18.0614250  13.0599050
 122.8393120  19.4179020  13.5475150 117.7064660  13.8518610   6.4255650
 118.0036990  14.7581440   6.3447670 118.2550220  13.3637390   5.8115220
 115.4602980  18.4304850   2.2947300 115.2343900  18.2142020   3.1993920
 114.6795510  18.8633310   1.9493270 117.9002190  19.3290430  12.9607570
 117.8045790  18.3885160  12.8107970 118.7434170  19.5505500  12.5655640
 121.2965610  17.0731760   2.9241230 121.6895180  17.3903960   2.1109920
 121.6582460  16.1943640   3.0385750 113.0312730  15.7404100  11.1141350
 112.6376120  16.5879310  11.3214130 112.3431130  15.1030470  11.3049990
 119.6057780  15.8239070  14.1838090 118.9156100  15.6311270  14.8184180
 120.3490080  16.1073710  14.7162390 110.3329780  13.6632560   5.1471430
 110.0442830  14.2335420   5.8596410 111.0775540  13.1837010   5.5102660
 121.8820750  19.6637510   7.0192010 121.1501870  20.1724320   7.3682110
 121.4845090  18.8467490   6.7180790 118.3198140  16.3391710   5.4244500
 118.3234200  15.8981660   4.5749040 119.2149260  16.6609040   5.5316320
 114.1700520  16.2218200   4.3838710 113.8300570  16.6993430   5.1405760
 113.4077840  15.7683320   4.0239810 122.3446660  15.1171190   6.4314950
 122.3619400  15.5679840   7.2756800 122.0962240  14.2176830   6.6448390
 112.4708970  23.5516950  11.6901290 112.0863760  22.9110620  12.2884250
 112.7821160  24.2553070  12.2596020 118.6206110  20.3993490   7.1709910
 118.9876240  19.9252060   7.9171250 118.4311170  21.2735060   7.5118250
 111.4846600  15.1437180   3.3003380 111.1993520  14.7792850   4.1382000
 111.4225460  14.4117640   2.6866520 116.4105480  19.4402130   9.4894120
 116.1062550  20.3194110   9.7144480 117.3651940  19.5001920   9.5251560
 121.0794050  22.7137540  11.7656360 121.0131360  21.7933210  11.5113950
 120.4499190  22.8112980  12.4801000 114.9824670  23.3143500   3.7239780
 115.5003340  22.5111760   3.6696670 114.5308690  23.2522640   4.5656610
 112.4669210  20.2804870  10.6365480 112.1084150  20.9458720  11.2238820
 112.1723770  19.4488420  11.0078100 115.6682330  20.7389110  13.5205030
 115.3682470  20.8846290  12.6232850 116.4393570  20.1794400  13.4278420
 121.0110780  25.5358110  11.5160160 121.0255320  24.6039070  11.2979070
 120.3035880  25.6217870  12.1549930 122.7521580  23.9025620   4.3612590
 123.1045400  23.3053750   3.7013960 121.8683910  23.5769850   4.5320840
 118.8384860  24.6623310   1.7683000 119.5255990  25.2092520   2.1490590
 118.0517280  25.2064040   1.8032610 120.4444680  27.1775680   8.6100660
 121.0886900  27.3835060   9.2874080 120.8074120  26.4164080   8.1571510
 121.7176760  25.1808030   7.3278110 122.3598990  24.4801190   7.4410280
 122.2426110  25.9606470   7.1475000 123.4914380  25.9802930  10.5314170
 123.8270620  26.5669620  11.2092090 122.5714720  25.8495640  10.7611960
 111.0417780  13.7698110  11.3137580 110.3276300  13.9695030  11.9190190
 111.4612820  12.9937680  11.6852380 111.3290370  27.7578370  12.3004110
 111.4381490  26.8173110  12.1599500 110.6770930  28.0233120  11.6517840
 119.3202960  26.0294260  13.7002230 118.9999830  25.3103500  14.2447920
 118.6461320  26.7049330  13.7738290 122.5356560  16.2620420   9.0639030
 122.9037380  15.4415630   9.3918600 121.6754760  16.3222310   9.4794680
 119.4958550  18.9160010   9.2877000 119.9943800  19.3905830   9.9528850
 119.6381500  17.9923530   9.4947030 121.9018050  14.2213970   2.7280260
 121.7785830  14.2400100   1.7789770 122.8502610  14.2692910   2.8478660
 124.9947420  20.3761150   3.5766750 124.0537560  20.3911380   3.7514440
 125.3091490  19.5897110   4.0227050 114.4690530  29.6401210   4.9238140
 115.2053010  29.0916670   5.1946710 114.8531450  30.5057220   4.7844130
 113.4748810  28.8247280  14.1123720 114.2761540  29.1459330  14.5259120
 112.9600630  28.4642860  14.8343630 122.3113440  24.9327150  14.0599130
 121.7051600  24.9558750  13.3194880 122.0067550  24.2010190  14.5966380
 123.7413810  28.6607440  12.6708540 124.6935560  28.5765460  12.6208780
 123.5942030  29.3249150  13.3442330 111.1946620  21.3120740  13.0559770
 111.6985640  20.7328020  13.6276000 110.4554040  21.5960970  13.5936140
 118.2484560  22.7191730  12.5895290 117.4830230  23.2876730  12.5049960
 118.4300520  22.4267940  11.6963520 113.2269700  19.4550330  13.9509840
 113.2675040  19.1564200  14.8595070 114.0815200  19.8557940  13.7917360
 115.1675510  18.0342430  11.9184330 114.6371970  17.5433380  11.2907670
 115.8363580  18.4626630  11.3842260 124.0653570  22.5011890  11.6825520
 124.4794590  22.6556970  12.5315940 123.1304570  22.6267110  11.8451300
 124.5375740  19.8408050  13.6864670 125.1196510  19.0860370  13.5985150
 124.7137510  20.3715490  12.9096150 115.6547810  15.0004800  11.9981620
 115.5604680  14.3825550  11.2732490 115.0745200  15.7271090  11.7711530
 118.4209250  13.5578040   9.0309010 117.9726550  13.5802300   8.1854560
 117.7874450  13.1597060   9.6279310 118.8268800  22.4532370   9.6521450
 119.2456910  23.2965100   9.4797690 117.9077430  22.5904410   9.4228230
 121.1632700  20.1848550  11.0359290 121.2828910  19.5889690  11.7754130
 122.0226700  20.2218240  10.6160590 123.5020600  20.7385740   9.6121800
 122.9755820  21.2628360   9.0086940 123.8451940  21.3713130  10.2431530
 116.6776220  28.7585380  10.7679180 116.1397310  29.4831440  10.4487880
 116.9310180  28.2815720   9.9776520 117.9301470  16.7269900  12.2935110
 118.5201160  16.4185750  12.9812930 117.1121710  16.2549650  12.4495010
 122.7494900  16.3435710  12.5268130 122.0610420  15.6817250  12.4618120
 123.4700920  15.8973980  12.9716590 119.5338430  29.9936590  11.0265830
 119.4597130  30.8971730  11.3338200 118.6317270  29.6748490  10.9987900
 110.9365720  27.3211180   4.3299450 111.2668730  26.4532240   4.0978090
 111.3656720  27.5269700   5.1604410 111.4255930  28.1881770   7.0681080
 110.9886920  28.3682570   7.9005230 111.9933610  28.9456390   6.9262800
 111.2580360  20.7002000   3.4269960 110.6029200  20.4313640   2.7829660
 112.0958310  20.5906480   2.9771940 112.2956290  21.0854570   7.9673300
 112.6629330  20.9981970   8.8469320 111.7267110  20.3221120   7.8680160
 111.8472290  17.9963660  11.8731720 110.9528340  17.9630420  12.2125430
 112.3869840  18.1950450  12.6382970 112.3512000  12.2711990   6.2214940
 112.9988190  11.7209370   5.7810100 112.7713840  12.5255140   7.0430750
 112.1044000  12.4267660   8.9640260 111.7558820  12.8831480   9.7298440
 111.7731700  11.5324790   9.0462690 113.7108370  25.5987260  13.1293450
 113.6678000  25.2280170  14.0107910 113.8419380  26.5364830  13.2695270
 117.4114400  27.1546850   8.7303170 117.1705760  27.4221410   7.8433690
 118.3517040  27.3252580   8.7854030 119.6168820  13.6179540  12.4859680
 119.5557710  14.2101370  13.2355090 120.5569200  13.5105500  12.3409940
 122.2543380  13.2749600  12.1251970 122.8683790  13.5928890  11.4633050
 122.7992940  12.7898190  12.7447830 112.7764640  11.9543860  12.2391030
 113.3247630  11.7731910  11.4757140 112.8419950  11.1637970  12.7747340
 113.5496400  28.5449510  10.2491230 112.9556720  28.4134210  10.9881270
 113.5420240  27.7087650   9.7833330 122.9951420  11.8381740   8.4521260
 122.1211260  12.1716850   8.2494190 122.8862170  11.3654920   9.2773130
 123.9023400  14.0452610   9.8362980 123.5736760  13.2304370   9.4564710
 124.8505700  14.0022420   9.7128670 113.1808630  25.9107890   9.1999270
 112.4542690  25.2913180   9.1325220 113.2417780  26.3048500   8.3297350
 116.7853730  28.1252890   5.9848680 117.3018750  27.5140250   5.4596940
 117.4351110  28.6281670   6.4759690 119.5249230  29.0161380   6.8117660
 119.8127040  28.7615680   5.9350670 120.0372450  28.4638740   7.4023230
 120.7426240  12.7551580   7.3914170 119.9598030  13.2297080   7.6710930
 120.4489170  11.8506410   7.2827350 111.4638630  29.2282280   2.4096030
 111.2960670  28.5952960   3.1077920 110.5973140  29.4341680   2.0590220
 118.6280460  15.1738330   2.9030200 117.8154970  14.7995220   2.5626080
 119.1322100  14.4183410   3.2051390 123.1305440  11.8380780   4.1413270
 123.7334810  12.4100990   4.6161790 122.3898430  12.4020220   3.9187170
 119.5921590  29.9377480  14.1785860 120.5188900  29.7021750  14.2221820
 119.5772020  30.7649480  13.6971890 116.7785200  12.6022230  13.9427740
 116.4969470  13.1055830  13.1788560 117.1604900  11.8043980  13.5769870
 123.3800660  12.0175810  14.5208210 123.2666110  12.3370420  15.4159730
 124.1970400  12.4188320  14.2245490 120.4176850   3.0403810  99.4113160
 119.6418950   2.5604250  99.7011730 121.0689780   2.3609460  99.2369320
 114.4342680   3.3523620 100.2888920 113.6027560   3.0972330 100.6885430
 115.0423660   3.4234390 101.0246840 124.4384280   7.4464000  98.1912290
 123.9765810   6.6751240  98.5199460 125.2509830   7.4730070  98.6964740
 114.4143940   7.3863710 100.4846940 114.7171980   6.4961450 100.3057160
 115.1587530   7.9433930 100.2569190 120.6647590   9.7322010  97.8116280
 120.0459030  10.1879510  97.2410720 121.5199370   9.8873470  97.4105980
 119.8585840   5.7161000  99.4183320 119.7894120   4.7750940  99.2572450
 120.6205700   5.8062410  99.9905890 121.5310940   4.6161250  95.2048190
 120.9128210   5.0810700  94.6410910 122.0434190   5.3088730  95.6217700
 116.3942700   4.1437120 101.8831790 116.0612080   4.7706040 102.5252860
 116.5709380   4.6699000 101.1033460 110.8994140   5.3017780  92.5787820
 110.5222120   5.7904880  91.8472720 111.1567210   5.9743060  93.2094350
 124.0598130   9.4201460 100.3280790 124.0725290   9.0163750  99.4603050
 123.5073350  10.1948750 100.2242220 123.4583570   4.3231300 101.6563400
 123.8752360   4.1091410 100.8216860 124.1823390   4.5804090 102.2272020
 120.8963830   1.7683000  94.7733450 119.9693110   1.7020380  95.0021920
 121.0488650   2.7063130  94.6588690 124.9261120   3.3303300  95.2768700
 124.3073540   2.9922850  94.6295000 124.9085570   2.6863060  95.9847890
 116.5020470   2.2947740  97.5553180 116.0977470   1.5824990  97.0599080
 116.5883590   1.9500980  98.4441220 116.9702170   5.9815300  99.7192390
 116.6730460   5.3760770  99.0400170 117.9201990   6.0192610  99.6081750
 123.1025820   2.5690110  92.2841450 123.5419100   1.7312540  92.1379270
 123.8154240   3.2019510  92.3705590 121.2121200   7.5086180  96.2522690
 121.6517110   8.2510510  95.8378080 121.1508090   7.7512750  97.1761650
 110.8410470   4.3607860 100.8628470 110.9190890   4.4956630  99.9184190
 111.4552150   3.6523750 101.0556590 112.0858100   6.0608050  97.2734650
 111.6786180   6.2022640  96.4188250 112.9771110   5.7768210  97.0705860
 123.8791380  10.4955300  93.6085700 123.7192520  10.2058240  94.5067530
 123.7138090   9.7195430  93.0730930 116.3579760  10.2753830  95.3857320
 116.1822240   9.3589370  95.1725120 115.5035500  10.6341120  95.6255120
 123.5817510   8.0042860  92.1683700 122.8882670   8.0020150  91.5085980
 124.3240370   7.5802180  91.7377870 123.1467440   9.6305570  96.2432190
 123.6024390   8.8494950  96.5570810 123.4859960  10.3412390  96.7873370
 114.9387270   4.8719630  93.9578420 114.1649530   4.3317250  93.7977140
 115.6681900   4.3526240  93.6196180 114.9824670   4.5400010  97.5957230
 115.5003340   3.7368270  97.5414120 114.5308690   4.4779150  98.4374060
 119.8694170   5.8066290  92.8684530 120.2109870   6.5508520  92.3727850
 119.0406880   6.1197410  93.2309360 122.7521580   5.1282130  98.2330040
 123.1045400   4.5310260  97.5731410 121.8683910   4.8026360  98.4038290
 118.8384860   5.8879820  95.6400450 119.5255990   6.4349030  96.0208040
 118.0517280   6.4320550  95.6750060 118.1412070   2.8925850  95.2525810
 118.5974850   3.7031100  95.4786000 117.7900280   2.5748990  96.0844300
 121.7176760   6.4064540 101.1995560 122.3598990   5.7057700 101.3127730
 122.2426110   7.1862980 101.0192450 111.3448510  10.7180020  91.6979160
 111.7046150  11.3169360  91.0436430 111.2040850  11.2639910  92.4714190
 117.3617130   8.1011220  92.5152830 117.3527230   8.8340910  91.8997340
 116.4415490   7.8542800  92.6079790 112.9623770   3.3226110  93.2599590
 112.3551720   4.0625010  93.2694890 113.4373120   3.4125470  92.4337790
 120.3476730   8.1639460  91.1778020 120.4488710   7.9603450  90.2480000
 119.4478470   7.9097740  91.3825800 118.9894840  10.6825780  95.8725690
 119.2436340  10.6447170  94.9505060 118.0407320  10.5559110  95.8653940
 114.9729060   3.2837260  91.0088160 115.7392330   3.1718620  91.5713590
 115.0503750   2.5875230  90.3564930 114.4690530  10.8657720  98.7955590
 115.2053010  10.3173180  99.0664160 114.8531450  11.7313730  98.6561580
 111.3536010   6.9331290  94.6697100 110.4275790   7.1752430  94.6602510
 111.8192440   7.7605550  94.5481850 117.5792840  10.0388030  90.6181160
 118.3721450  10.3276860  90.1662950 117.0597190   9.6080200  89.9393640
 118.0970240   5.2591440  90.4823510 117.9920880   4.6443790  91.2084890
 117.9294460   4.7357330  89.6986520 121.3372970   4.3211470  91.0865500
 120.7883070   4.7680770  91.7308240 121.9592230   3.8160720  91.6103170
 117.0048090   3.2802390  92.9830800 117.4264510   3.1142260  93.8262190
 117.1298930   2.4702620  92.4885940 119.5175730   2.3040000  90.2307900
 120.0381390   1.5889020  89.8649050 120.1644130   2.9425870  90.5308410
 120.0823760  10.3851610  92.5209640 120.9774550  10.7236580  92.5428400
 120.1141390   9.6631020  91.8933920 113.7219920   5.7578660  90.7496640
 114.1594790   6.3008330  91.4054220 114.2067650   4.9325610  90.7592980
 110.9365720   8.5467690  98.2016900 111.2668730   7.6788750  97.9695540
 111.3656720   8.7526210  99.0321860 115.5327640   6.8776700  95.8618870
 115.2323180   6.7541670  96.7622780 115.4265130   6.0185290  95.4534600
 111.4255930   9.4138280 100.9398530 110.9886920   9.5939080 101.7722680
 111.9933610  10.1712900 100.7980250 111.2580360   1.9258510  97.2987410
 110.6029200   1.6570150  96.6547110 112.0958310   1.8162990  96.8489390
 112.2956290   2.3111080 101.8390750 112.6629330   2.2238480 102.7186770
 111.7267110   1.5477630 101.7397610 117.4114400   8.3803360 102.6020620
 117.1705760   8.6477920 101.7151140 118.3517040   8.5509090 102.6571480
 116.7853730   9.3509400  99.8566130 117.3018750   8.7396760  99.3314390
 117.4351110   9.8538180 100.3477140 119.5249230  10.2417890 100.6835110
 119.8127040   9.9872190  99.8068120 120.0372450   9.6895250 101.2740680
 111.4638630  10.4538790  96.2813480 111.2960670   9.8209470  96.9795370
 110.5973140  10.6598190  95.9307670 113.0701330   9.1472020  93.7263620
 112.5448950   9.5280050  93.0225580 112.9945910   9.7722790  94.4473330
 115.6694300  11.0954400  92.6012870 116.4013120  10.8113680  92.0536760
 115.9287970  10.8567680  93.4912250 114.8309090   7.2119130  92.6059200
 114.2017970   7.6804230  93.1545030 114.9456920   6.3668350  93.0405390
 120.4176850   3.0403810  80.6369670 119.6418950   2.5604250  80.9268240
 121.0689780   2.3609460  80.4625830 114.4342680   3.3523620  81.5145430
 113.6027560   3.0972330  81.9141940 115.0423660   3.4234390  82.2503350
 124.4384280   7.4464000  79.4168800 123.9765810   6.6751240  79.7455970
 125.2509830   7.4730070  79.9221250 114.4143940   7.3863710  81.7103450
 114.7171980   6.4961450  81.5313670 115.1587530   7.9433930  81.4825700
 120.6647590   9.7322010  79.0372790 120.0459030  10.1879510  78.4667230
 121.5199370   9.8873470  78.6362490 119.8585840   5.7161000  80.6439830
 119.7894120   4.7750940  80.4828960 120.6205700   5.8062410  81.2162400
 121.5310940   4.6161250  76.4304700 120.9128210   5.0810700  75.8667420
 122.0434190   5.3088730  76.8474210 116.3942700   4.1437120  83.1088300
 116.0612080   4.7706040  83.7509370 116.5709380   4.6699000  82.3289970
 115.6061800   6.1117920  84.9237480 116.2235800   6.7869000  84.6421930
 114.7454920   6.5205900  84.8324980 110.8994140   5.3017780  73.8044330
 110.5222120   5.7904880  73.0729230 111.1567210   5.9743060  74.4350860
 124.0598130   9.4201460  81.5537300 124.0725290   9.0163750  80.6859560
 123.5073350  10.1948750  81.4498730 123.4583570   4.3231300  82.8819910
 123.8752360   4.1091410  82.0473370 124.1823390   4.5804090  83.4528530
 120.8963830   1.7683000  75.9989960 119.9693110   1.7020380  76.2278430
 121.0488650   2.7063130  75.8845200 124.9261120   3.3303300  76.5025210
 124.3073540   2.9922850  75.8551510 124.9085570   2.6863060  77.2104400
 116.5020470   2.2947740  78.7809690 116.0977470   1.5824990  78.2855590
 116.5883590   1.9500980  79.6697730 116.9702170   5.9815300  80.9448900
 116.6730460   5.3760770  80.2656680 117.9201990   6.0192610  80.8338260
 125.0587780   9.5547170  84.6072000 124.5818340  10.3619360  84.4144610
 124.3749570   8.9025500  84.7598210 116.0620600   5.7196990  87.5956700
 115.1649130   5.9436960  87.8430100 116.0873470   5.8431930  86.6468100
 123.1025820   2.5690110  73.5097960 123.5419100   1.7312540  73.3635780
 123.8154240   3.2019510  73.5962100 114.8891820   2.5910310  86.1714070
 114.7499590   3.4633110  86.5401470 114.0073180   2.2483120  86.0262010
 121.2121200   7.5086180  77.4779200 121.6517110   8.2510510  77.0634590
 121.1508090   7.7512750  78.4018160 116.6872170   8.5332010  88.3799220
 116.6587600   8.9374960  87.5127650 116.5237140   7.6042370  88.2170820
 110.8410470   4.3607860  82.0884980 110.9190890   4.4956630  81.1440700
 111.4552150   3.6523750  82.2813100 112.0858100   6.0608050  78.4991160
 111.6786180   6.2022640  77.6444760 112.9771110   5.7768210  78.2962370
 121.9036980  10.2099960  85.4058210 122.4181650  10.1207970  86.2080640
 121.0606060  10.5559660  85.6986120 123.8791380  10.4955300  74.8342210
 123.7192520  10.2058240  75.7324040 123.7138090   9.7195430  74.2987440
 116.3579760  10.2753830  76.6113830 116.1822240   9.3589370  76.3981630
 115.5035500  10.6341120  76.8511630 123.5817510   8.0042860  73.3940210
 122.8882670   8.0020150  72.7342490 124.3240370   7.5802180  72.9634380
 123.1467440   9.6305570  77.4688700 123.6024390   8.8494950  77.7827320
 123.4859960  10.3412390  78.0129880 110.8969990   5.4022030  84.6279440
 111.0601030   4.9327390  83.8098810 111.3622440   4.8945590  85.2928280
 112.4708970   4.7773460  86.7875250 112.0863760   4.1367130  87.3858210
 112.7821160   5.4809580  87.3569980 114.9387270   4.8719630  75.1834930
 114.1649530   4.3317250  75.0233650 115.6681900   4.3526240  74.8452690
 121.0794050   3.9394050  86.8630320 121.0131360   3.0189720  86.6087910
 120.4499190   4.0369490  87.5774960 114.9824670   4.5400010  78.8213740
 115.5003340   3.7368270  78.7670630 114.5308690   4.4779150  79.6630570
 119.8694170   5.8066290  74.0941040 120.2109870   6.5508520  73.5984360
 119.0406880   6.1197410  74.4565870 121.0110780   6.7614620  86.6134120
 121.0255320   5.8295580  86.3953030 120.3035880   6.8474380  87.2523890
 122.7521580   5.1282130  79.4586550 123.1045400   4.5310260  78.7987920
 121.8683910   4.8026360  79.6294800 118.8384860   5.8879820  76.8656960
 119.5255990   6.4349030  77.2464550 118.0517280   6.4320550  76.9006570
 118.1412070   2.8925850  76.4782320 118.5974850   3.7031100  76.7042510
 117.7900280   2.5748990  77.3100810 120.4444680   8.4032190  83.7074620
 121.0886900   8.6091570  84.3848040 120.8074120   7.6420590  83.2545470
 121.7176760   6.4064540  82.4252070 122.3598990   5.7057700  82.5384240
 122.2426110   7.1862980  82.2448960 123.4914380   7.2059440  85.6288130
 123.8270620   7.7926130  86.3066050 122.5714720   7.0752150  85.8585920
 111.3448510  10.7180020  72.9235670 111.7046150  11.3169360  72.2692940
 111.2040850  11.2639910  73.6970700 111.3290370   8.9834880  87.3978070
 111.4381490   8.0429620  87.2573460 110.6770930   9.2489630  86.7491800
 119.3202960   7.2550770  88.7976190 118.9999830   6.5360010  89.3421880
 118.6461320   7.9305840  88.8712250 117.3617130   8.1011220  73.7409340
 117.3527230   8.8340910  73.1253850 116.4415490   7.8542800  73.8336300
 112.9623770   3.3226110  74.4856100 112.3551720   4.0625010  74.4951400
 113.4373120   3.4125470  73.6594300 120.3476730   8.1639460  72.4034530
 120.4488710   7.9603450  71.4736510 119.4478470   7.9097740  72.6082310
 118.9894840  10.6825780  77.0982200 119.2436340  10.6447170  76.1761570
 118.0407320  10.5559110  77.0910450 114.9729060   3.2837260  72.2344670
 115.7392330   3.1718620  72.7970100 115.0503750   2.5875230  71.5821440
 114.4690530  10.8657720  80.0212100 115.2053010  10.3173180  80.2920670
 114.8531450  11.7313730  79.8818090 111.3536010   6.9331290  75.8953610
 110.4275790   7.1752430  75.8859020 111.8192440   7.7605550  75.7738360
 113.4748810  10.0503790  89.2097680 114.2761540  10.3715840  89.6233080
 112.9600630   9.6899370  89.9317590 117.5792840  10.0388030  71.8437670
 118.3721450  10.3276860  71.3919460 117.0597190   9.6080200  71.1650150
 122.3113440   6.1583660  89.1573090 121.7051600   6.1815260  88.4168840
 122.0067550   5.4266700  89.6940340 123.7413810   9.8863950  87.7682500
 124.6935560   9.8021970  87.7182740 123.5942030  10.5505660  88.4416290
 111.1946620   2.5377250  88.1533730 111.6985640   1.9584530  88.7249960
 110.4554040   2.8217480  88.6910100 118.0970240   5.2591440  71.7080020
 117.9920880   4.6443790  72.4341400 117.9294460   4.7357330  70.9243030
 118.2484560   3.9448240  87.6869250 117.4830230   4.5133240  87.6023920
 118.4300520   3.6524450  86.7937480 121.3372970   4.3211470  72.3122010
 120.7883070   4.7680770  72.9564750 121.9592230   3.8160720  72.8359680
 117.0048090   3.2802390  74.2087310 117.4264510   3.1142260  75.0518700
 117.1298930   2.4702620  73.7142450 119.5175730   2.3040000  71.4564410
 120.0381390   1.5889020  71.0905560 120.1644130   2.9425870  71.7564920
 124.0653570   3.7268400  86.7799480 124.4794590   3.8813480  87.6289900
 123.1304570   3.8523620  86.9425260 118.8268800   3.6788880  84.7495410
 119.2456910   4.5221610  84.5771650 117.9077430   3.8160920  84.5202190
 123.5020600   1.9642250  84.7095760 122.9755820   2.4884870  84.1060900
 123.8451940   2.5969640  85.3405490 116.6776220   9.9841890  85.8653140
 116.1397310  10.7087950  85.5461840 116.9310180   9.5072230  85.0750480
 119.5338430  11.2193100  86.1239790 119.4597130  12.1228240  86.4312160
 118.6317270  10.9005000  86.0961860 120.0823760  10.3851610  73.7466150
 120.9774550  10.7236580  73.7684910 120.1141390   9.6631020  73.1190430
 113.7219920   5.7578660  71.9753150 114.1594790   6.3008330  72.6310730
 114.2067650   4.9325610  71.9849490 110.9365720   8.5467690  79.4273410
 111.2668730   7.6788750  79.1952050 111.3656720   8.7526210  80.2578370
 115.5327640   6.8776700  77.0875380 115.2323180   6.7541670  77.9879290
 115.4265130   6.0185290  76.6791110 111.4255930   9.4138280  82.1655040
 110.9886920   9.5939080  82.9979190 111.9933610  10.1712900  82.0236760
 111.2580360   1.9258510  78.5243920 110.6029200   1.6570150  77.8803620
 112.0958310   1.8162990  78.0745900 112.2956290   2.3111080  83.0647260
 112.6629330   2.2238480  83.9443280 111.7267110   1.5477630  82.9654120
 113.7108370   6.8243770  88.2267410 113.6678000   6.4536680  89.1081870
 113.8419380   7.7621340  88.3669230 117.4114400   8.3803360  83.8277130
 117.1705760   8.6477920  82.9407650 118.3517040   8.5509090  83.8827990
 113.5496400   9.7706020  85.3465190 112.9556720   9.6390720  86.0855230
 113.5420240   8.9344160  84.8807290 113.1808630   7.1364400  84.2973230
 112.4542690   6.5169690  84.2299180 113.2417780   7.5305010  83.4271310
 116.7853730   9.3509400  81.0822640 117.3018750   8.7396760  80.5570900
 117.4351110   9.8538180  81.5733650 119.5249230  10.2417890  81.9091620
 119.8127040   9.9872190  81.0324630 120.0372450   9.6895250  82.4997190
 111.4638630  10.4538790  77.5069990 111.2960670   9.8209470  78.2051880
 110.5973140  10.6598190  77.1564180 113.0701330   9.1472020  74.9520130
 112.5448950   9.5280050  74.2482090 112.9945910   9.7722790  75.6729840
 119.5921590  11.1633990  89.2759820 120.5188900  10.9278260  89.3195780
 119.5772020  11.9905990  88.7945850 115.6694300  11.0954400  73.8269380
 116.4013120  10.8113680  73.2793270 115.9287970  10.8567680  74.7168760
 114.8309090   7.2119130  73.8315710 114.2017970   7.6804230  74.3801540
 114.9456920   6.3668350  74.2661900 120.4176850   3.0403810  61.8626180
 119.6418950   2.5604250  62.1524750 121.0689780   2.3609460  61.6882340
 114.4342680   3.3523620  62.7401940 113.6027560   3.0972330  63.1398450
 115.0423660   3.4234390  63.4759860 124.4384280   7.4464000  60.6425310
 123.9765810   6.6751240  60.9712480 125.2509830   7.4730070  61.1477760
 114.4143940   7.3863710  62.9359960 114.7171980   6.4961450  62.7570180
 115.1587530   7.9433930  62.7082210 120.6647590   9.7322010  60.2629300
 120.0459030  10.1879510  59.6923740 121.5199370   9.8873470  59.8619000
 119.8585840   5.7161000  61.8696340 119.7894120   4.7750940  61.7085470
 120.6205700   5.8062410  62.4418910 121.5310940   4.6161250  57.6561210
 120.9128210   5.0810700  57.0923930 122.0434190   5.3088730  58.0730720
 116.3942700   4.1437120  64.3344810 116.0612080   4.7706040  64.9765880
 116.5709380   4.6699000  63.5546480 115.6061800   6.1117920  66.1493990
 116.2235800   6.7869000  65.8678440 114.7454920   6.5205900  66.0581490
 110.8994140   5.3017780  55.0300840 110.5222120   5.7904880  54.2985740
 111.1567210   5.9743060  55.6607370 124.0598130   9.4201460  62.7793810
 124.0725290   9.0163750  61.9116070 123.5073350  10.1948750  62.6755240
 123.4583570   4.3231300  64.1076420 123.8752360   4.1091410  63.2729880
 124.1823390   4.5804090  64.6785040 120.8963830   1.7683000  57.2246470
 119.9693110   1.7020380  57.4534940 121.0488650   2.7063130  57.1101710
 124.9261120   3.3303300  57.7281720 124.3073540   2.9922850  57.0808020
 124.9085570   2.6863060  58.4360910 116.5020470   2.2947740  60.0066200
 116.0977470   1.5824990  59.5112100 116.5883590   1.9500980  60.8954240
 116.9702170   5.9815300  62.1705410 116.6730460   5.3760770  61.4913190
 117.9201990   6.0192610  62.0594770 125.0587780   9.5547170  65.8328510
 124.5818340  10.3619360  65.6401120 124.3749570   8.9025500  65.9854720
 116.0620600   5.7196990  68.8213210 115.1649130   5.9436960  69.0686610
 116.0873470   5.8431930  67.8724610 123.1025820   2.5690110  54.7354470
 123.5419100   1.7312540  54.5892290 123.8154240   3.2019510  54.8218610
 114.8891820   2.5910310  67.3970580 114.7499590   3.4633110  67.7657980
 114.0073180   2.2483120  67.2518520 121.2121200   7.5086180  58.7035710
 121.6517110   8.2510510  58.2891100 121.1508090   7.7512750  59.6274670
 116.6872170   8.5332010  69.6055730 116.6587600   8.9374960  68.7384160
 116.5237140   7.6042370  69.4427330 110.8410470   4.3607860  63.3141490
 110.9190890   4.4956630  62.3697210 111.4552150   3.6523750  63.5069610
 112.0858100   6.0608050  59.7247670 111.6786180   6.2022640  58.8701270
 112.9771110   5.7768210  59.5218880 121.9036980  10.2099960  66.6314720
 122.4181650  10.1207970  67.4337150 121.0606060  10.5559660  66.9242630
 123.8791380  10.4955300  56.0598720 123.7192520  10.2058240  56.9580550
 123.7138090   9.7195430  55.5243950 116.3579760  10.2753830  57.8370340
 116.1822240   9.3589370  57.6238140 115.5035500  10.6341120  58.0768140
 123.5817510   8.0042860  54.6196720 122.8882670   8.0020150  53.9599000
 124.3240370   7.5802180  54.1890890 123.1467440   9.6305570  58.6945210
 123.6024390   8.8494950  59.0083830 123.4859960  10.3412390  59.2386390
 110.8969990   5.4022030  65.8535950 111.0601030   4.9327390  65.0355320
 111.3622440   4.8945590  66.5184790 112.4708970   4.7773460  68.0131760
 112.0863760   4.1367130  68.6114720 112.7821160   5.4809580  68.5826490
 114.9387270   4.8719630  56.4091440 114.1649530   4.3317250  56.2490160
 115.6681900   4.3526240  56.0709200 121.0794050   3.9394050  68.0886830
 121.0131360   3.0189720  67.8344420 120.4499190   4.0369490  68.8031470
 114.9824670   4.5400010  60.0470250 115.5003340   3.7368270  59.9927140
 114.5308690   4.4779150  60.8887080 119.8694170   5.8066290  55.3197550
 120.2109870   6.5508520  54.8240870 119.0406880   6.1197410  55.6822380
 121.0110780   6.7614620  67.8390630 121.0255320   5.8295580  67.6209540
 120.3035880   6.8474380  68.4780400 122.7521580   5.1282130  60.6843060
 123.1045400   4.5310260  60.0244430 121.8683910   4.8026360  60.8551310
 118.8384860   5.8879820  58.0913470 119.5255990   6.4349030  58.4721060
 118.0517280   6.4320550  58.1263080 118.1412070   2.8925850  57.7038830
 118.5974850   3.7031100  57.9299020 117.7900280   2.5748990  58.5357320
 120.4444680   8.4032190  64.9331130 121.0886900   8.6091570  65.6104550
 120.8074120   7.6420590  64.4801980 121.7176760   6.4064540  63.6508580
 122.3598990   5.7057700  63.7640750 122.2426110   7.1862980  63.4705470
 123.4914380   7.2059440  66.8544640 123.8270620   7.7926130  67.5322560
 122.5714720   7.0752150  67.0842430 111.3448510  10.7180020  54.1492180
 111.7046150  11.3169360  53.4949450 111.2040850  11.2639910  54.9227210
 111.3290370   8.9834880  68.6234580 111.4381490   8.0429620  68.4829970
 110.6770930   9.2489630  67.9748310 119.3202960   7.2550770  70.0232700
 118.9999830   6.5360010  70.5678390 118.6461320   7.9305840  70.0968760
 117.3617130   8.1011220  54.9665850 117.3527230   8.8340910  54.3510360
 116.4415490   7.8542800  55.0592810 112.9623770   3.3226110  55.7112610
 112.3551720   4.0625010  55.7207910 113.4373120   3.4125470  54.8850810
 120.3476730   8.1639460  53.6291040 120.4488710   7.9603450  52.6993020
 119.4478470   7.9097740  53.8338820 118.9894840  10.6825780  58.3238710
 119.2436340  10.6447170  57.4018080 118.0407320  10.5559110  58.3166960
 114.9729060   3.2837260  53.4601180 115.7392330   3.1718620  54.0226610
 115.0503750   2.5875230  52.8077950 114.4690530  10.8657720  61.2468610
 115.2053010  10.3173180  61.5177180 114.8531450  11.7313730  61.1074600
 111.3536010   6.9331290  57.1210120 110.4275790   7.1752430  57.1115530
 111.8192440   7.7605550  56.9994870 113.4748810  10.0503790  70.4354190
 114.2761540  10.3715840  70.8489590 112.9600630   9.6899370  71.1574100
 117.5792840  10.0388030  53.0694180 118.3721450  10.3276860  52.6175970
 117.0597190   9.6080200  52.3906660 122.3113440   6.1583660  70.3829600
 121.7051600   6.1815260  69.6425350 122.0067550   5.4266700  70.9196850
 123.7413810   9.8863950  68.9939010 124.6935560   9.8021970  68.9439250
 123.5942030  10.5505660  69.6672800 111.1946620   2.5377250  69.3790240
 111.6985640   1.9584530  69.9506470 110.4554040   2.8217480  69.9166610
 118.0970240   5.2591440  52.9336530 117.9920880   4.6443790  53.6597910
 117.9294460   4.7357330  52.1499540 118.2484560   3.9448240  68.9125760
 117.4830230   4.5133240  68.8280430 118.4300520   3.6524450  68.0193990
 121.3372970   4.3211470  53.5378520 120.7883070   4.7680770  54.1821260
 121.9592230   3.8160720  54.0616190 117.0048090   3.2802390  55.4343820
 117.4264510   3.1142260  56.2775210 117.1298930   2.4702620  54.9398960
 119.5175730   2.3040000  52.6820920 120.0381390   1.5889020  52.3162070
 120.1644130   2.9425870  52.9821430 124.0653570   3.7268400  68.0055990
 124.4794590   3.8813480  68.8546410 123.1304570   3.8523620  68.1681770
 118.8268800   3.6788880  65.9751920 119.2456910   4.5221610  65.8028160
 117.9077430   3.8160920  65.7458700 123.5020600   1.9642250  65.9352270
 122.9755820   2.4884870  65.3317410 123.8451940   2.5969640  66.5662000
 116.6776220   9.9841890  67.0909650 116.1397310  10.7087950  66.7718350
 116.9310180   9.5072230  66.3006990 119.5338430  11.2193100  67.3496300
 119.4597130  12.1228240  67.6568670 118.6317270  10.9005000  67.3218370
 120.0823760  10.3851610  54.9722660 120.9774550  10.7236580  54.9941420
 120.1141390   9.6631020  54.3446940 113.7219920   5.7578660  53.2009660
 114.1594790   6.3008330  53.8567240 114.2067650   4.9325610  53.2106000
 110.9365720   8.5467690  60.6529920 111.2668730   7.6788750  60.4208560
 111.3656720   8.7526210  61.4834880 115.5327640   6.8776700  58.3131890
 115.2323180   6.7541670  59.2135800 115.4265130   6.0185290  57.9047620
 111.4255930   9.4138280  63.3911550 110.9886920   9.5939080  64.2235700
 111.9933610  10.1712900  63.2493270 111.2580360   1.9258510  59.7500430
 110.6029200   1.6570150  59.1060130 112.0958310   1.8162990  59.3002410
 112.2956290   2.3111080  64.2903770 112.6629330   2.2238480  65.1699790
 111.7267110   1.5477630  64.1910630 113.7108370   6.8243770  69.4523920
 113.6678000   6.4536680  70.3338380 113.8419380   7.7621340  69.5925740
 117.4114400   8.3803360  65.0533640 117.1705760   8.6477920  64.1664160
 118.3517040   8.5509090  65.1084500 113.5496400   9.7706020  66.5721700
 112.9556720   9.6390720  67.3111740 113.5420240   8.9344160  66.1063800
 113.1808630   7.1364400  65.5229740 112.4542690   6.5169690  65.4555690
 113.2417780   7.5305010  64.6527820 116.7853730   9.3509400  62.3079150
 117.3018750   8.7396760  61.7827410 117.4351110   9.8538180  62.7990160
 119.5249230  10.2417890  63.1348130 119.8127040   9.9872190  62.2581140
 120.0372450   9.6895250  63.7253700 111.4638630  10.4538790  58.7326500
 111.2960670   9.8209470  59.4308390 110.5973140  10.6598190  58.3820690
 113.0701330   9.1472020  56.1776640 112.5448950   9.5280050  55.4738600
 112.9945910   9.7722790  56.8986350 119.5921590  11.1633990  70.5016330
 120.5188900  10.9278260  70.5452290 119.5772020  11.9905990  70.0202360
 115.6694300  11.0954400  55.0525890 116.4013120  10.8113680  54.5049780
 115.9287970  10.8567680  55.9425270 114.8309090   7.2119130  55.0572220
 114.2017970   7.6804230  55.6058050 114.9456920   6.3668350  55.4918410
 120.4176850   3.0403810  43.0882690 119.6418950   2.5604250  43.3781260
 121.0689780   2.3609460  42.9138850 114.4342680   3.3523620  43.9658450
 113.6027560   3.0972330  44.3654960 115.0423660   3.4234390  44.7016370
 124.4384280   7.4464000  41.8681820 123.9765810   6.6751240  42.1968990
 125.2509830   7.4730070  42.3734270 114.4143940   7.3863710  44.1616470
 114.7171980   6.4961450  43.9826690 115.1587530   7.9433930  43.9338720
 120.6647590   9.7322010  41.4885810 120.0459030  10.1879510  40.9180250
 121.5199370   9.8873470  41.0875510 119.8585840   5.7161000  43.0952850
 119.7894120   4.7750940  42.9341980 120.6205700   5.8062410  43.6675420
 121.5310940   4.6161250  38.8817720 120.9128210   5.0810700  38.3180440
 122.0434190   5.3088730  39.2987230 116.3942700   4.1437120  45.5601320
 116.0612080   4.7706040  46.2022390 116.5709380   4.6699000  44.7802990
 115.6061800   6.1117920  47.3750500 116.2235800   6.7869000  47.0934950
 114.7454920   6.5205900  47.2838000 110.8994140   5.3017780  36.2557350
 110.5222120   5.7904880  35.5242250 111.1567210   5.9743060  36.8863880
 124.0598130   9.4201460  44.0050320 124.0725290   9.0163750  43.1372580
 123.5073350  10.1948750  43.9011750 123.4583570   4.3231300  45.3332930
 123.8752360   4.1091410  44.4986390 124.1823390   4.5804090  45.9041550
 120.8963830   1.7683000  38.4502980 119.9693110   1.7020380  38.6791450
 121.0488650   2.7063130  38.3358220 124.9261120   3.3303300  38.9538230
 124.3073540   2.9922850  38.3064530 124.9085570   2.6863060  39.6617420
 116.5020470   2.2947740  41.2322710 116.0977470   1.5824990  40.7368610
 116.5883590   1.9500980  42.1210750 116.9702170   5.9815300  43.3961920
 116.6730460   5.3760770  42.7169700 117.9201990   6.0192610  43.2851280
 125.0587780   9.5547170  47.0585020 124.5818340  10.3619360  46.8657630
 124.3749570   8.9025500  47.2111230 116.0620600   5.7196990  50.0469720
 115.1649130   5.9436960  50.2943120 116.0873470   5.8431930  49.0981120
 123.1025820   2.5690110  35.9610980 123.5419100   1.7312540  35.8148800
 123.8154240   3.2019510  36.0475120 114.8891820   2.5910310  48.6227090
 114.7499590   3.4633110  48.9914490 114.0073180   2.2483120  48.4775030
 121.2121200   7.5086180  39.9292220 121.6517110   8.2510510  39.5147610
 121.1508090   7.7512750  40.8531180 116.6872170   8.5332010  50.8312240
 116.6587600   8.9374960  49.9640670 116.5237140   7.6042370  50.6683840
 110.8410470   4.3607860  44.5398000 110.9190890   4.4956630  43.5953720
 111.4552150   3.6523750  44.7326120 112.0858100   6.0608050  40.9504180
 111.6786180   6.2022640  40.0957780 112.9771110   5.7768210  40.7475390
 121.9036980  10.2099960  47.8571230 122.4181650  10.1207970  48.6593660
 121.0606060  10.5559660  48.1499140 123.8791380  10.4955300  37.2855230
 123.7192520  10.2058240  38.1837060 123.7138090   9.7195430  36.7500460
 116.3579760  10.2753830  39.0626850 116.1822240   9.3589370  38.8494650
 115.5035500  10.6341120  39.3024650 123.5817510   8.0042860  35.8453230
 122.8882670   8.0020150  35.1855510 124.3240370   7.5802180  35.4147400
 123.1467440   9.6305570  39.9201720 123.6024390   8.8494950  40.2340340
 123.4859960  10.3412390  40.4642900 110.8969990   5.4022030  47.0792460
 111.0601030   4.9327390  46.2611830 111.3622440   4.8945590  47.7441300
 112.4708970   4.7773460  49.2388270 112.0863760   4.1367130  49.8371230
 112.7821160   5.4809580  49.8083000 114.9387270   4.8719630  37.6347950
 114.1649530   4.3317250  37.4746670 115.6681900   4.3526240  37.2965710
 121.0794050   3.9394050  49.3143340 121.0131360   3.0189720  49.0600930
 120.4499190   4.0369490  50.0287980 114.9824670   4.5400010  41.2726760
 115.5003340   3.7368270  41.2183650 114.5308690   4.4779150  42.1143590
 119.8694170   5.8066290  36.5454060 120.2109870   6.5508520  36.0497380
 119.0406880   6.1197410  36.9078890 121.0110780   6.7614620  49.0647140
 121.0255320   5.8295580  48.8466050 120.3035880   6.8474380  49.7036910
 122.7521580   5.1282130  41.9099570 123.1045400   4.5310260  41.2500940
 121.8683910   4.8026360  42.0807820 118.8384860   5.8879820  39.3169980
 119.5255990   6.4349030  39.6977570 118.0517280   6.4320550  39.3519590
 118.1412070   2.8925850  38.9295340 118.5974850   3.7031100  39.1555530
 117.7900280   2.5748990  39.7613830 120.4444680   8.4032190  46.1587640
 121.0886900   8.6091570  46.8361060 120.8074120   7.6420590  45.7058490
 121.7176760   6.4064540  44.8765090 122.3598990   5.7057700  44.9897260
 122.2426110   7.1862980  44.6961980 123.4914380   7.2059440  48.0801150
 123.8270620   7.7926130  48.7579070 122.5714720   7.0752150  48.3098940
 111.3448510  10.7180020  35.3748690 111.7046150  11.3169360  34.7205960
 111.2040850  11.2639910  36.1483720 111.3290370   8.9834880  49.8491090
 111.4381490   8.0429620  49.7086480 110.6770930   9.2489630  49.2004820
 119.3202960   7.2550770  51.2489210 118.9999830   6.5360010  51.7934900
 118.6461320   7.9305840  51.3225270 117.3617130   8.1011220  36.1922360
 117.3527230   8.8340910  35.5766870 116.4415490   7.8542800  36.2849320
 112.9623770   3.3226110  36.9369120 112.3551720   4.0625010  36.9464420
 113.4373120   3.4125470  36.1107320 120.3476730   8.1639460  34.8547550
 120.4488710   7.9603450  33.9249530 119.4478470   7.9097740  35.0595330
 118.9894840  10.6825780  39.5495220 119.2436340  10.6447170  38.6274590
 118.0407320  10.5559110  39.5423470 114.9729060   3.2837260  34.6857690
 115.7392330   3.1718620  35.2483120 115.0503750   2.5875230  34.0334460
 114.4690530  10.8657720  42.4725120 115.2053010  10.3173180  42.7433690
 114.8531450  11.7313730  42.3331110 111.3536010   6.9331290  38.3466630
 110.4275790   7.1752430  38.3372040 111.8192440   7.7605550  38.2251380
 113.4748810  10.0503790  51.6610700 114.2761540  10.3715840  52.0746100
 112.9600630   9.6899370  52.3830610 117.5792840  10.0388030  34.2950690
 118.3721450  10.3276860  33.8432480 117.0597190   9.6080200  33.6163170
 122.3113440   6.1583660  51.6086110 121.7051600   6.1815260  50.8681860
 122.0067550   5.4266700  52.1453360 123.7413810   9.8863950  50.2195520
 124.6935560   9.8021970  50.1695760 123.5942030  10.5505660  50.8929310
 111.1946620   2.5377250  50.6046750 111.6985640   1.9584530  51.1762980
 110.4554040   2.8217480  51.1423120 118.0970240   5.2591440  34.1593040
 117.9920880   4.6443790  34.8854420 117.9294460   4.7357330  33.3756050
 118.2484560   3.9448240  50.1382270 117.4830230   4.5133240  50.0536940
 118.4300520   3.6524450  49.2450500 121.3372970   4.3211470  34.7635030
 120.7883070   4.7680770  35.4077770 121.9592230   3.8160720  35.2872700
 117.0048090   3.2802390  36.6600330 117.4264510   3.1142260  37.5031720
 117.1298930   2.4702620  36.1655470 119.5175730   2.3040000  33.9077430
 120.0381390   1.5889020  33.5418580 120.1644130   2.9425870  34.2077940
 124.0653570   3.7268400  49.2312500 124.4794590   3.8813480  50.0802920
 123.1304570   3.8523620  49.3938280 118.8268800   3.6788880  47.2008430
 119.2456910   4.5221610  47.0284670 117.9077430   3.8160920  46.9715210
 123.5020600   1.9642250  47.1608780 122.9755820   2.4884870  46.5573920
 123.8451940   2.5969640  47.7918510 116.6776220   9.9841890  48.3166160
 116.1397310  10.7087950  47.9974860 116.9310180   9.5072230  47.5263500
 119.5338430  11.2193100  48.5752810 119.4597130  12.1228240  48.8825180
 118.6317270  10.9005000  48.5474880 120.0823760  10.3851610  36.1979170
 120.9774550  10.7236580  36.2197930 120.1141390   9.6631020  35.5703450
 113.7219920   5.7578660  34.4266170 114.1594790   6.3008330  35.0823750
 114.2067650   4.9325610  34.4362510 110.9365720   8.5467690  41.8786430
 111.2668730   7.6788750  41.6465070 111.3656720   8.7526210  42.7091390
 115.5327640   6.8776700  39.5388400 115.2323180   6.7541670  40.4392310
 115.4265130   6.0185290  39.1304130 111.4255930   9.4138280  44.6168060
 110.9886920   9.5939080  45.4492210 111.9933610  10.1712900  44.4749780
 111.2580360   1.9258510  40.9756940 110.6029200   1.6570150  40.3316640
 112.0958310   1.8162990  40.5258920 112.2956290   2.3111080  45.5160280
 112.6629330   2.2238480  46.3956300 111.7267110   1.5477630  45.4167140
 113.7108370   6.8243770  50.6780430 113.6678000   6.4536680  51.5594890
 113.8419380   7.7621340  50.8182250 117.4114400   8.3803360  46.2790150
 117.1705760   8.6477920  45.3920670 118.3517040   8.5509090  46.3341010
 113.5496400   9.7706020  47.7978210 112.9556720   9.6390720  48.5368250
 113.5420240   8.9344160  47.3320310 113.1808630   7.1364400  46.7486250
 112.4542690   6.5169690  46.6812200 113.2417780   7.5305010  45.8784330
 116.7853730   9.3509400  43.5335660 117.3018750   8.7396760  43.0083920
 117.4351110   9.8538180  44.0246670 119.5249230  10.2417890  44.3604640
 119.8127040   9.9872190  43.4837650 120.0372450   9.6895250  44.9510210
 111.4638630  10.4538790  39.9583010 111.2960670   9.8209470  40.6564900
 110.5973140  10.6598190  39.6077200 113.0701330   9.1472020  37.4033150
 112.5448950   9.5280050  36.6995110 112.9945910   9.7722790  38.1242860
 119.5921590  11.1633990  51.7272840 120.5188900  10.9278260  51.7708800
 119.5772020  11.9905990  51.2458870 115.6694300  11.0954400  36.2782400
 116.4013120  10.8113680  35.7306290 115.9287970  10.8567680  37.1681780
 114.8309090   7.2119130  36.2828730 114.2017970   7.6804230  36.8314560
 114.9456920   6.3668350  36.7174920 120.4176850   3.0403810  24.3139200
 119.6418950   2.5604250  24.6037770 121.0689780   2.3609460  24.1395360
 114.4342680   3.3523620  25.1914960 113.6027560   3.0972330  25.5911470
 115.0423660   3.4234390  25.9272880 124.4384280   7.4464000  23.0938330
 123.9765810   6.6751240  23.4225500 125.2509830   7.4730070  23.5990780
 114.4143940   7.3863710  25.3872980 114.7171980   6.4961450  25.2083200
 115.1587530   7.9433930  25.1595230 120.6647590   9.7322010  22.7142320
 120.0459030  10.1879510  22.1436760 121.5199370   9.8873470  22.3132020
 119.8585840   5.7161000  24.3209360 119.7894120   4.7750940  24.1598490
 120.6205700   5.8062410  24.8931930 121.5310940   4.6161250  20.1074230
 120.9128210   5.0810700  19.5436950 122.0434190   5.3088730  20.5243740
 116.3942700   4.1437120  26.7857830 116.0612080   4.7706040  27.4278900
 116.5709380   4.6699000  26.0059500 115.6061800   6.1117920  28.6007010
 116.2235800   6.7869000  28.3191460 114.7454920   6.5205900  28.5094510
 110.8994140   5.3017780  17.4813860 110.5222120   5.7904880  16.7498760
 111.1567210   5.9743060  18.1120390 124.0598130   9.4201460  25.2306830
 124.0725290   9.0163750  24.3629090 123.5073350  10.1948750  25.1268260
 123.4583570   4.3231300  26.5589440 123.8752360   4.1091410  25.7242900
 124.1823390   4.5804090  27.1298060 120.8963830   1.7683000  19.6759490
 119.9693110   1.7020380  19.9047960 121.0488650   2.7063130  19.5614730
 124.9261120   3.3303300  20.1794740 124.3073540   2.9922850  19.5321040
 124.9085570   2.6863060  20.8873930 116.5020470   2.2947740  22.4579220
 116.0977470   1.5824990  21.9625120 116.5883590   1.9500980  23.3467260
 116.9702170   5.9815300  24.6218430 116.6730460   5.3760770  23.9426210
 117.9201990   6.0192610  24.5107790 125.0587780   9.5547170  28.2841530
 124.5818340  10.3619360  28.0914140 124.3749570   8.9025500  28.4367740
 116.0620600   5.7196990  31.2726230 115.1649130   5.9436960  31.5199630
 116.0873470   5.8431930  30.3237630 123.1025820   2.5690110  17.1867490
 123.5419100   1.7312540  17.0405310 123.8154240   3.2019510  17.2731630
 114.8891820   2.5910310  29.8483600 114.7499590   3.4633110  30.2171000
 114.0073180   2.2483120  29.7031540 121.2121200   7.5086180  21.1548730
 121.6517110   8.2510510  20.7404120 121.1508090   7.7512750  22.0787690
 116.6872170   8.5332010  32.0568750 116.6587600   8.9374960  31.1897180
 116.5237140   7.6042370  31.8940350 110.8410470   4.3607860  25.7654510
 110.9190890   4.4956630  24.8210230 111.4552150   3.6523750  25.9582630
 112.0858100   6.0608050  22.1760690 111.6786180   6.2022640  21.3214290
 112.9771110   5.7768210  21.9731900 121.9036980  10.2099960  29.0827740
 122.4181650  10.1207970  29.8850170 121.0606060  10.5559660  29.3755650
 123.8791380  10.4955300  18.5111740 123.7192520  10.2058240  19.4093570
 123.7138090   9.7195430  17.9756970 116.3579760  10.2753830  20.2883360
 116.1822240   9.3589370  20.0751160 115.5035500  10.6341120  20.5281160
 123.5817510   8.0042860  17.0709740 122.8882670   8.0020150  16.4112020
 124.3240370   7.5802180  16.6403910 123.1467440   9.6305570  21.1458230
 123.6024390   8.8494950  21.4596850 123.4859960  10.3412390  21.6899410
 110.8969990   5.4022030  28.3048970 111.0601030   4.9327390  27.4868340
 111.3622440   4.8945590  28.9697810 112.4708970   4.7773460  30.4644780
 112.0863760   4.1367130  31.0627740 112.7821160   5.4809580  31.0339510
 114.9387270   4.8719630  18.8604460 114.1649530   4.3317250  18.7003180
 115.6681900   4.3526240  18.5222220 121.0794050   3.9394050  30.5399850
 121.0131360   3.0189720  30.2857440 120.4499190   4.0369490  31.2544490
 114.9824670   4.5400010  22.4983270 115.5003340   3.7368270  22.4440160
 114.5308690   4.4779150  23.3400100 119.8694170   5.8066290  17.7710570
 120.2109870   6.5508520  17.2753890 119.0406880   6.1197410  18.1335400
 121.0110780   6.7614620  30.2903650 121.0255320   5.8295580  30.0722560
 120.3035880   6.8474380  30.9293420 122.7521580   5.1282130  23.1356080
 123.1045400   4.5310260  22.4757450 121.8683910   4.8026360  23.3064330
 118.8384860   5.8879820  20.5426490 119.5255990   6.4349030  20.9234080
 118.0517280   6.4320550  20.5776100 118.1412070   2.8925850  20.1551850
 118.5974850   3.7031100  20.3812040 117.7900280   2.5748990  20.9870340
 120.4444680   8.4032190  27.3844150 121.0886900   8.6091570  28.0617570
 120.8074120   7.6420590  26.9315000 121.7176760   6.4064540  26.1021600
 122.3598990   5.7057700  26.2153770 122.2426110   7.1862980  25.9218490
 123.4914380   7.2059440  29.3057660 123.8270620   7.7926130  29.9835580
 122.5714720   7.0752150  29.5355450 111.3448510  10.7180020  16.6005200
 111.7046150  11.3169360  15.9462470 111.2040850  11.2639910  17.3740230
 111.3290370   8.9834880  31.0747600 111.4381490   8.0429620  30.9342990
 110.6770930   9.2489630  30.4261330 119.3202960   7.2550770  32.4745720
 118.9999830   6.5360010  33.0191410 118.6461320   7.9305840  32.5481780
 117.3617130   8.1011220  17.4178870 117.3527230   8.8340910  16.8023380
 116.4415490   7.8542800  17.5105830 112.9623770   3.3226110  18.1625630
 112.3551720   4.0625010  18.1720930 113.4373120   3.4125470  17.3363830
 120.3476730   8.1639460  16.0804060 120.4488710   7.9603450  15.1506040
 119.4478470   7.9097740  16.2851840 118.9894840  10.6825780  20.7751730
 119.2436340  10.6447170  19.8531100 118.0407320  10.5559110  20.7679980
 114.9729060   3.2837260  15.9114200 115.7392330   3.1718620  16.4739630
 115.0503750   2.5875230  15.2590970 114.4690530  10.8657720  23.6981630
 115.2053010  10.3173180  23.9690200 114.8531450  11.7313730  23.5587620
 111.3536010   6.9331290  19.5723140 110.4275790   7.1752430  19.5628550
 111.8192440   7.7605550  19.4507890 113.4748810  10.0503790  32.8867210
 114.2761540  10.3715840  33.3002610 112.9600630   9.6899370  33.6087120
 117.5792840  10.0388030  15.5207200 118.3721450  10.3276860  15.0688990
 117.0597190   9.6080200  14.8419680 122.3113440   6.1583660  32.8342620
 121.7051600   6.1815260  32.0938370 122.0067550   5.4266700  33.3709870
 123.7413810   9.8863950  31.4452030 124.6935560   9.8021970  31.3952270
 123.5942030  10.5505660  32.1185820 111.1946620   2.5377250  31.8303260
 111.6985640   1.9584530  32.4019490 110.4554040   2.8217480  32.3679630
 118.0970240   5.2591440  15.3849550 117.9920880   4.6443790  16.1110930
 117.9294460   4.7357330  14.6012560 118.2484560   3.9448240  31.3638780
 117.4830230   4.5133240  31.2793450 118.4300520   3.6524450  30.4707010
 121.3372970   4.3211470  15.9891540 120.7883070   4.7680770  16.6334280
 121.9592230   3.8160720  16.5129210 117.0048090   3.2802390  17.8856840
 117.4264510   3.1142260  18.7288230 117.1298930   2.4702620  17.3911980
 119.5175730   2.3040000  15.1333940 120.0381390   1.5889020  14.7675090
 120.1644130   2.9425870  15.4334450 124.0653570   3.7268400  30.4569010
 124.4794590   3.8813480  31.3059430 123.1304570   3.8523620  30.6194790
 118.8268800   3.6788880  28.4264940 119.2456910   4.5221610  28.2541180
 117.9077430   3.8160920  28.1971720 123.5020600   1.9642250  28.3865290
 122.9755820   2.4884870  27.7830430 123.8451940   2.5969640  29.0175020
 116.6776220   9.9841890  29.5422670 116.1397310  10.7087950  29.2231370
 116.9310180   9.5072230  28.7520010 119.5338430  11.2193100  29.8009320
 119.4597130  12.1228240  30.1081690 118.6317270  10.9005000  29.7731390
 120.0823760  10.3851610  17.4235680 120.9774550  10.7236580  17.4454440
 120.1141390   9.6631020  16.7959960 113.7219920   5.7578660  15.6522680
 114.1594790   6.3008330  16.3080260 114.2067650   4.9325610  15.6619020
 110.9365720   8.5467690  23.1042940 111.2668730   7.6788750  22.8721580
 111.3656720   8.7526210  23.9347900 115.5327640   6.8776700  20.7644910
 115.2323180   6.7541670  21.6648820 115.4265130   6.0185290  20.3560640
 111.4255930   9.4138280  25.8424570 110.9886920   9.5939080  26.6748720
 111.9933610  10.1712900  25.7006290 111.2580360   1.9258510  22.2013450
 110.6029200   1.6570150  21.5573150 112.0958310   1.8162990  21.7515430
 112.2956290   2.3111080  26.7416790 112.6629330   2.2238480  27.6212810
 111.7267110   1.5477630  26.6423650 113.7108370   6.8243770  31.9036940
 113.6678000   6.4536680  32.7851400 113.8419380   7.7621340  32.0438760
 117.4114400   8.3803360  27.5046660 117.1705760   8.6477920  26.6177180
 118.3517040   8.5509090  27.5597520 113.5496400   9.7706020  29.0234720
 112.9556720   9.6390720  29.7624760 113.5420240   8.9344160  28.5576820
 113.1808630   7.1364400  27.9742760 112.4542690   6.5169690  27.9068710
 113.2417780   7.5305010  27.1040840 116.7853730   9.3509400  24.7592170
 117.3018750   8.7396760  24.2340430 117.4351110   9.8538180  25.2503180
 119.5249230  10.2417890  25.5861150 119.8127040   9.9872190  24.7094160
 120.0372450   9.6895250  26.1766720 111.4638630  10.4538790  21.1839520
 111.2960670   9.8209470  21.8821410 110.5973140  10.6598190  20.8333710
 113.0701330   9.1472020  18.6289660 112.5448950   9.5280050  17.9251620
 112.9945910   9.7722790  19.3499370 119.5921590  11.1633990  32.9529350
 120.5188900  10.9278260  32.9965310 119.5772020  11.9905990  32.4715380
 115.6694300  11.0954400  17.5038910 116.4013120  10.8113680  16.9562800
 115.9287970  10.8567680  18.3938290 114.8309090   7.2119130  17.5085240
 114.2017970   7.6804230  18.0571070 114.9456920   6.3668350  17.9431430
 120.4176850   3.0403810   5.5395710 119.6418950   2.5604250   5.8294280
 121.0689780   2.3609460   5.3651870 114.4342680   3.3523620   6.4171470
 113.6027560   3.0972330   6.8167980 115.0423660   3.4234390   7.1529390
 124.4384280   7.4464000   4.3194840 123.9765810   6.6751240   4.6482010
 125.2509830   7.4730070   4.8247290 114.4143940   7.3863710   6.6129490
 114.7171980   6.4961450   6.4339710 115.1587530   7.9433930   6.3851740
 120.6647590   9.7322010   3.9398830 120.0459030  10.1879510   3.3693270
 121.5199370   9.8873470   3.5388530 119.8585840   5.7161000   5.5465870
 119.7894120   4.7750940   5.3855000 120.6205700   5.8062410   6.1188440
 116.3942700   4.1437120   8.0114340 116.0612080   4.7706040   8.6535410
 116.5709380   4.6699000   7.2316010 115.6061800   6.1117920   9.8263520
 116.2235800   6.7869000   9.5447970 114.7454920   6.5205900   9.7351020
 124.0598130   9.4201460   6.4563340 124.0725290   9.0163750   5.5885600
 123.5073350  10.1948750   6.3524770 123.4583570   4.3231300   7.7845950
 123.8752360   4.1091410   6.9499410 124.1823390   4.5804090   8.3554570
 116.5020470   2.2947740   3.6835730 116.0977470   1.5824990   3.1881630
 116.5883590   1.9500980   4.5723770 116.9702170   5.9815300   5.8474940
 116.6730460   5.3760770   5.1682720 117.9201990   6.0192610   5.7364300
 125.0587780   9.5547170   9.5098040 124.5818340  10.3619360   9.3170650
 124.3749570   8.9025500   9.6624250 116.0620600   5.7196990  12.4982740
 115.1649130   5.9436960  12.7456140 116.0873470   5.8431930  11.5494140
 114.8891820   2.5910310  11.0740110 114.7499590   3.4633110  11.4427510
 114.0073180   2.2483120  10.9288050 121.2121200   7.5086180   2.3805240
 121.6517110   8.2510510   1.9660630 121.1508090   7.7512750   3.3044200
 116.6872170   8.5332010  13.2825260 116.6587600   8.9374960  12.4153690
 116.5237140   7.6042370  13.1196860 110.8410470   4.3607860   6.9911020
 110.9190890   4.4956630   6.0466740 111.4552150   3.6523750   7.1839140
 112.0858100   6.0608050   3.4017200 111.6786180   6.2022640   2.5470800
 112.9771110   5.7768210   3.1988410 121.9036980  10.2099960  10.3084250
 122.4181650  10.1207970  11.1106680 121.0606060  10.5559660  10.6012160
 123.1467440   9.6305570   2.3714740 123.6024390   8.8494950   2.6853360
 123.4859960  10.3412390   2.9155920 110.8969990   5.4022030   9.5305480
 111.0601030   4.9327390   8.7124850 111.3622440   4.8945590  10.1954320
 112.4708970   4.7773460  11.6901290 112.0863760   4.1367130  12.2884250
 112.7821160   5.4809580  12.2596020 121.0794050   3.9394050  11.7656360
 121.0131360   3.0189720  11.5113950 120.4499190   4.0369490  12.4801000
 114.9824670   4.5400010   3.7239780 115.5003340   3.7368270   3.6696670
 114.5308690   4.4779150   4.5656610 121.0110780   6.7614620  11.5160160
 121.0255320   5.8295580  11.2979070 120.3035880   6.8474380  12.1549930
 122.7521580   5.1282130   4.3612590 123.1045400   4.5310260   3.7013960
 121.8683910   4.8026360   4.5320840 118.8384860   5.8879820   1.7683000
 119.5255990   6.4349030   2.1490590 118.0517280   6.4320550   1.8032610
 120.4444680   8.4032190   8.6100660 121.0886900   8.6091570   9.2874080
 120.8074120   7.6420590   8.1571510 121.7176760   6.4064540   7.3278110
 122.3598990   5.7057700   7.4410280 122.2426110   7.1862980   7.1475000
 123.4914380   7.2059440  10.5314170 123.8270620   7.7926130  11.2092090
 122.5714720   7.0752150  10.7611960 111.3290370   8.9834880  12.3004110
 111.4381490   8.0429620  12.1599500 110.6770930   9.2489630  11.6517840
 119.3202960   7.2550770  13.7002230 118.9999830   6.5360010  14.2447920
 118.6461320   7.9305840  13.7738290 114.4690530  10.8657720   4.9238140
 115.2053010  10.3173180   5.1946710 114.8531450  11.7313730   4.7844130
 113.4748810  10.0503790  14.1123720 114.2761540  10.3715840  14.5259120
 112.9600630   9.6899370  14.8343630 122.3113440   6.1583660  14.0599130
 121.7051600   6.1815260  13.3194880 122.0067550   5.4266700  14.5966380
 123.7413810   9.8863950  12.6708540 124.6935560   9.8021970  12.6208780
 123.5942030  10.5505660  13.3442330 111.1946620   2.5377250  13.0559770
 111.6985640   1.9584530  13.6276000 110.4554040   2.8217480  13.5936140
 118.2484560   3.9448240  12.5895290 117.4830230   4.5133240  12.5049960
 118.4300520   3.6524450  11.6963520 124.0653570   3.7268400  11.6825520
 124.4794590   3.8813480  12.5315940 123.1304570   3.8523620  11.8451300
 118.8268800   3.6788880   9.6521450 119.2456910   4.5221610   9.4797690
 117.9077430   3.8160920   9.4228230 123.5020600   1.9642250   9.6121800
 122.9755820   2.4884870   9.0086940 123.8451940   2.5969640  10.2431530
 116.6776220   9.9841890  10.7679180 116.1397310  10.7087950  10.4487880
 116.9310180   9.5072230   9.9776520 119.5338430  11.2193100  11.0265830
 119.4597130  12.1228240  11.3338200 118.6317270  10.9005000  10.9987900
 110.9365720   8.5467690   4.3299450 111.2668730   7.6788750   4.0978090
 111.3656720   8.7526210   5.1604410 111.4255930   9.4138280   7.0681080
 110.9886920   9.5939080   7.9005230 111.9933610  10.1712900   6.9262800
 111.2580360   1.9258510   3.4269960 110.6029200   1.6570150   2.7829660
 112.0958310   1.8162990   2.9771940 112.2956290   2.3111080   7.9673300
 112.6629330   2.2238480   8.8469320 111.7267110   1.5477630   7.8680160
 113.7108370   6.8243770  13.1293450 113.6678000   6.4536680  14.0107910
 113.8419380   7.7621340  13.2695270 117.4114400   8.3803360   8.7303170
 117.1705760   8.6477920   7.8433690 118.3517040   8.5509090   8.7854030
 113.5496400   9.7706020  10.2491230 112.9556720   9.6390720  10.9881270
 113.5420240   8.9344160   9.7833330 113.1808630   7.1364400   9.1999270
 112.4542690   6.5169690   9.1325220 113.2417780   7.5305010   8.3297350
 116.7853730   9.3509400   5.9848680 117.3018750   8.7396760   5.4596940
 117.4351110   9.8538180   6.4759690 119.5249230  10.2417890   6.8117660
 119.8127040   9.9872190   5.9350670 120.0372450   9.6895250   7.4023230
 111.4638630  10.4538790   2.4096030 111.2960670   9.8209470   3.1077920
 110.5973140  10.6598190   2.0590220 119.5921590  11.1633990  14.1785860
 120.5188900  10.9278260  14.2221820 119.5772020  11.9905990  13.6971890
 103.5115320 113.9085730  97.5303890 103.4309370 112.9940340  97.2595600
 103.0979740 114.4052800  96.8243600  94.0691140 110.9586450  94.0731310
  93.1807840 111.3002420  93.9711190  94.3532330 110.7586770  93.1812140
  92.0324150 113.5592100  99.9571010  92.6040260 112.7914300  99.9574650
  92.0325690 113.8580860  99.0477620  93.2749020 108.9676460 101.7439940
  93.0951860 108.0702210 102.0242700  92.8729100 109.5148330 102.4186890
 102.1147520 111.1692320  99.6452250 102.4912340 110.2964200  99.5325920
 102.0167030 111.5051020  98.7542690  96.2452530 109.5417950  95.1069690
  96.3519280 110.4421680  95.4138450  95.3344890 109.4935920  94.8164340
 105.8971640 108.6642760  96.5780590 106.7181260 108.1739330  96.6206070
 105.9305720 109.2540420  97.3312430  93.8935690 111.4636960 100.3522280
  94.5745800 111.7275330 100.9709680  93.5783740 110.6237830 100.6860290
  98.0860260 112.5104320  99.4394870  98.5938480 113.0085290 100.0799890
  98.6173500 111.7339520  99.2634230 106.1333120 110.6043140  99.3508130
 105.4288690 110.8928030  99.9311240 106.4945280 111.4143250  98.9907690
  96.0511690 108.8612840 101.7128740  96.3928500 109.7054890 101.4182610
  95.1127500 109.0096580 101.8294080 109.2020040 110.0497930  99.7417340
 108.2544950 110.0836910  99.8732770 109.5270030 110.8636880 100.1266700
  99.7339580 106.3495110  98.0373330 100.0414560 105.7942000  97.3208830
  98.8040280 106.4839570  97.8546320 102.1089420 110.6860940  91.7700610
 101.1693090 110.8474900  91.8553070 102.4272680 111.4046620  91.2236600
  97.7276980 114.9408680  97.5553180  97.3233980 114.2285930  97.0599080
  97.8140100 114.5961920  98.4441220  96.4405600 111.7151890 101.3352220
  96.9920190 111.8247230 100.5605470  96.9549110 112.0889490 102.0507450
 107.9099470 106.4693860  90.5982490 107.5972130 106.5620690  91.4981560
 108.6711940 107.0474890  90.5479920  94.4281610 113.8353660  95.0559830
  94.3079210 114.5615750  94.4441100  94.1182500 113.0656570  94.5787740
  96.8945270 107.1788730  98.4383500  96.4513420 107.9598270  98.1068020
  97.4530260 107.5018620  99.1454440 100.0104090 106.7999430  93.3189330
  99.3858270 106.7959300  94.0442640  99.9234210 105.9330390  92.9225300
  98.9321170 107.7236060 100.2973100  99.2293500 108.6298890 100.2165120
  99.4806730 107.2354840  99.6832670  96.6859490 112.3022300  96.1664750
  96.4600410 112.0859470  97.0711370  95.9052020 112.7350760  95.8210720
 103.9157250 112.3085670  94.7655400 103.3166140 113.0321470  94.5819020
 104.4636860 112.2462450  93.9831850 102.5222120 110.9449210  96.7958680
 102.9151690 111.2621410  95.9827370 102.8838970 110.0661090  96.9103200
  91.5586290 107.5350010  99.0188880  91.2699340 108.1052870  99.7313860
  92.3032050 107.0554460  99.3820110  91.7456520 111.4770130  90.2291600
  91.6631190 112.4200890  90.3706590  91.3939580 111.3345040  89.3503950
 103.1077260 113.5354960 100.8909460 102.3758380 114.0441770 101.2399560
 102.7101600 112.7184940 100.5898240  99.5454650 110.2109160  99.2961950
  99.5490710 109.7699110  98.4466490 100.4405770 110.5326490  99.4033770
  95.3957030 110.0935650  98.2556160  95.0557080 110.5710880  99.0123210
  94.6334350 109.6400770  97.8957260  99.6074800 111.2121240  92.2868710
  99.7287620 111.1707720  93.2354530  99.2223310 112.0745390  92.1315440
 103.5703170 108.9888640 100.3032400 103.5875910 109.4397290 101.1474250
 103.3218750 108.0894280 100.5165840  98.6196300 113.5222380  91.6852010
  98.0513200 113.0740630  91.0587920  99.3285300 113.8815160  91.1517160
  99.8462620 114.2710940 101.0427360 100.2132750 113.7969510 101.7888700
  99.6567680 115.1452510 101.3835700  92.7103110 109.0154630  97.1720830
  92.4250030 108.6510300  98.0099450  92.6481970 108.2835090  96.5583970
 102.3841700 107.9083890  93.8934200 101.5706310 107.4097060  93.8179510
 102.1903650 108.7482140  93.4770550 105.0990090 112.2803540  92.1896360
 105.9869710 112.5920770  92.0147700 105.0695180 111.4075790  91.7976940
 107.3704360 113.5915380  91.6576220 107.2868080 114.0229600  90.8072660
 108.0898550 114.0513730  92.0903040  92.2033770 114.1513580  91.1317530
  93.0728620 114.4338380  91.4153450  91.7124090 114.9649450  91.0166340
  95.2680360 105.8824440  95.7248330  95.1394990 105.8742340  96.6733250
  94.4442380 106.2207530  95.3739340 107.1275100 109.0894810  93.7444040
 106.4988260 109.1940480  93.0302270 106.6327020 109.3091590  94.5337920
  99.0959130 111.3680760  95.1601920  98.3875280 111.8367100  95.6015530
  99.3803610 110.7102770  95.7947110 103.1274560 108.0931420  96.5997710
 103.0042340 108.1117550  95.6507220 104.0759120 108.1410360  96.7196110
  97.2994150 109.6765840  92.5352630  98.1484680 110.1135990  92.4692820
  96.9325420 109.9886100  93.3624690 106.2203930 114.2478600  97.4484200
 105.2794070 114.2628830  97.6231890 106.5348000 113.4614560  97.8944500
  94.8932330 113.3623270  91.6921050  94.9735920 112.4150780  91.8038450
  95.7852080 113.6930150  91.7981710  97.1263500 111.9996560  89.9288960
  96.9252560 111.1363920  90.2902300  96.9555550 111.9129920  88.9910560
 104.6051810 106.8104790  92.4575840 104.8854100 105.9672690  92.8135260
 103.8317540 107.0427900  92.9714590  95.9246300 109.0997180  89.9166840
  96.2272200 109.1064610  89.0085990  96.6640890 108.7495040  90.4134500
  99.1431230 108.0431800  90.9023040  98.7953230 107.3655790  90.3225490
  99.3444000 107.5821310  91.7166430  92.4836870 114.5719450  97.2987410
  91.8285710 114.3031090  96.6547110  93.3214820 114.4623930  96.8489390
 105.4327310 109.3660740  91.5205900 105.8512190 109.1791720  90.6802560
 105.1263370 108.5139790  91.8308830 108.9317040 114.2784880  95.2181700
 108.5560640 113.5112810  94.7862990 108.2020160 114.6607580  95.7056630
  93.5212800 114.9572020 101.8390750  93.8885840 114.8699420 102.7186770
  92.9523620 114.1938570 101.7397610  91.6974950 111.7818380  93.2412740
  90.7939030 112.0448580  93.0664400  92.1815570 112.0529550  92.4612700
 108.2068000 112.5042370  98.5188940 108.7305480 112.0105020  97.8879110
 108.7927420 112.6392730  99.2636510 108.3857720 112.5882240 102.0408490
 107.4360430 112.5545780 102.1553480 108.5670730 113.4982350 101.8058260
  94.2402160 110.8383920  91.1507120  94.9493860 110.4167140  90.6654400
  93.5242100 110.9059150  90.5190470  93.8876320 106.8923250  90.1909770
  94.6104450 107.4332190  90.5090990  94.1600840 106.6186670  89.3151310
 107.6967970 111.7615720  94.4581350 108.1927090 111.5286590  95.2430230
 107.4984040 110.9227560  94.0418990  93.5768510 106.1429440 100.0932390
  94.2244700 105.5926820  99.6527550  93.9970350 106.3972590 100.9148200
 109.1255130 110.3976670  96.9919030 109.0154410 110.2432710  97.9301300
 109.8862720 109.8697610  96.7494440 110.0145400 108.2284590  90.2325170
 110.9394710 108.0965770  90.0243460 109.9921190 108.3077410  91.1861620
 110.0883890 108.9995250  92.8581880 109.2935390 108.9340370  93.3874790
 110.2927170 109.9345890  92.8467230 101.9682750 106.6269030 101.2631620
 101.1854540 107.1014530 101.5428380 101.6745680 105.7223860 101.1544800
 106.5203820 107.3292130  99.3080710 106.9611910 107.2737230  98.4602310
 106.2511410 108.2450140  99.3790890 108.3842390 106.9607370  97.3189530
 108.3230790 106.0168590  97.1720550 109.1634420 107.0687460  97.8642990
  93.3123160 106.9316510  93.7845340  94.0702520 107.0445390  93.2109370
  92.8500330 107.7685710  93.7388770  99.8536970 109.0455780  96.7747650
  99.0411480 108.6712670  96.4343530 100.3578610 108.2900860  97.0768840
 104.3561950 105.7098230  98.0130720 104.9591320 106.2818440  98.4879240
 103.6154940 106.2737670  97.7904620 107.4996550 106.1119790  93.2871000
 107.6947180 107.0103240  93.5538430 106.7126420 105.8806870  93.7803950
  95.6848310 107.4580560  92.3247310  96.2141070 106.6710360  92.1955260
  96.3176630 108.1371750  92.5582840  97.8786150 107.1955700  95.3792700
  97.2488890 106.4943010  95.5462830  97.3391290 107.9559830  95.1625860
 103.5115320 113.9085730  78.7560400 103.4309370 112.9940340  78.4852110
 103.0979740 114.4052800  78.0500110  94.0691140 110.9586450  75.2987820
  93.1807840 111.3002420  75.1967700  94.3532330 110.7586770  74.4068650
  92.0324150 113.5592100  81.1827520  92.6040260 112.7914300  81.1831160
  92.0325690 113.8580860  80.2734130  93.2749020 108.9676460  82.9696450
  93.0951860 108.0702210  83.2499210  92.8729100 109.5148330  83.6443400
 102.1147520 111.1692320  80.8708760 102.4912340 110.2964200  80.7582430
 102.0167030 111.5051020  79.9799200  96.2452530 109.5417950  76.3326200
  96.3519280 110.4421680  76.6394960  95.3344890 109.4935920  76.0420850
 105.8971640 108.6642760  77.8037100 106.7181260 108.1739330  77.8462580
 105.9305720 109.2540420  78.5568940  93.8935690 111.4636960  81.5778790
  94.5745800 111.7275330  82.1966190  93.5783740 110.6237830  81.9116800
  98.0860260 112.5104320  80.6651380  98.5938480 113.0085290  81.3056400
  98.6173500 111.7339520  80.4890740 110.1871190 110.6809510  84.3680730
 109.4823360 111.0691220  83.8495840 110.4529110 111.3759800  84.9701660
  96.3696360 107.1502880  84.9314800  96.3714800 107.6675270  84.1260700
  95.5400670 106.6733060  84.9084730 106.1333120 110.6043140  80.5764640
 105.4288690 110.8928030  81.1567750 106.4945280 111.4143250  80.2164200
  96.0511690 108.8612840  82.9385250  96.3928500 109.7054890  82.6439120
  95.1127500 109.0096580  83.0550590 109.2020040 110.0497930  80.9673850
 108.2544950 110.0836910  81.0989280 109.5270030 110.8636880  81.3523210
  99.7339580 106.3495110  79.2629840 100.0414560 105.7942000  78.5465340
  98.8040280 106.4839570  79.0802830 102.1089420 110.6860940  72.9957120
 101.1693090 110.8474900  73.0809580 102.4272680 111.4046620  72.4493110
 105.5944190 112.1548780  83.9191020 105.1815370 112.9802490  84.1731010
 104.8620140 111.5693820  83.7267380  97.7276980 114.9408680  78.7809690
  97.3233980 114.2285930  78.2855590  97.8140100 114.5961920  79.6697730
  96.4405600 111.7151890  82.5608730  96.9920190 111.8247230  81.7861980
  96.9549110 112.0889490  83.2763960 107.9099470 106.4693860  71.8239000
 107.5972130 106.5620690  72.7238070 108.6711940 107.0474890  71.7736430
  94.4281610 113.8353660  76.2816340  94.3079210 114.5615750  75.6697610
  94.1182500 113.0656570  75.8044250 109.1200760 111.2065360  87.8013140
 108.5045030 111.7145030  87.2728600 108.7997180 110.3063690  87.7439080
  96.8945270 107.1788730  79.6640010  96.4513420 107.9598270  79.3324530
  97.4530260 107.5018620  80.3710950 101.1815080 110.0457250  85.2675330
 100.7194450 110.2540270  86.0795270 100.7793190 109.2316600  84.9646000
 106.1819590 111.2666200  86.3971990 105.3313180 110.9671950  86.7181060
 106.0221380 111.5108210  85.4855810 103.2769300 112.7667950  88.4970780
 103.6022710 111.9331700  88.1573010 104.0649630 113.2896470  88.6449110
 100.0104090 106.7999430  74.5445840  99.3858270 106.7959300  75.2699150
  99.9234210 105.9330390  74.1481810  98.9321170 107.7236060  81.5229610
  99.2293500 108.6298890  81.4421630  99.4806730 107.2354840  80.9089180
  96.6859490 112.3022300  77.3921260  96.4600410 112.0859470  78.2967880
  95.9052020 112.7350760  77.0467230 103.9157250 112.3085670  75.9911910
 103.3166140 113.0321470  75.8075530 104.4636860 112.2462450  75.2088360
  99.1258700 113.2007880  88.0581530  99.0302300 112.2602610  87.9081930
  99.9690680 113.4222950  87.6629600 102.5222120 110.9449210  78.0215190
 102.9151690 111.2621410  77.2083880 102.8838970 110.0661090  78.1359710
  94.2569240 109.6121550  86.2115310  93.8632630 110.4596760  86.4188090
  93.5687640 108.9747920  86.4023950 100.8314290 109.6956520  89.2812050
 100.1412610 109.5028720  89.9158140 101.5746590 109.9791160  89.8136350
  91.5586290 107.5350010  80.2445390  91.2699340 108.1052870  80.9570370
  92.3032050 107.0554460  80.6076620  91.7456520 111.4770130  71.4548110
  91.6631190 112.4200890  71.5963100  91.3939580 111.3345040  70.5760460
 103.1077260 113.5354960  82.1165970 102.3758380 114.0441770  82.4656070
 102.7101600 112.7184940  81.8154750  99.5454650 110.2109160  80.5218460
  99.5490710 109.7699110  79.6723000 100.4405770 110.5326490  80.6290280
  95.3957030 110.0935650  79.4812670  95.0557080 110.5710880  80.2379720
  94.6334350 109.6400770  79.1213770  99.6074800 111.2121240  73.5125220
  99.7287620 111.1707720  74.4611040  99.2223310 112.0745390  73.3571950
 103.5703170 108.9888640  81.5288910 103.5875910 109.4397290  82.3730760
 103.3218750 108.0894280  81.7422350  98.6196300 113.5222380  72.9108520
  98.0513200 113.0740630  72.2844430  99.3285300 113.8815160  72.3773670
 106.9973920 106.4020820  87.3675290 107.3219690 105.6710480  87.8933270
 107.0330430 106.0834460  86.4656280  99.8462620 114.2710940  82.2683870
 100.2132750 113.7969510  83.0145210  99.6567680 115.1452510  82.6092210
  92.7103110 109.0154630  78.3977340  92.4250030 108.6510300  79.2355960
  92.6481970 108.2835090  77.7840480  97.6361990 113.3119580  84.5868080
  97.3319060 114.1911560  84.8118440  98.5908450 113.3719370  84.6225520
 102.3841700 107.9083890  75.1190710 101.5706310 107.4097060  75.0436020
 102.1903650 108.7482140  74.7027060 105.0990090 112.2803540  73.4152870
 105.9869710 112.5920770  73.2404210 105.0695180 111.4075790  73.0233450
  93.6925720 114.1522320  85.7339440  93.3340660 114.8176170  86.3212780
  93.3980280 113.3205870  86.1052060  96.8938840 114.6106560  88.6178990
  96.5938980 114.7563740  87.7206810  97.6650080 114.0511850  88.5252380
 107.3704360 113.5915380  72.8832730 107.2868080 114.0229600  72.0329170
 108.0898550 114.0513730  73.3159550  92.2033770 114.1513580  72.3574040
  93.0728620 114.4338380  72.6409960  91.7124090 114.9649450  72.2422850
  95.2680360 105.8824440  76.9504840  95.1394990 105.8742340  77.8989760
  94.4442380 106.2207530  76.5995850  92.2674290 107.6415560  86.4111540
  91.5532810 107.8412480  87.0164150  92.6869330 106.8655130  86.7826340
 103.7613070 110.1337870  84.1612990 104.1293890 109.3133080  84.4892560
 102.9011270 110.1939760  84.5768640 107.1275100 109.0894810  74.9700550
 106.4988260 109.1940480  74.2558780 106.6327020 109.3091590  75.7594430
  99.0959130 111.3680760  76.3858430  98.3875280 111.8367100  76.8272040
  99.3803610 110.7102770  77.0203620 100.7215060 112.7877460  84.3850960
 101.2200310 113.2623280  85.0502810 100.8638010 111.8640980  84.5920990
 103.1274560 108.0931420  77.8254220 103.0042340 108.1117550  76.8763730
 104.0759120 108.1410360  77.9452620  97.2994150 109.6765840  73.7609140
  98.1484680 110.1135990  73.6949330  96.9325420 109.9886100  74.5881200
 107.9281920 109.0045420  85.2279350 107.4255520 109.7450820  85.5673160
 108.7438580 109.3929420  84.9116140 106.2203930 114.2478600  78.6740710
 105.2794070 114.2628830  78.8488400 106.5348000 113.4614560  79.1201010
  94.8932330 113.3623270  72.9177560  94.9735920 112.4150780  73.0294960
  95.7852080 113.6930150  73.0238220  94.4526210 113.3267780  89.0483800
  94.4931550 113.0281650  89.9569030  95.3071710 113.7275390  88.8891320
  96.3932020 111.9059880  87.0158290  95.8628480 111.4150830  86.3881630
  97.0620090 112.3344080  86.4816220 105.7632250 113.7125500  88.7838630
 106.3453020 112.9577820  88.6959110 105.9394020 114.2432940  88.0070110
  96.8804320 108.8722250  87.0955580  96.7861190 108.2543000  86.3706450
  96.3001710 109.5988540  86.8685490  99.6465760 107.4295490  84.1282970
  99.1983060 107.4519750  83.2828520  99.0130960 107.0314510  84.7253270
 102.3889210 114.0566000  86.1333250 102.5085420 113.4607140  86.8728090
 103.2483210 114.0935690  85.7134550  97.1263500 111.9996560  71.1545470
  96.9252560 111.1363920  71.5158810  96.9555550 111.9129920  70.2167070
  99.1557980 110.5987350  87.3909070  99.7457670 110.2903200  88.0786890
  98.3378220 110.1267100  87.5468970 103.9751410 110.2153160  87.6242090
 103.2866930 109.5534700  87.5592080 104.6957430 109.7691430  88.0690550
 104.6051810 106.8104790  73.6832350 104.8854100 105.9672690  74.0391770
 103.8317540 107.0427900  74.1971100  95.9246300 109.0997180  71.1423350
  96.2272200 109.1064610  70.2342500  96.6640890 108.7495040  71.6391010
  99.1431230 108.0431800  72.1279550  98.7953230 107.3655790  71.5482000
  99.3444000 107.5821310  72.9422940  92.4836870 114.5719450  78.5243920
  91.8285710 114.3031090  77.8803620  93.3214820 114.4623930  78.0745900
 105.4327310 109.3660740  72.7462410 105.8512190 109.1791720  71.9059070
 105.1263370 108.5139790  73.0565340 108.9317040 114.2784880  76.4438210
 108.5560640 113.5112810  76.0119500 108.2020160 114.6607580  76.9313140
  93.5212800 114.9572020  83.0647260  93.8885840 114.8699420  83.9443280
  92.9523620 114.1938570  82.9654120 108.3216660 113.4256400  86.0777730
 108.0902750 113.1969150  85.1775680 108.5821210 114.3455950  86.0322620
  93.0728800 111.8681110  86.9705680  92.1784850 111.8347870  87.3099390
  93.6126350 112.0667900  87.7356930 106.7604730 108.6512830  88.8557430
 107.6374910 108.6596230  89.2391430 106.7725570 107.9143670  88.2449780
  91.6974950 111.7818380  74.4669250  90.7939030 112.0448580  74.2920910
  92.1815570 112.0529550  73.6869210 108.2068000 112.5042370  79.7445450
 108.7305480 112.0105020  79.1135620 108.7927420 112.6392730  80.4893020
 108.3857720 112.5882240  83.2665000 107.4360430 112.5545780  83.3809990
 108.5670730 113.4982350  83.0314770  94.2402160 110.8383920  72.3763630
  94.9493860 110.4167140  71.8910910  93.5242100 110.9059150  71.7446980
  93.8876320 106.8923250  71.4166280  94.6104450 107.4332190  71.7347500
  94.1600840 106.6186670  70.5407820 107.6967970 111.7615720  75.6837860
 108.1927090 111.5286590  76.4686740 107.4984040 110.9227560  75.2675500
  93.5768510 106.1429440  81.3188900  94.2244700 105.5926820  80.8784060
  93.9970350 106.3972590  82.1404710 109.1255130 110.3976670  78.2175540
 109.0154410 110.2432710  79.1557810 109.8862720 109.8697610  77.9750950
 107.4720850 106.3370800  84.6758540 108.1093070 106.9504940  85.0417730
 107.6195740 106.3731460  83.7307770 110.0145400 108.2284590  71.4581680
 110.9394710 108.0965770  71.2499970 109.9921190 108.3077410  72.4118130
 110.0883890 108.9995250  74.0838390 109.2935390 108.9340370  74.6131300
 110.2927170 109.9345890  74.0723740  93.3300510 106.2985110  84.0614220
  92.9815330 106.7548930  84.8272400  92.9988210 105.4042240  84.1436650
 100.8425330 107.4896990  87.5833640 100.7814220 108.0818820  88.3329050
 101.7825710 107.3822950  87.4383900 103.4799890 107.1467050  87.2225930
 104.0940300 107.4646340  86.5607010 104.0249450 106.6615640  87.8421790
  94.0021150 105.8261310  87.3364990  94.5504140 105.6449360  86.5731100
  94.0676460 105.0355420  87.8721300 104.2207930 105.7099190  83.5495220
 103.3467770 106.0434300  83.3468150 104.1118680 105.2372370  84.3747090
 105.1279910 107.9170060  84.9336940 104.7993270 107.1021820  84.5538670
 106.0762210 107.8739870  84.8102630 101.9682750 106.6269030  82.4888130
 101.1854540 107.1014530  82.7684890 101.6745680 105.7223860  82.3801310
 106.5203820 107.3292130  80.5337220 106.9611910 107.2737230  79.6858820
 106.2511410 108.2450140  80.6047400 108.3842390 106.9607370  78.5446040
 108.3230790 106.0168590  78.3977060 109.1634420 107.0687460  79.0899500
  93.3123160 106.9316510  75.0101850  94.0702520 107.0445390  74.4365880
  92.8500330 107.7685710  74.9645280  99.8536970 109.0455780  78.0004160
  99.0411480 108.6712670  77.6600040 100.3578610 108.2900860  78.3025350
 104.3561950 105.7098230  79.2387230 104.9591320 106.2818440  79.7135750
 103.6154940 106.2737670  79.0161130 107.4996550 106.1119790  74.5127510
 107.6947180 107.0103240  74.7794940 106.7126420 105.8806870  75.0060460
  95.6848310 107.4580560  73.5503820  96.2141070 106.6710360  73.4211770
  96.3176630 108.1371750  73.7839350  97.8786150 107.1955700  76.6049210
  97.2488890 106.4943010  76.7719340  97.3391290 107.9559830  76.3882370
  98.0041710 106.4739680  89.0401700  97.7225980 106.9773280  88.2762520
  98.3861410 105.6761430  88.6743830 104.6057170 105.8893260  89.6182170
 104.4922620 106.2087870  90.5133690 105.4226910 106.2905770  89.3219450
 103.5115320 113.9085730  59.9816910 103.4309370 112.9940340  59.7108620
 103.0979740 114.4052800  59.2756620  94.0691140 110.9586450  56.5244330
  93.1807840 111.3002420  56.4224210  94.3532330 110.7586770  55.6325160
  92.0324150 113.5592100  62.4084030  92.6040260 112.7914300  62.4087670
  92.0325690 113.8580860  61.4990640  93.2749020 108.9676460  64.1952960
  93.0951860 108.0702210  64.4755720  92.8729100 109.5148330  64.8699910
 102.1147520 111.1692320  62.0965270 102.4912340 110.2964200  61.9838940
 102.0167030 111.5051020  61.2055710  96.2452530 109.5417950  57.5582710
  96.3519280 110.4421680  57.8651470  95.3344890 109.4935920  57.2677360
 105.8971640 108.6642760  59.0293610 106.7181260 108.1739330  59.0719090
 105.9305720 109.2540420  59.7825450  93.8935690 111.4636960  62.8035300
  94.5745800 111.7275330  63.4222700  93.5783740 110.6237830  63.1373310
  98.0860260 112.5104320  61.8907890  98.5938480 113.0085290  62.5312910
  98.6173500 111.7339520  61.7147250 110.1871190 110.6809510  65.5937240
 109.4823360 111.0691220  65.0752350 110.4529110 111.3759800  66.1958170
  96.3696360 107.1502880  66.1571310  96.3714800 107.6675270  65.3517210
  95.5400670 106.6733060  66.1341240 106.1333120 110.6043140  61.8021150
 105.4288690 110.8928030  62.3824260 106.4945280 111.4143250  61.4420710
  96.0511690 108.8612840  64.1641760  96.3928500 109.7054890  63.8695630
  95.1127500 109.0096580  64.2807100 109.2020040 110.0497930  62.1930360
 108.2544950 110.0836910  62.3245790 109.5270030 110.8636880  62.5779720
  99.7339580 106.3495110  60.4886350 100.0414560 105.7942000  59.7721850
  98.8040280 106.4839570  60.3059340 102.1089420 110.6860940  54.2213630
 101.1693090 110.8474900  54.3066090 102.4272680 111.4046620  53.6749620
 105.5944190 112.1548780  65.1447530 105.1815370 112.9802490  65.3987520
 104.8620140 111.5693820  64.9523890  97.7276980 114.9408680  60.0066200
  97.3233980 114.2285930  59.5112100  97.8140100 114.5961920  60.8954240
  96.4405600 111.7151890  63.7865240  96.9920190 111.8247230  63.0118490
  96.9549110 112.0889490  64.5020470 107.9099470 106.4693860  53.0495510
 107.5972130 106.5620690  53.9494580 108.6711940 107.0474890  52.9992940
  94.4281610 113.8353660  57.5072850  94.3079210 114.5615750  56.8954120
  94.1182500 113.0656570  57.0300760 109.1200760 111.2065360  69.0269650
 108.5045030 111.7145030  68.4985110 108.7997180 110.3063690  68.9695590
  96.8945270 107.1788730  60.8896520  96.4513420 107.9598270  60.5581040
  97.4530260 107.5018620  61.5967460 101.1815080 110.0457250  66.4931840
 100.7194450 110.2540270  67.3051780 100.7793190 109.2316600  66.1902510
 106.1819590 111.2666200  67.6228500 105.3313180 110.9671950  67.9437570
 106.0221380 111.5108210  66.7112320 103.2769300 112.7667950  69.7227290
 103.6022710 111.9331700  69.3829520 104.0649630 113.2896470  69.8705620
 100.0104090 106.7999430  55.7702350  99.3858270 106.7959300  56.4955660
  99.9234210 105.9330390  55.3738320  98.9321170 107.7236060  62.7486120
  99.2293500 108.6298890  62.6678140  99.4806730 107.2354840  62.1345690
  96.6859490 112.3022300  58.6177770  96.4600410 112.0859470  59.5224390
  95.9052020 112.7350760  58.2723740 103.9157250 112.3085670  57.2168420
 103.3166140 113.0321470  57.0332040 104.4636860 112.2462450  56.4344870
  99.1258700 113.2007880  69.2838040  99.0302300 112.2602610  69.1338440
  99.9690680 113.4222950  68.8886110 102.5222120 110.9449210  59.2471700
 102.9151690 111.2621410  58.4340390 102.8838970 110.0661090  59.3616220
  94.2569240 109.6121550  67.4371820  93.8632630 110.4596760  67.6444600
  93.5687640 108.9747920  67.6280460 100.8314290 109.6956520  70.5068560
 100.1412610 109.5028720  71.1414650 101.5746590 109.9791160  71.0392860
  91.5586290 107.5350010  61.4701900  91.2699340 108.1052870  62.1826880
  92.3032050 107.0554460  61.8333130  91.7456520 111.4770130  52.6804620
  91.6631190 112.4200890  52.8219610  91.3939580 111.3345040  51.8016970
 103.1077260 113.5354960  63.3422480 102.3758380 114.0441770  63.6912580
 102.7101600 112.7184940  63.0411260  99.5454650 110.2109160  61.7474970
  99.5490710 109.7699110  60.8979510 100.4405770 110.5326490  61.8546790
  95.3957030 110.0935650  60.7069180  95.0557080 110.5710880  61.4636230
  94.6334350 109.6400770  60.3470280  99.6074800 111.2121240  54.7381730
  99.7287620 111.1707720  55.6867550  99.2223310 112.0745390  54.5828460
 103.5703170 108.9888640  62.7545420 103.5875910 109.4397290  63.5987270
 103.3218750 108.0894280  62.9678860  98.6196300 113.5222380  54.1365030
  98.0513200 113.0740630  53.5100940  99.3285300 113.8815160  53.6030180
 106.9973920 106.4020820  68.5931800 107.3219690 105.6710480  69.1189780
 107.0330430 106.0834460  67.6912790  99.8462620 114.2710940  63.4940380
 100.2132750 113.7969510  64.2401720  99.6567680 115.1452510  63.8348720
  92.7103110 109.0154630  59.6233850  92.4250030 108.6510300  60.4612470
  92.6481970 108.2835090  59.0096990  97.6361990 113.3119580  65.8124590
  97.3319060 114.1911560  66.0374950  98.5908450 113.3719370  65.8482030
 102.3841700 107.9083890  56.3447220 101.5706310 107.4097060  56.2692530
 102.1903650 108.7482140  55.9283570 105.0990090 112.2803540  54.6409380
 105.9869710 112.5920770  54.4660720 105.0695180 111.4075790  54.2489960
  93.6925720 114.1522320  66.9595950  93.3340660 114.8176170  67.5469290
  93.3980280 113.3205870  67.3308570  96.8938840 114.6106560  69.8435500
  96.5938980 114.7563740  68.9463320  97.6650080 114.0511850  69.7508890
 107.3704360 113.5915380  54.1089240 107.2868080 114.0229600  53.2585680
 108.0898550 114.0513730  54.5416060  92.2033770 114.1513580  53.5830550
  93.0728620 114.4338380  53.8666470  91.7124090 114.9649450  53.4679360
  95.2680360 105.8824440  58.1761350  95.1394990 105.8742340  59.1246270
  94.4442380 106.2207530  57.8252360  92.2674290 107.6415560  67.6368050
  91.5532810 107.8412480  68.2420660  92.6869330 106.8655130  68.0082850
 103.7613070 110.1337870  65.3869500 104.1293890 109.3133080  65.7149070
 102.9011270 110.1939760  65.8025150 107.1275100 109.0894810  56.1957060
 106.4988260 109.1940480  55.4815290 106.6327020 109.3091590  56.9850940
  99.0959130 111.3680760  57.6114940  98.3875280 111.8367100  58.0528550
  99.3803610 110.7102770  58.2460130 100.7215060 112.7877460  65.6107470
 101.2200310 113.2623280  66.2759320 100.8638010 111.8640980  65.8177500
 103.1274560 108.0931420  59.0510730 103.0042340 108.1117550  58.1020240
 104.0759120 108.1410360  59.1709130  97.2994150 109.6765840  54.9865650
  98.1484680 110.1135990  54.9205840  96.9325420 109.9886100  55.8137710
 107.9281920 109.0045420  66.4535860 107.4255520 109.7450820  66.7929670
 108.7438580 109.3929420  66.1372650 106.2203930 114.2478600  59.8997220
 105.2794070 114.2628830  60.0744910 106.5348000 113.4614560  60.3457520
  94.8932330 113.3623270  54.1434070  94.9735920 112.4150780  54.2551470
  95.7852080 113.6930150  54.2494730  94.4526210 113.3267780  70.2740310
  94.4931550 113.0281650  71.1825540  95.3071710 113.7275390  70.1147830
  96.3932020 111.9059880  68.2414800  95.8628480 111.4150830  67.6138140
  97.0620090 112.3344080  67.7072730 105.7632250 113.7125500  70.0095140
 106.3453020 112.9577820  69.9215620 105.9394020 114.2432940  69.2326620
  96.8804320 108.8722250  68.3212090  96.7861190 108.2543000  67.5962960
  96.3001710 109.5988540  68.0942000  99.6465760 107.4295490  65.3539480
  99.1983060 107.4519750  64.5085030  99.0130960 107.0314510  65.9509780
 102.3889210 114.0566000  67.3589760 102.5085420 113.4607140  68.0984600
 103.2483210 114.0935690  66.9391060  97.1263500 111.9996560  52.3801980
  96.9252560 111.1363920  52.7415320  96.9555550 111.9129920  51.4423580
  99.1557980 110.5987350  68.6165580  99.7457670 110.2903200  69.3043400
  98.3378220 110.1267100  68.7725480 103.9751410 110.2153160  68.8498600
 103.2866930 109.5534700  68.7848590 104.6957430 109.7691430  69.2947060
 104.6051810 106.8104790  54.9088860 104.8854100 105.9672690  55.2648280
 103.8317540 107.0427900  55.4227610  95.9246300 109.0997180  52.3679860
  96.2272200 109.1064610  51.4599010  96.6640890 108.7495040  52.8647520
  99.1431230 108.0431800  53.3536060  98.7953230 107.3655790  52.7738510
  99.3444000 107.5821310  54.1679450  92.4836870 114.5719450  59.7500430
  91.8285710 114.3031090  59.1060130  93.3214820 114.4623930  59.3002410
 105.4327310 109.3660740  53.9718920 105.8512190 109.1791720  53.1315580
 105.1263370 108.5139790  54.2821850 108.9317040 114.2784880  57.6694720
 108.5560640 113.5112810  57.2376010 108.2020160 114.6607580  58.1569650
  93.5212800 114.9572020  64.2903770  93.8885840 114.8699420  65.1699790
  92.9523620 114.1938570  64.1910630 108.3216660 113.4256400  67.3034240
 108.0902750 113.1969150  66.4032190 108.5821210 114.3455950  67.2579130
  93.0728800 111.8681110  68.1962190  92.1784850 111.8347870  68.5355900
  93.6126350 112.0667900  68.9613440 106.7604730 108.6512830  70.0813940
 107.6374910 108.6596230  70.4647940 106.7725570 107.9143670  69.4706290
  91.6974950 111.7818380  55.6925760  90.7939030 112.0448580  55.5177420
  92.1815570 112.0529550  54.9125720 108.2068000 112.5042370  60.9701960
 108.7305480 112.0105020  60.3392130 108.7927420 112.6392730  61.7149530
 108.3857720 112.5882240  64.4921510 107.4360430 112.5545780  64.6066500
 108.5670730 113.4982350  64.2571280  94.2402160 110.8383920  53.6020140
  94.9493860 110.4167140  53.1167420  93.5242100 110.9059150  52.9703490
  93.8876320 106.8923250  52.6422790  94.6104450 107.4332190  52.9604010
  94.1600840 106.6186670  51.7664330 107.6967970 111.7615720  56.9094370
 108.1927090 111.5286590  57.6943250 107.4984040 110.9227560  56.4932010
  93.5768510 106.1429440  62.5445410  94.2244700 105.5926820  62.1040570
  93.9970350 106.3972590  63.3661220 109.1255130 110.3976670  59.4432050
 109.0154410 110.2432710  60.3814320 109.8862720 109.8697610  59.2007460
 107.4720850 106.3370800  65.9015050 108.1093070 106.9504940  66.2674240
 107.6195740 106.3731460  64.9564280 110.0145400 108.2284590  52.6838190
 110.9394710 108.0965770  52.4756480 109.9921190 108.3077410  53.6374640
 110.0883890 108.9995250  55.3094900 109.2935390 108.9340370  55.8387810
 110.2927170 109.9345890  55.2980250  93.3300510 106.2985110  65.2870730
  92.9815330 106.7548930  66.0528910  92.9988210 105.4042240  65.3693160
 100.8425330 107.4896990  68.8090150 100.7814220 108.0818820  69.5585560
 101.7825710 107.3822950  68.6640410 103.4799890 107.1467050  68.4482440
 104.0940300 107.4646340  67.7863520 104.0249450 106.6615640  69.0678300
  94.0021150 105.8261310  68.5621500  94.5504140 105.6449360  67.7987610
  94.0676460 105.0355420  69.0977810 104.2207930 105.7099190  64.7751730
 103.3467770 106.0434300  64.5724660 104.1118680 105.2372370  65.6003600
 105.1279910 107.9170060  66.1593450 104.7993270 107.1021820  65.7795180
 106.0762210 107.8739870  66.0359140 101.9682750 106.6269030  63.7144640
 101.1854540 107.1014530  63.9941400 101.6745680 105.7223860  63.6057820
 106.5203820 107.3292130  61.7593730 106.9611910 107.2737230  60.9115330
 106.2511410 108.2450140  61.8303910 108.3842390 106.9607370  59.7702550
 108.3230790 106.0168590  59.6233570 109.1634420 107.0687460  60.3156010
  93.3123160 106.9316510  56.2358360  94.0702520 107.0445390  55.6622390
  92.8500330 107.7685710  56.1901790  99.8536970 109.0455780  59.2260670
  99.0411480 108.6712670  58.8856550 100.3578610 108.2900860  59.5281860
 104.3561950 105.7098230  60.4643740 104.9591320 106.2818440  60.9392260
 103.6154940 106.2737670  60.2417640 107.4996550 106.1119790  55.7384020
 107.6947180 107.0103240  56.0051450 106.7126420 105.8806870  56.2316970
  95.6848310 107.4580560  54.7760330  96.2141070 106.6710360  54.6468280
  96.3176630 108.1371750  55.0095860  97.8786150 107.1955700  57.8305720
  97.2488890 106.4943010  57.9975850  97.3391290 107.9559830  57.6138880
  98.0041710 106.4739680  70.2658210  97.7225980 106.9773280  69.5019030
  98.3861410 105.6761430  69.9000340 104.6057170 105.8893260  70.8438680
 104.4922620 106.2087870  71.7390200 105.4226910 106.2905770  70.5475960
 103.5115320 113.9085730  41.2073420 103.4309370 112.9940340  40.9365130
 103.0979740 114.4052800  40.5013130  94.0691140 110.9586450  37.7500840
  93.1807840 111.3002420  37.6480720  94.3532330 110.7586770  36.8581670
  92.0324150 113.5592100  43.6340540  92.6040260 112.7914300  43.6344180
  92.0325690 113.8580860  42.7247150  93.2749020 108.9676460  45.4209470
  93.0951860 108.0702210  45.7012230  92.8729100 109.5148330  46.0956420
 102.1147520 111.1692320  43.3221780 102.4912340 110.2964200  43.2095450
 102.0167030 111.5051020  42.4312220  96.2452530 109.5417950  38.7839220
  96.3519280 110.4421680  39.0907980  95.3344890 109.4935920  38.4933870
 105.8971640 108.6642760  40.2550120 106.7181260 108.1739330  40.2975600
 105.9305720 109.2540420  41.0081960  93.8935690 111.4636960  44.0291810
  94.5745800 111.7275330  44.6479210  93.5783740 110.6237830  44.3629820
  98.0860260 112.5104320  43.1164400  98.5938480 113.0085290  43.7569420
  98.6173500 111.7339520  42.9403760 110.1871190 110.6809510  46.8193750
 109.4823360 111.0691220  46.3008860 110.4529110 111.3759800  47.4214680
  96.3696360 107.1502880  47.3827820  96.3714800 107.6675270  46.5773720
  95.5400670 106.6733060  47.3597750 106.1333120 110.6043140  43.0277660
 105.4288690 110.8928030  43.6080770 106.4945280 111.4143250  42.6677220
  96.0511690 108.8612840  45.3898270  96.3928500 109.7054890  45.0952140
  95.1127500 109.0096580  45.5063610 109.2020040 110.0497930  43.4186870
 108.2544950 110.0836910  43.5502300 109.5270030 110.8636880  43.8036230
  99.7339580 106.3495110  41.7142860 100.0414560 105.7942000  40.9978360
  98.8040280 106.4839570  41.5315850 102.1089420 110.6860940  35.4470140
 101.1693090 110.8474900  35.5322600 102.4272680 111.4046620  34.9006130
 105.5944190 112.1548780  46.3704040 105.1815370 112.9802490  46.6244030
 104.8620140 111.5693820  46.1780400  97.7276980 114.9408680  41.2322710
  97.3233980 114.2285930  40.7368610  97.8140100 114.5961920  42.1210750
  96.4405600 111.7151890  45.0121750  96.9920190 111.8247230  44.2375000
  96.9549110 112.0889490  45.7276980 107.9099470 106.4693860  34.2752020
 107.5972130 106.5620690  35.1751090 108.6711940 107.0474890  34.2249450
  94.4281610 113.8353660  38.7329360  94.3079210 114.5615750  38.1210630
  94.1182500 113.0656570  38.2557270 109.1200760 111.2065360  50.2526160
 108.5045030 111.7145030  49.7241620 108.7997180 110.3063690  50.1952100
  96.8945270 107.1788730  42.1153030  96.4513420 107.9598270  41.7837550
  97.4530260 107.5018620  42.8223970 101.1815080 110.0457250  47.7188350
 100.7194450 110.2540270  48.5308290 100.7793190 109.2316600  47.4159020
 106.1819590 111.2666200  48.8485010 105.3313180 110.9671950  49.1694080
 106.0221380 111.5108210  47.9368830 103.2769300 112.7667950  50.9483800
 103.6022710 111.9331700  50.6086030 104.0649630 113.2896470  51.0962130
 100.0104090 106.7999430  36.9958860  99.3858270 106.7959300  37.7212170
  99.9234210 105.9330390  36.5994830  98.9321170 107.7236060  43.9742630
  99.2293500 108.6298890  43.8934650  99.4806730 107.2354840  43.3602200
  96.6859490 112.3022300  39.8434280  96.4600410 112.0859470  40.7480900
  95.9052020 112.7350760  39.4980250 103.9157250 112.3085670  38.4424930
 103.3166140 113.0321470  38.2588550 104.4636860 112.2462450  37.6601380
  99.1258700 113.2007880  50.5094550  99.0302300 112.2602610  50.3594950
  99.9690680 113.4222950  50.1142620 102.5222120 110.9449210  40.4728210
 102.9151690 111.2621410  39.6596900 102.8838970 110.0661090  40.5872730
  94.2569240 109.6121550  48.6628330  93.8632630 110.4596760  48.8701110
  93.5687640 108.9747920  48.8536970 100.8314290 109.6956520  51.7325070
 100.1412610 109.5028720  52.3671160 101.5746590 109.9791160  52.2649370
  91.5586290 107.5350010  42.6958410  91.2699340 108.1052870  43.4083390
  92.3032050 107.0554460  43.0589640  91.7456520 111.4770130  33.9061130
  91.6631190 112.4200890  34.0476120  91.3939580 111.3345040  33.0273480
 103.1077260 113.5354960  44.5678990 102.3758380 114.0441770  44.9169090
 102.7101600 112.7184940  44.2667770  99.5454650 110.2109160  42.9731480
  99.5490710 109.7699110  42.1236020 100.4405770 110.5326490  43.0803300
  95.3957030 110.0935650  41.9325690  95.0557080 110.5710880  42.6892740
  94.6334350 109.6400770  41.5726790  99.6074800 111.2121240  35.9638240
  99.7287620 111.1707720  36.9124060  99.2223310 112.0745390  35.8084970
 103.5703170 108.9888640  43.9801930 103.5875910 109.4397290  44.8243780
 103.3218750 108.0894280  44.1935370  98.6196300 113.5222380  35.3621540
  98.0513200 113.0740630  34.7357450  99.3285300 113.8815160  34.8286690
 106.9973920 106.4020820  49.8188310 107.3219690 105.6710480  50.3446290
 107.0330430 106.0834460  48.9169300  99.8462620 114.2710940  44.7196890
 100.2132750 113.7969510  45.4658230  99.6567680 115.1452510  45.0605230
  92.7103110 109.0154630  40.8490360  92.4250030 108.6510300  41.6868980
  92.6481970 108.2835090  40.2353500  97.6361990 113.3119580  47.0381100
  97.3319060 114.1911560  47.2631460  98.5908450 113.3719370  47.0738540
 102.3841700 107.9083890  37.5703730 101.5706310 107.4097060  37.4949040
 102.1903650 108.7482140  37.1540080 105.0990090 112.2803540  35.8665890
 105.9869710 112.5920770  35.6917230 105.0695180 111.4075790  35.4746470
  93.6925720 114.1522320  48.1852460  93.3340660 114.8176170  48.7725800
  93.3980280 113.3205870  48.5565080  96.8938840 114.6106560  51.0692010
  96.5938980 114.7563740  50.1719830  97.6650080 114.0511850  50.9765400
 107.3704360 113.5915380  35.3345750 107.2868080 114.0229600  34.4842190
 108.0898550 114.0513730  35.7672570  92.2033770 114.1513580  34.8087060
  93.0728620 114.4338380  35.0922980  91.7124090 114.9649450  34.6935870
  95.2680360 105.8824440  39.4017860  95.1394990 105.8742340  40.3502780
  94.4442380 106.2207530  39.0508870  92.2674290 107.6415560  48.8624560
  91.5532810 107.8412480  49.4677170  92.6869330 106.8655130  49.2339360
 103.7613070 110.1337870  46.6126010 104.1293890 109.3133080  46.9405580
 102.9011270 110.1939760  47.0281660 107.1275100 109.0894810  37.4213570
 106.4988260 109.1940480  36.7071800 106.6327020 109.3091590  38.2107450
  99.0959130 111.3680760  38.8371450  98.3875280 111.8367100  39.2785060
  99.3803610 110.7102770  39.4716640 100.7215060 112.7877460  46.8363980
 101.2200310 113.2623280  47.5015830 100.8638010 111.8640980  47.0434010
 103.1274560 108.0931420  40.2767240 103.0042340 108.1117550  39.3276750
 104.0759120 108.1410360  40.3965640  97.2994150 109.6765840  36.2122160
  98.1484680 110.1135990  36.1462350  96.9325420 109.9886100  37.0394220
 107.9281920 109.0045420  47.6792370 107.4255520 109.7450820  48.0186180
 108.7438580 109.3929420  47.3629160 106.2203930 114.2478600  41.1253730
 105.2794070 114.2628830  41.3001420 106.5348000 113.4614560  41.5714030
  94.8932330 113.3623270  35.3690580  94.9735920 112.4150780  35.4807980
  95.7852080 113.6930150  35.4751240  94.4526210 113.3267780  51.4996820
  94.4931550 113.0281650  52.4082050  95.3071710 113.7275390  51.3404340
  96.3932020 111.9059880  49.4671310  95.8628480 111.4150830  48.8394650
  97.0620090 112.3344080  48.9329240 105.7632250 113.7125500  51.2351650
 106.3453020 112.9577820  51.1472130 105.9394020 114.2432940  50.4583130
  96.8804320 108.8722250  49.5468600  96.7861190 108.2543000  48.8219470
  96.3001710 109.5988540  49.3198510  99.6465760 107.4295490  46.5795990
  99.1983060 107.4519750  45.7341540  99.0130960 107.0314510  47.1766290
 102.3889210 114.0566000  48.5846270 102.5085420 113.4607140  49.3241110
 103.2483210 114.0935690  48.1647570  97.1263500 111.9996560  33.6058490
  96.9252560 111.1363920  33.9671830  96.9555550 111.9129920  32.6680090
  99.1557980 110.5987350  49.8422090  99.7457670 110.2903200  50.5299910
  98.3378220 110.1267100  49.9981990 103.9751410 110.2153160  50.0755110
 103.2866930 109.5534700  50.0105100 104.6957430 109.7691430  50.5203570
 104.6051810 106.8104790  36.1345370 104.8854100 105.9672690  36.4904790
 103.8317540 107.0427900  36.6484120  95.9246300 109.0997180  33.5936370
  96.2272200 109.1064610  32.6855520  96.6640890 108.7495040  34.0904030
  99.1431230 108.0431800  34.5792570  98.7953230 107.3655790  33.9995020
  99.3444000 107.5821310  35.3935960  92.4836870 114.5719450  40.9756940
  91.8285710 114.3031090  40.3316640  93.3214820 114.4623930  40.5258920
 105.4327310 109.3660740  35.1975430 105.8512190 109.1791720  34.3572090
 105.1263370 108.5139790  35.5078360 108.9317040 114.2784880  38.8951230
 108.5560640 113.5112810  38.4632520 108.2020160 114.6607580  39.3826160
  93.5212800 114.9572020  45.5160280  93.8885840 114.8699420  46.3956300
  92.9523620 114.1938570  45.4167140 108.3216660 113.4256400  48.5290750
 108.0902750 113.1969150  47.6288700 108.5821210 114.3455950  48.4835640
  93.0728800 111.8681110  49.4218700  92.1784850 111.8347870  49.7612410
  93.6126350 112.0667900  50.1869950 106.7604730 108.6512830  51.3070450
 107.6374910 108.6596230  51.6904450 106.7725570 107.9143670  50.6962800
  91.6974950 111.7818380  36.9182270  90.7939030 112.0448580  36.7433930
  92.1815570 112.0529550  36.1382230 108.2068000 112.5042370  42.1958470
 108.7305480 112.0105020  41.5648640 108.7927420 112.6392730  42.9406040
 108.3857720 112.5882240  45.7178020 107.4360430 112.5545780  45.8323010
 108.5670730 113.4982350  45.4827790  94.2402160 110.8383920  34.8276650
  94.9493860 110.4167140  34.3423930  93.5242100 110.9059150  34.1960000
  93.8876320 106.8923250  33.8679300  94.6104450 107.4332190  34.1860520
  94.1600840 106.6186670  32.9920840 107.6967970 111.7615720  38.1350880
 108.1927090 111.5286590  38.9199760 107.4984040 110.9227560  37.7188520
  93.5768510 106.1429440  43.7701920  94.2244700 105.5926820  43.3297080
  93.9970350 106.3972590  44.5917730 109.1255130 110.3976670  40.6688560
 109.0154410 110.2432710  41.6070830 109.8862720 109.8697610  40.4263970
 107.4720850 106.3370800  47.1271560 108.1093070 106.9504940  47.4930750
 107.6195740 106.3731460  46.1820790 110.0145400 108.2284590  33.9094700
 110.9394710 108.0965770  33.7012990 109.9921190 108.3077410  34.8631150
 110.0883890 108.9995250  36.5351410 109.2935390 108.9340370  37.0644320
 110.2927170 109.9345890  36.5236760  93.3300510 106.2985110  46.5127240
  92.9815330 106.7548930  47.2785420  92.9988210 105.4042240  46.5949670
 100.8425330 107.4896990  50.0346660 100.7814220 108.0818820  50.7842070
 101.7825710 107.3822950  49.8896920 103.4799890 107.1467050  49.6738950
 104.0940300 107.4646340  49.0120030 104.0249450 106.6615640  50.2934810
  94.0021150 105.8261310  49.7878010  94.5504140 105.6449360  49.0244120
  94.0676460 105.0355420  50.3234320 104.2207930 105.7099190  46.0008240
 103.3467770 106.0434300  45.7981170 104.1118680 105.2372370  46.8260110
 105.1279910 107.9170060  47.3849960 104.7993270 107.1021820  47.0051690
 106.0762210 107.8739870  47.2615650 101.9682750 106.6269030  44.9401150
 101.1854540 107.1014530  45.2197910 101.6745680 105.7223860  44.8314330
 106.5203820 107.3292130  42.9850240 106.9611910 107.2737230  42.1371840
 106.2511410 108.2450140  43.0560420 108.3842390 106.9607370  40.9959060
 108.3230790 106.0168590  40.8490080 109.1634420 107.0687460  41.5412520
  93.3123160 106.9316510  37.4614870  94.0702520 107.0445390  36.8878900
  92.8500330 107.7685710  37.4158300  99.8536970 109.0455780  40.4517180
  99.0411480 108.6712670  40.1113060 100.3578610 108.2900860  40.7538370
 104.3561950 105.7098230  41.6900250 104.9591320 106.2818440  42.1648770
 103.6154940 106.2737670  41.4674150 107.4996550 106.1119790  36.9640530
 107.6947180 107.0103240  37.2307960 106.7126420 105.8806870  37.4573480
  95.6848310 107.4580560  36.0016840  96.2141070 106.6710360  35.8724790
  96.3176630 108.1371750  36.2352370  97.8786150 107.1955700  39.0562230
  97.2488890 106.4943010  39.2232360  97.3391290 107.9559830  38.8395390
  98.0041710 106.4739680  51.4914720  97.7225980 106.9773280  50.7275540
  98.3861410 105.6761430  51.1256850 104.6057170 105.8893260  52.0695190
 104.4922620 106.2087870  52.9646710 105.4226910 106.2905770  51.7732470
 103.5115320 113.9085730  22.4329930 103.4309370 112.9940340  22.1621640
 103.0979740 114.4052800  21.7269640  94.0691140 110.9586450  18.9757350
  93.1807840 111.3002420  18.8737230  94.3532330 110.7586770  18.0838180
  92.0324150 113.5592100  24.8597050  92.6040260 112.7914300  24.8600690
  92.0325690 113.8580860  23.9503660  93.2749020 108.9676460  26.6465980
  93.0951860 108.0702210  26.9268740  92.8729100 109.5148330  27.3212930
 102.1147520 111.1692320  24.5478290 102.4912340 110.2964200  24.4351960
 102.0167030 111.5051020  23.6568730  96.2452530 109.5417950  20.0095730
  96.3519280 110.4421680  20.3164490  95.3344890 109.4935920  19.7190380
 105.8971640 108.6642760  21.4806630 106.7181260 108.1739330  21.5232110
 105.9305720 109.2540420  22.2338470  93.8935690 111.4636960  25.2548320
  94.5745800 111.7275330  25.8735720  93.5783740 110.6237830  25.5886330
  98.0860260 112.5104320  24.3420910  98.5938480 113.0085290  24.9825930
  98.6173500 111.7339520  24.1660270 110.1871190 110.6809510  28.0450260
 109.4823360 111.0691220  27.5265370 110.4529110 111.3759800  28.6471190
  96.3696360 107.1502880  28.6084330  96.3714800 107.6675270  27.8030230
  95.5400670 106.6733060  28.5854260 106.1333120 110.6043140  24.2534170
 105.4288690 110.8928030  24.8337280 106.4945280 111.4143250  23.8933730
  96.0511690 108.8612840  26.6154780  96.3928500 109.7054890  26.3208650
  95.1127500 109.0096580  26.7320120 109.2020040 110.0497930  24.6443380
 108.2544950 110.0836910  24.7758810 109.5270030 110.8636880  25.0292740
  99.7339580 106.3495110  22.9399370 100.0414560 105.7942000  22.2234870
  98.8040280 106.4839570  22.7572360 102.1089420 110.6860940  16.6726650
 101.1693090 110.8474900  16.7579110 102.4272680 111.4046620  16.1262640
 105.5944190 112.1548780  27.5960550 105.1815370 112.9802490  27.8500540
 104.8620140 111.5693820  27.4036910  97.7276980 114.9408680  22.4579220
  97.3233980 114.2285930  21.9625120  97.8140100 114.5961920  23.3467260
  96.4405600 111.7151890  26.2378260  96.9920190 111.8247230  25.4631510
  96.9549110 112.0889490  26.9533490 107.9099470 106.4693860  15.5008530
 107.5972130 106.5620690  16.4007600 108.6711940 107.0474890  15.4505960
  94.4281610 113.8353660  19.9585870  94.3079210 114.5615750  19.3467140
  94.1182500 113.0656570  19.4813780 109.1200760 111.2065360  31.4782670
 108.5045030 111.7145030  30.9498130 108.7997180 110.3063690  31.4208610
  96.8945270 107.1788730  23.3409540  96.4513420 107.9598270  23.0094060
  97.4530260 107.5018620  24.0480480 101.1815080 110.0457250  28.9444860
 100.7194450 110.2540270  29.7564800 100.7793190 109.2316600  28.6415530
 106.1819590 111.2666200  30.0741520 105.3313180 110.9671950  30.3950590
 106.0221380 111.5108210  29.1625340 103.2769300 112.7667950  32.1740310
 103.6022710 111.9331700  31.8342540 104.0649630 113.2896470  32.3218640
 100.0104090 106.7999430  18.2215370  99.3858270 106.7959300  18.9468680
  99.9234210 105.9330390  17.8251340  98.9321170 107.7236060  25.1999140
  99.2293500 108.6298890  25.1191160  99.4806730 107.2354840  24.5858710
  96.6859490 112.3022300  21.0690790  96.4600410 112.0859470  21.9737410
  95.9052020 112.7350760  20.7236760 103.9157250 112.3085670  19.6681440
 103.3166140 113.0321470  19.4845060 104.4636860 112.2462450  18.8857890
  99.1258700 113.2007880  31.7351060  99.0302300 112.2602610  31.5851460
  99.9690680 113.4222950  31.3399130 102.5222120 110.9449210  21.6984720
 102.9151690 111.2621410  20.8853410 102.8838970 110.0661090  21.8129240
  94.2569240 109.6121550  29.8884840  93.8632630 110.4596760  30.0957620
  93.5687640 108.9747920  30.0793480 100.8314290 109.6956520  32.9581580
 100.1412610 109.5028720  33.5927670 101.5746590 109.9791160  33.4905880
  91.5586290 107.5350010  23.9214920  91.2699340 108.1052870  24.6339900
  92.3032050 107.0554460  24.2846150  91.7456520 111.4770130  15.1317640
  91.6631190 112.4200890  15.2732630  91.3939580 111.3345040  14.2529990
 103.1077260 113.5354960  25.7935500 102.3758380 114.0441770  26.1425600
 102.7101600 112.7184940  25.4924280  99.5454650 110.2109160  24.1987990
  99.5490710 109.7699110  23.3492530 100.4405770 110.5326490  24.3059810
  95.3957030 110.0935650  23.1582200  95.0557080 110.5710880  23.9149250
  94.6334350 109.6400770  22.7983300  99.6074800 111.2121240  17.1894750
  99.7287620 111.1707720  18.1380570  99.2223310 112.0745390  17.0341480
 103.5703170 108.9888640  25.2058440 103.5875910 109.4397290  26.0500290
 103.3218750 108.0894280  25.4191880  98.6196300 113.5222380  16.5878050
  98.0513200 113.0740630  15.9613960  99.3285300 113.8815160  16.0543200
 106.9973920 106.4020820  31.0444820 107.3219690 105.6710480  31.5702800
 107.0330430 106.0834460  30.1425810  99.8462620 114.2710940  25.9453400
 100.2132750 113.7969510  26.6914740  99.6567680 115.1452510  26.2861740
  92.7103110 109.0154630  22.0746870  92.4250030 108.6510300  22.9125490
  92.6481970 108.2835090  21.4610010  97.6361990 113.3119580  28.2637610
  97.3319060 114.1911560  28.4887970  98.5908450 113.3719370  28.2995050
 102.3841700 107.9083890  18.7960240 101.5706310 107.4097060  18.7205550
 102.1903650 108.7482140  18.3796590 105.0990090 112.2803540  17.0922400
 105.9869710 112.5920770  16.9173740 105.0695180 111.4075790  16.7002980
  93.6925720 114.1522320  29.4108970  93.3340660 114.8176170  29.9982310
  93.3980280 113.3205870  29.7821590  96.8938840 114.6106560  32.2948520
  96.5938980 114.7563740  31.3976340  97.6650080 114.0511850  32.2021910
 107.3704360 113.5915380  16.5602260 107.2868080 114.0229600  15.7098700
 108.0898550 114.0513730  16.9929080  92.2033770 114.1513580  16.0343570
  93.0728620 114.4338380  16.3179490  91.7124090 114.9649450  15.9192380
  95.2680360 105.8824440  20.6274370  95.1394990 105.8742340  21.5759290
  94.4442380 106.2207530  20.2765380  92.2674290 107.6415560  30.0881070
  91.5532810 107.8412480  30.6933680  92.6869330 106.8655130  30.4595870
 103.7613070 110.1337870  27.8382520 104.1293890 109.3133080  28.1662090
 102.9011270 110.1939760  28.2538170 107.1275100 109.0894810  18.6470080
 106.4988260 109.1940480  17.9328310 106.6327020 109.3091590  19.4363960
  99.0959130 111.3680760  20.0627960  98.3875280 111.8367100  20.5041570
  99.3803610 110.7102770  20.6973150 100.7215060 112.7877460  28.0620490
 101.2200310 113.2623280  28.7272340 100.8638010 111.8640980  28.2690520
 103.1274560 108.0931420  21.5023750 103.0042340 108.1117550  20.5533260
 104.0759120 108.1410360  21.6222150  97.2994150 109.6765840  17.4378670
  98.1484680 110.1135990  17.3718860  96.9325420 109.9886100  18.2650730
 107.9281920 109.0045420  28.9048880 107.4255520 109.7450820  29.2442690
 108.7438580 109.3929420  28.5885670 106.2203930 114.2478600  22.3510240
 105.2794070 114.2628830  22.5257930 106.5348000 113.4614560  22.7970540
  94.8932330 113.3623270  16.5947090  94.9735920 112.4150780  16.7064490
  95.7852080 113.6930150  16.7007750  94.4526210 113.3267780  32.7253330
  94.4931550 113.0281650  33.6338560  95.3071710 113.7275390  32.5660850
  96.3932020 111.9059880  30.6927820  95.8628480 111.4150830  30.0651160
  97.0620090 112.3344080  30.1585750 105.7632250 113.7125500  32.4608160
 106.3453020 112.9577820  32.3728640 105.9394020 114.2432940  31.6839640
  96.8804320 108.8722250  30.7725110  96.7861190 108.2543000  30.0475980
  96.3001710 109.5988540  30.5455020  99.6465760 107.4295490  27.8052500
  99.1983060 107.4519750  26.9598050  99.0130960 107.0314510  28.4022800
 102.3889210 114.0566000  29.8102780 102.5085420 113.4607140  30.5497620
 103.2483210 114.0935690  29.3904080  97.1263500 111.9996560  14.8315000
  96.9252560 111.1363920  15.1928340  96.9555550 111.9129920  13.8936600
  99.1557980 110.5987350  31.0678600  99.7457670 110.2903200  31.7556420
  98.3378220 110.1267100  31.2238500 103.9751410 110.2153160  31.3011620
 103.2866930 109.5534700  31.2361610 104.6957430 109.7691430  31.7460080
 104.6051810 106.8104790  17.3601880 104.8854100 105.9672690  17.7161300
 103.8317540 107.0427900  17.8740630  95.9246300 109.0997180  14.8192880
  96.2272200 109.1064610  13.9112030  96.6640890 108.7495040  15.3160540
  99.1431230 108.0431800  15.8049080  98.7953230 107.3655790  15.2251530
  99.3444000 107.5821310  16.6192470  92.4836870 114.5719450  22.2013450
  91.8285710 114.3031090  21.5573150  93.3214820 114.4623930  21.7515430
 105.4327310 109.3660740  16.4231940 105.8512190 109.1791720  15.5828600
 105.1263370 108.5139790  16.7334870 108.9317040 114.2784880  20.1207740
 108.5560640 113.5112810  19.6889030 108.2020160 114.6607580  20.6082670
  93.5212800 114.9572020  26.7416790  93.8885840 114.8699420  27.6212810
  92.9523620 114.1938570  26.6423650 108.3216660 113.4256400  29.7547260
 108.0902750 113.1969150  28.8545210 108.5821210 114.3455950  29.7092150
  93.0728800 111.8681110  30.6475210  92.1784850 111.8347870  30.9868920
  93.6126350 112.0667900  31.4126460 106.7604730 108.6512830  32.5326960
 107.6374910 108.6596230  32.9160960 106.7725570 107.9143670  31.9219310
  91.6974950 111.7818380  18.1438780  90.7939030 112.0448580  17.9690440
  92.1815570 112.0529550  17.3638740 108.2068000 112.5042370  23.4214980
 108.7305480 112.0105020  22.7905150 108.7927420 112.6392730  24.1662550
 108.3857720 112.5882240  26.9434530 107.4360430 112.5545780  27.0579520
 108.5670730 113.4982350  26.7084300  94.2402160 110.8383920  16.0533160
  94.9493860 110.4167140  15.5680440  93.5242100 110.9059150  15.4216510
  93.8876320 106.8923250  15.0935810  94.6104450 107.4332190  15.4117030
  94.1600840 106.6186670  14.2177350 107.6967970 111.7615720  19.3607390
 108.1927090 111.5286590  20.1456270 107.4984040 110.9227560  18.9445030
  93.5768510 106.1429440  24.9958430  94.2244700 105.5926820  24.5553590
  93.9970350 106.3972590  25.8174240 109.1255130 110.3976670  21.8945070
 109.0154410 110.2432710  22.8327340 109.8862720 109.8697610  21.6520480
 107.4720850 106.3370800  28.3528070 108.1093070 106.9504940  28.7187260
 107.6195740 106.3731460  27.4077300 110.0145400 108.2284590  15.1351210
 110.9394710 108.0965770  14.9269500 109.9921190 108.3077410  16.0887660
 110.0883890 108.9995250  17.7607920 109.2935390 108.9340370  18.2900830
 110.2927170 109.9345890  17.7493270  93.3300510 106.2985110  27.7383750
  92.9815330 106.7548930  28.5041930  92.9988210 105.4042240  27.8206180
 100.8425330 107.4896990  31.2603170 100.7814220 108.0818820  32.0098580
 101.7825710 107.3822950  31.1153430 103.4799890 107.1467050  30.8995460
 104.0940300 107.4646340  30.2376540 104.0249450 106.6615640  31.5191320
  94.0021150 105.8261310  31.0134520  94.5504140 105.6449360  30.2500630
  94.0676460 105.0355420  31.5490830 104.2207930 105.7099190  27.2264750
 103.3467770 106.0434300  27.0237680 104.1118680 105.2372370  28.0516620
 105.1279910 107.9170060  28.6106470 104.7993270 107.1021820  28.2308200
 106.0762210 107.8739870  28.4872160 101.9682750 106.6269030  26.1657660
 101.1854540 107.1014530  26.4454420 101.6745680 105.7223860  26.0570840
 106.5203820 107.3292130  24.2106750 106.9611910 107.2737230  23.3628350
 106.2511410 108.2450140  24.2816930 108.3842390 106.9607370  22.2215570
 108.3230790 106.0168590  22.0746590 109.1634420 107.0687460  22.7669030
  93.3123160 106.9316510  18.6871380  94.0702520 107.0445390  18.1135410
  92.8500330 107.7685710  18.6414810  99.8536970 109.0455780  21.6773690
  99.0411480 108.6712670  21.3369570 100.3578610 108.2900860  21.9794880
 104.3561950 105.7098230  22.9156760 104.9591320 106.2818440  23.3905280
 103.6154940 106.2737670  22.6930660 107.4996550 106.1119790  18.1897040
 107.6947180 107.0103240  18.4564470 106.7126420 105.8806870  18.6829990
  95.6848310 107.4580560  17.2273350  96.2141070 106.6710360  17.0981300
  96.3176630 108.1371750  17.4608880  97.8786150 107.1955700  20.2818740
  97.2488890 106.4943010  20.4488870  97.3391290 107.9559830  20.0651900
  98.0041710 106.4739680  32.7171230  97.7225980 106.9773280  31.9532050
  98.3861410 105.6761430  32.3513360 104.6057170 105.8893260  33.2951700
 104.4922620 106.2087870  34.1903220 105.4226910 106.2905770  32.9988980
 103.5115320 113.9085730   3.6586440 103.4309370 112.9940340   3.3878150
 103.0979740 114.4052800   2.9526150  92.0324150 113.5592100   6.0853560
  92.6040260 112.7914300   6.0857200  92.0325690 113.8580860   5.1760170
  93.2749020 108.9676460   7.8722490  93.0951860 108.0702210   8.1525250
  92.8729100 109.5148330   8.5469440 102.1147520 111.1692320   5.7734800
 102.4912340 110.2964200   5.6608470 102.0167030 111.5051020   4.8825240
 105.8971640 108.6642760   2.7063140 106.7181260 108.1739330   2.7488620
 105.9305720 109.2540420   3.4594980  93.8935690 111.4636960   6.4804830
  94.5745800 111.7275330   7.0992230  93.5783740 110.6237830   6.8142840
  98.0860260 112.5104320   5.5677420  98.5938480 113.0085290   6.2082440
  98.6173500 111.7339520   5.3916780 110.1871190 110.6809510   9.2706770
 109.4823360 111.0691220   8.7521880 110.4529110 111.3759800   9.8727700
  96.3696360 107.1502880   9.8340840  96.3714800 107.6675270   9.0286740
  95.5400670 106.6733060   9.8110770 106.1333120 110.6043140   5.4790680
 105.4288690 110.8928030   6.0593790 106.4945280 111.4143250   5.1190240
  96.0511690 108.8612840   7.8411290  96.3928500 109.7054890   7.5465160
  95.1127500 109.0096580   7.9576630 109.2020040 110.0497930   5.8699890
 108.2544950 110.0836910   6.0015320 109.5270030 110.8636880   6.2549250
  99.7339580 106.3495110   4.1655880 100.0414560 105.7942000   3.4491380
  98.8040280 106.4839570   3.9828870 105.5944190 112.1548780   8.8217060
 105.1815370 112.9802490   9.0757050 104.8620140 111.5693820   8.6293420
  97.7276980 114.9408680   3.6835730  97.3233980 114.2285930   3.1881630
  97.8140100 114.5961920   4.5723770  96.4405600 111.7151890   7.4634770
  96.9920190 111.8247230   6.6888020  96.9549110 112.0889490   8.1790000
 109.1200760 111.2065360  12.7039180 108.5045030 111.7145030  12.1754640
 108.7997180 110.3063690  12.6465120  96.8945270 107.1788730   4.5666050
  96.4513420 107.9598270   4.2350570  97.4530260 107.5018620   5.2736990
 101.1815080 110.0457250  10.1701370 100.7194450 110.2540270  10.9821310
 100.7793190 109.2316600   9.8672040 106.1819590 111.2666200  11.2998030
 105.3313180 110.9671950  11.6207100 106.0221380 111.5108210  10.3881850
 103.2769300 112.7667950  13.3996820 103.6022710 111.9331700  13.0599050
 104.0649630 113.2896470  13.5475150  98.9321170 107.7236060   6.4255650
  99.2293500 108.6298890   6.3447670  99.4806730 107.2354840   5.8115220
  96.6859490 112.3022300   2.2947300  96.4600410 112.0859470   3.1993920
  95.9052020 112.7350760   1.9493270  99.1258700 113.2007880  12.9607570
  99.0302300 112.2602610  12.8107970  99.9690680 113.4222950  12.5655640
 102.5222120 110.9449210   2.9241230 102.9151690 111.2621410   2.1109920
 102.8838970 110.0661090   3.0385750  94.2569240 109.6121550  11.1141350
  93.8632630 110.4596760  11.3214130  93.5687640 108.9747920  11.3049990
 100.8314290 109.6956520  14.1838090 100.1412610 109.5028720  14.8184180
 101.5746590 109.9791160  14.7162390  91.5586290 107.5350010   5.1471430
  91.2699340 108.1052870   5.8596410  92.3032050 107.0554460   5.5102660
 103.1077260 113.5354960   7.0192010 102.3758380 114.0441770   7.3682110
 102.7101600 112.7184940   6.7180790  99.5454650 110.2109160   5.4244500
  99.5490710 109.7699110   4.5749040 100.4405770 110.5326490   5.5316320
  95.3957030 110.0935650   4.3838710  95.0557080 110.5710880   5.1405760
  94.6334350 109.6400770   4.0239810 103.5703170 108.9888640   6.4314950
 103.5875910 109.4397290   7.2756800 103.3218750 108.0894280   6.6448390
 106.9973920 106.4020820  12.2701330 107.3219690 105.6710480  12.7959310
 107.0330430 106.0834460  11.3682320  99.8462620 114.2710940   7.1709910
 100.2132750 113.7969510   7.9171250  99.6567680 115.1452510   7.5118250
  92.7103110 109.0154630   3.3003380  92.4250030 108.6510300   4.1382000
  92.6481970 108.2835090   2.6866520  97.6361990 113.3119580   9.4894120
  97.3319060 114.1911560   9.7144480  98.5908450 113.3719370   9.5251560
  93.6925720 114.1522320  10.6365480  93.3340660 114.8176170  11.2238820
  93.3980280 113.3205870  11.0078100  96.8938840 114.6106560  13.5205030
  96.5938980 114.7563740  12.6232850  97.6650080 114.0511850  13.4278420
  92.2674290 107.6415560  11.3137580  91.5532810 107.8412480  11.9190190
  92.6869330 106.8655130  11.6852380 103.7613070 110.1337870   9.0639030
 104.1293890 109.3133080   9.3918600 102.9011270 110.1939760   9.4794680
 100.7215060 112.7877460   9.2877000 101.2200310 113.2623280   9.9528850
 100.8638010 111.8640980   9.4947030 103.1274560 108.0931420   2.7280260
 103.0042340 108.1117550   1.7789770 104.0759120 108.1410360   2.8478660
 107.9281920 109.0045420  10.1305390 107.4255520 109.7450820  10.4699200
 108.7438580 109.3929420   9.8142180 106.2203930 114.2478600   3.5766750
 105.2794070 114.2628830   3.7514440 106.5348000 113.4614560   4.0227050
  94.4526210 113.3267780  13.9509840  94.4931550 113.0281650  14.8595070
  95.3071710 113.7275390  13.7917360  96.3932020 111.9059880  11.9184330
  95.8628480 111.4150830  11.2907670  97.0620090 112.3344080  11.3842260
 105.7632250 113.7125500  13.6864670 106.3453020 112.9577820  13.5985150
 105.9394020 114.2432940  12.9096150  96.8804320 108.8722250  11.9981620
  96.7861190 108.2543000  11.2732490  96.3001710 109.5988540  11.7711530
  99.6465760 107.4295490   9.0309010  99.1983060 107.4519750   8.1854560
  99.0130960 107.0314510   9.6279310 102.3889210 114.0566000  11.0359290
 102.5085420 113.4607140  11.7754130 103.2483210 114.0935690  10.6160590
  99.1557980 110.5987350  12.2935110  99.7457670 110.2903200  12.9812930
  98.3378220 110.1267100  12.4495010 103.9751410 110.2153160  12.5268130
 103.2866930 109.5534700  12.4618120 104.6957430 109.7691430  12.9716590
  92.4836870 114.5719450   3.4269960  91.8285710 114.3031090   2.7829660
  93.3214820 114.4623930   2.9771940  93.5212800 114.9572020   7.9673300
  93.8885840 114.8699420   8.8469320  92.9523620 114.1938570   7.8680160
 108.3216660 113.4256400  10.9803770 108.0902750 113.1969150  10.0801720
 108.5821210 114.3455950  10.9348660  93.0728800 111.8681110  11.8731720
  92.1784850 111.8347870  12.2125430  93.6126350 112.0667900  12.6382970
 106.7604730 108.6512830  13.7583470 107.6374910 108.6596230  14.1417470
 106.7725570 107.9143670  13.1475820 108.2068000 112.5042370   4.6471490
 108.7305480 112.0105020   4.0161660 108.7927420 112.6392730   5.3919060
 108.3857720 112.5882240   8.1691040 107.4360430 112.5545780   8.2836030
 108.5670730 113.4982350   7.9340810  93.5768510 106.1429440   6.2214940
  94.2244700 105.5926820   5.7810100  93.9970350 106.3972590   7.0430750
 109.1255130 110.3976670   3.1201580 109.0154410 110.2432710   4.0583850
 109.8862720 109.8697610   2.8776990 107.4720850 106.3370800   9.5784580
 108.1093070 106.9504940   9.9443770 107.6195740 106.3731460   8.6333810
  93.3300510 106.2985110   8.9640260  92.9815330 106.7548930   9.7298440
  92.9988210 105.4042240   9.0462690 100.8425330 107.4896990  12.4859680
 100.7814220 108.0818820  13.2355090 101.7825710 107.3822950  12.3409940
 103.4799890 107.1467050  12.1251970 104.0940300 107.4646340  11.4633050
 104.0249450 106.6615640  12.7447830  94.0021150 105.8261310  12.2391030
  94.5504140 105.6449360  11.4757140  94.0676460 105.0355420  12.7747340
 104.2207930 105.7099190   8.4521260 103.3467770 106.0434300   8.2494190
 104.1118680 105.2372370   9.2773130 105.1279910 107.9170060   9.8362980
 104.7993270 107.1021820   9.4564710 106.0762210 107.8739870   9.7128670
 101.9682750 106.6269030   7.3914170 101.1854540 107.1014530   7.6710930
 101.6745680 105.7223860   7.2827350 106.5203820 107.3292130   5.4363260
 106.9611910 107.2737230   4.5884860 106.2511410 108.2450140   5.5073440
 108.3842390 106.9607370   3.4472080 108.3230790 106.0168590   3.3003100
 109.1634420 107.0687460   3.9925540  99.8536970 109.0455780   2.9030200
  99.0411480 108.6712670   2.5626080 100.3578610 108.2900860   3.2051390
 104.3561950 105.7098230   4.1413270 104.9591320 106.2818440   4.6161790
 103.6154940 106.2737670   3.9187170  98.0041710 106.4739680  13.9427740
  97.7225980 106.9773280  13.1788560  98.3861410 105.6761430  13.5769870
 104.6057170 105.8893260  14.5208210 104.4922620 106.2087870  15.4159730
 105.4226910 106.2905770  14.2245490 103.5115320  95.1342240  97.5303890
 103.4309370  94.2196850  97.2595600 103.0979740  95.6309310  96.8243600
 101.6433360  96.9121260  99.4113160 100.8675460  96.4321700  99.7011730
 102.2946290  96.2326910  99.2369320  95.6599190  97.2241070 100.2888920
  94.8284070  96.9689780 100.6885430  96.2680170  97.2951840 101.0246840
 105.6640790 101.3181450  98.1912290 105.2022320 100.5468690  98.5199460
 106.4766340 101.3447520  98.6964740  95.6400450 101.2581160 100.4846940
  95.9428490 100.3678900 100.3057160  96.3844040 101.8151380 100.2569190
  94.0691140  92.1842960  94.0731310  93.1807840  92.5258930  93.9711190
  94.3532330  91.9843280  93.1812140  92.0324150  94.7848610  99.9571010
  92.6040260  94.0170810  99.9574650  92.0325690  95.0837370  99.0477620
 101.8904100 103.6039460  97.8116280 101.2715540 104.0596960  97.2410720
 102.7455880 103.7590920  97.4105980 101.0842350  99.5878450  99.4183320
 101.0150630  98.6468390  99.2572450 101.8462210  99.6779860  99.9905890
  93.2749020  90.1932970 101.7439940  93.0951860  89.2958720 102.0242700
  92.8729100  90.7404840 102.4186890 102.1147520  92.3948830  99.6452250
 102.4912340  91.5220710  99.5325920 102.0167030  92.7307530  98.7542690
  96.2452530  90.7674460  95.1069690  96.3519280  91.6678190  95.4138450
  95.3344890  90.7192430  94.8164340 105.8971640  89.8899270  96.5780590
 106.7181260  89.3995840  96.6206070 105.9305720  90.4796930  97.3312430
  93.8935690  92.6893470 100.3522280  94.5745800  92.9531840 100.9709680
  93.5783740  91.8494340 100.6860290  98.0860260  93.7360830  99.4394870
  98.5938480  94.2341800 100.0799890  98.6173500  92.9596030  99.2634230
 102.7567450  98.4878700  95.2048190 102.1384720  98.9528150  94.6410910
 103.2690700  99.1806180  95.6217700  97.6199210  98.0154570 101.8831790
  97.2868590  98.6423490 102.5252860  97.7965890  98.5416450 101.1033460
 106.1333120  91.8299650  99.3508130 105.4288690  92.1184540  99.9311240
 106.4945280  92.6399760  98.9907690  96.0511690  90.0869350 101.7128740
  96.3928500  90.9311400 101.4182610  95.1127500  90.2353090 101.8294080
  92.1250650  99.1735230  92.5787820  91.7478630  99.6622330  91.8472720
  92.3823720  99.8460510  93.2094350 107.7495900 101.4474780 101.6135610
 107.0659420 102.1173890 101.6052280 108.2890190 101.6455430 100.8480470
 109.2020040  91.2754440  99.7417340 108.2544950  91.3093420  99.8732770
 109.5270030  92.0893390 100.1266700  99.7339580  87.5751620  98.0373330
 100.0414560  87.0198510  97.3208830  98.8040280  87.7096080  97.8546320
 105.2854640 103.2918910 100.3280790 105.2981800 102.8881200  99.4603050
 104.7329860 104.0666200 100.2242220 106.5800060 100.0135130  95.4170960
 106.4696390  99.0709460  95.5420380 106.5768310 100.3750770  96.3033720
 104.6840080  98.1948750 101.6563400 105.1008870  97.9808860 100.8216860
 105.4079900  98.4521540 102.2272020 102.1220340  95.6400450  94.7733450
 101.1949620  95.5737830  95.0021920 102.2745160  96.5780580  94.6588690
 102.1089420  91.9117450  91.7700610 101.1693090  92.0731410  91.8553070
 102.4272680  92.6303130  91.2236600 108.6302180  96.5935970 101.7479640
 107.8020810  96.6629060 101.2729770 109.2252660  97.1790280 101.2795470
 106.1517630  97.2020750  95.2768700 105.5330050  96.8640300  94.6295000
 106.1342080  96.5580510  95.9847890  97.7276980  96.1665190  97.5553180
  97.3233980  95.4542440  97.0599080  97.8140100  95.8218430  98.4441220
  98.1958680  99.8532750  99.7192390  97.8986970  99.2478220  99.0400170
  99.1458500  99.8910060  99.6081750  96.4405600  92.9408400 101.3352220
  96.9920190  93.0503740 100.5605470  96.9549110  93.3146000 102.0507450
 104.3282330  96.4407560  92.2841450 104.7675610  95.6029990  92.1379270
 105.0410750  97.0736960  92.3705590 102.4377710 101.3803630  96.2522690
 102.8773620 102.1227960  95.8378080 102.3764600 101.6230200  97.1761650
 107.9099470  87.6950370  90.5982490 107.5972130  87.7877200  91.4981560
 108.6711940  88.2731400  90.5479920  94.4281610  95.0610170  95.0559830
  94.3079210  95.7872260  94.4441100  94.1182500  94.2913080  94.5787740
  92.0666980  98.2325310 100.8628470  92.1447400  98.3674080  99.9184190
  92.6808660  97.5241200 101.0556590  93.3114610  99.9325500  97.2734650
  92.9042690 100.0740090  96.4188250  94.2027620  99.6485660  97.0705860
 105.1047890 104.3672750  93.6085700 104.9449030 104.0775690  94.5067530
 104.9394600 103.5912880  93.0730930  97.5836270 104.1471280  95.3857320
  97.4078750 103.2306820  95.1725120  96.7292010 104.5058570  95.6255120
 104.8074020 101.8760310  92.1683700 104.1139180 101.8737600  91.5085980
 105.5496880 101.4519630  91.7377870 104.3723950 103.5023020  96.2432190
 104.8280900 102.7212400  96.5570810 104.7116470 104.2129840  96.7873370
  96.8945270  88.4045240  98.4383500  96.4513420  89.1854780  98.1068020
  97.4530260  88.7275130  99.1454440 100.0104090  88.0255940  93.3189330
  99.3858270  88.0215810  94.0442640  99.9234210  87.1586900  92.9225300
  98.9321170  88.9492570 100.2973100  99.2293500  89.8555400 100.2165120
  99.4806730  88.4611350  99.6832670  96.6859490  93.5278810  96.1664750
  96.4600410  93.3115980  97.0711370  95.9052020  93.9607270  95.8210720
 103.9157250  93.5342180  94.7655400 103.3166140  94.2577980  94.5819020
 104.4636860  93.4718960  93.9831850 102.5222120  92.1705720  96.7958680
 102.9151690  92.4877920  95.9827370 102.8838970  91.2917600  96.9103200
  91.5586290  88.7606520  99.0188880  91.2699340  89.3309380  99.7313860
  92.3032050  88.2810970  99.3820110  91.7456520  92.7026640  90.2291600
  91.6631190  93.6457400  90.3706590  91.3939580  92.5601550  89.3503950
 103.1077260  94.7611470 100.8909460 102.3758380  95.2698280 101.2399560
 102.7101600  93.9441450 100.5898240  99.5454650  91.4365670  99.2961950
  99.5490710  90.9955620  98.4466490 100.4405770  91.7583000  99.4033770
  95.3957030  91.3192160  98.2556160  95.0557080  91.7967390  99.0123210
  94.6334350  90.8657280  97.8957260  99.6074800  92.4377750  92.2868710
  99.7287620  92.3964230  93.2354530  99.2223310  93.3001900  92.1315440
 103.5703170  90.2145150 100.3032400 103.5875910  90.6653800 101.1474250
 103.3218750  89.3150790 100.5165840  98.6196300  94.7478890  91.6852010
  98.0513200  94.2997140  91.0587920  99.3285300  95.1071670  91.1517160
  99.8462620  95.4967450 101.0427360 100.2132750  95.0226020 101.7888700
  99.6567680  96.3709020 101.3835700  92.7103110  90.2411140  97.1720830
  92.4250030  89.8766810  98.0099450  92.6481970  89.5091600  96.5583970
  96.1643780  98.7437080  93.9578420  95.3906040  98.2034700  93.7977140
  96.8938410  98.2243690  93.6196180 106.9231760  97.7402440  99.7504810
 107.6430880  98.2357730  99.3600920 106.7213580  97.0620330  99.1058680
 102.3841700  89.1340400  93.8934200 101.5706310  88.6353570  93.8179510
 102.1903650  89.9738650  93.4770550 105.0990090  93.5060050  92.1896360
 105.9869710  93.8177280  92.0147700 105.0695180  92.6332300  91.7976940
  96.2081180  98.4117460  97.5957230  96.7259850  97.6085720  97.5414120
  95.7565200  98.3496600  98.4374060 101.0950680  99.6783740  92.8684530
 101.4366380 100.4225970  92.3727850 100.2663390  99.9914860  93.2309360
 107.3704360  94.8171890  91.6576220 107.2868080  95.2486110  90.8072660
 108.0898550  95.2770240  92.0903040 108.3991610 101.6714150  94.3858350
 107.7567770 101.0169770  94.6602070 108.0122270 102.0769240  93.6099020
 103.9778090  98.9999580  98.2330040 104.3301910  98.4027710  97.5731410
 103.0940420  98.6743810  98.4038290 100.0641370  99.7597270  95.6400450
 100.7512500 100.3066480  96.0208040  99.2773790 100.3038000  95.6750060
  92.2033770  95.3770090  91.1317530  93.0728620  95.6594890  91.4153450
  91.7124090  96.1905960  91.0166340  99.3668580  96.7643300  95.2525810
  99.8231360  97.5748550  95.4786000  99.0156790  96.4466440  96.0844300
  95.2680360  87.1080950  95.7248330  95.1394990  87.0998850  96.6733250
  94.4442380  87.4464040  95.3739340 102.9433270 100.2781990 101.1995560
 103.5855500  99.5775150 101.3127730 103.4682620 101.0580430 101.0192450
 106.7888990 100.5630610  90.9234700 106.5626570  99.8461050  91.5159340
 106.3985190 100.3143050  90.0856450  92.5705020 104.5897470  91.6979160
  92.9302660 105.1886810  91.0436430  92.4297360 105.1357360  92.4714190
 106.3705240  98.4802550  92.5848860 106.0826940  98.9415240  93.3726740
 107.1657410  98.0200320  92.8533080  98.5873640 101.9728670  92.5152830
  98.5783740 102.7058360  91.8997340  97.6672000 101.7260250  92.6079790
  94.1880280  97.1943560  93.2599590  93.5808230  97.9342460  93.2694890
  94.6629630  97.2842920  92.4337790 107.1275100  90.3151320  93.7444040
 106.4988260  90.4196990  93.0302270 106.6327020  90.5348100  94.5337920
 101.5733240 102.0356910  91.1778020 101.6745220 101.8320900  90.2480000
 100.6734980 101.7815190  91.3825800  99.0959130  92.5937270  95.1601920
  98.3875280  93.0623610  95.6015530  99.3803610  91.9359280  95.7947110
 103.1274560  89.3187930  96.5997710 103.0042340  89.3374060  95.6507220
 104.0759120  89.3666870  96.7196110 100.2151350 104.5543230  95.8725690
 100.4692850 104.5164620  94.9505060  99.2663830 104.4276560  95.8653940
  97.2994150  90.9022350  92.5352630  98.1484680  91.3392500  92.4692820
  96.9325420  91.2142610  93.3624690 106.2203930  95.4735110  97.4484200
 105.2794070  95.4885340  97.6231890 106.5348000  94.6871070  97.8944500
  96.1985570  97.1554710  91.0088160  96.9648840  97.0436070  91.5713590
  96.2760260  96.4592680  90.3564930  94.8932330  94.5879780  91.6921050
  94.9735920  93.6407290  91.8038450  95.7852080  94.9186660  91.7981710
 108.2229510 102.6443960  99.1238460 108.3476930 103.4675130  99.5962270
 109.0895070 102.4334690  98.7762610  95.6947040 104.7375170  98.7955590
  96.4309520 104.1890630  99.0664160  96.0787960 105.6031180  98.6561580
  92.5792520 100.8048740  94.6697100  91.6532300 101.0469880  94.6602510
  93.0448950 101.6323000  94.5481850  98.8049350 103.9105480  90.6181160
  99.5977960 104.1994310  90.1662950  98.2853700 103.4797650  89.9393640
 107.8579520 103.1375610  92.0417900 107.5721030 102.7240750  91.2272080
 107.6599070 104.0663320  91.9218420  99.3226750  99.1308890  90.4823510
  99.2177390  98.5161240  91.2084890  99.1550970  98.6074780  89.6986520
 102.5629480  98.1928920  91.0865500 102.0139580  98.6398220  91.7308240
 103.1848740  97.6878170  91.6103170  98.2304600  97.1519840  92.9830800
  98.6521020  96.9859710  93.8262190  98.3555440  96.3420070  92.4885940
 100.7432240  96.1757450  90.2307900 101.2637900  95.4606470  89.8649050
 101.3900640  96.8143320  90.5308410  97.1263500  93.2253070  89.9288960
  96.9252560  92.3620430  90.2902300  96.9555550  93.1386430  88.9910560
 104.6051810  88.0361300  92.4575840 104.8854100  87.1929200  92.8135260
 103.8317540  88.2684410  92.9714590  95.9246300  90.3253690  89.9166840
  96.2272200  90.3321120  89.0085990  96.6640890  89.9751550  90.4134500
  99.1431230  89.2688310  90.9023040  98.7953230  88.5912300  90.3225490
  99.3444000  88.8077820  91.7166430 101.3080270 104.2569060  92.5209640
 102.2031060 104.5954030  92.5428400 101.3397900 103.5348470  91.8933920
  94.9476430  99.6296110  90.7496640  95.3851300 100.1725780  91.4054220
  95.4324160  98.8043060  90.7592980  92.1622230 102.4185140  98.2016900
  92.4925240 101.5506200  97.9695540  92.5913230 102.6243660  99.0321860
  96.7584150 100.7494150  95.8618870  96.4579690 100.6259120  96.7622780
  96.6521640  99.8902740  95.4534600  92.6512440 103.2855730 100.9398530
  92.2143430 103.4656530 101.7722680  93.2190120 104.0430350 100.7980250
 109.5276070 100.5290550  90.5645550 108.6969030 100.5967200  91.0352780
 109.7047900 101.4194670  90.2612410 108.9832530  97.2738030  93.0679750
 109.7451440  97.8434680  93.1739440 108.9986900  96.7065230  93.8388060
  92.4836870  95.7975960  97.2987410  91.8285710  95.5287600  96.6547110
  93.3214820  95.6880440  96.8489390 109.9892500  98.1288130  97.9121680
 110.3601330  97.3455450  97.5057650 110.6294430  98.8177230  97.7338980
 109.0351700  97.5672400  90.2252270 109.3100540  98.4751280  90.0971490
 108.8462440  97.5034930  91.1614260 105.4327310  90.5917250  91.5205900
 105.8512190  90.4048230  90.6802560 105.1263370  89.7396300  91.8308830
 108.9317040  95.5041390  95.2181700 108.5560640  94.7369320  94.7862990
 108.2020160  95.8864090  95.7056630  93.5212800  96.1828530 101.8390750
  93.8885840  96.0955930 102.7186770  92.9523620  95.4195080 101.7397610
  91.6974950  93.0074890  93.2412740  90.7939030  93.2705090  93.0664400
  92.1815570  93.2786060  92.4612700 108.2068000  93.7298880  98.5188940
 108.7305480  93.2361530  97.8879110 108.7927420  93.8649240  99.2636510
 108.3857720  93.8138750 102.0408490 107.4360430  93.7802290 102.1553480
 108.5670730  94.7238860 101.8058260  94.2402160  92.0640430  91.1507120
  94.9493860  91.6423650  90.6654400  93.5242100  92.1315660  90.5190470
  93.8876320  88.1179760  90.1909770  94.6104450  88.6588700  90.5090990
  94.1600840  87.8443180  89.3151310 107.6967970  92.9872230  94.4581350
 108.1927090  92.7543100  95.2430230 107.4984040  92.1484070  94.0418990
  93.5768510  87.3685950 100.0932390  94.2244700  86.8183330  99.6527550
  93.9970350  87.6229100 100.9148200 109.1255130  91.6233180  96.9919030
 109.0154410  91.4689220  97.9301300 109.8862720  91.0954120  96.7494440
 110.0145400  89.4541100  90.2325170 110.9394710  89.3222280  90.0243460
 109.9921190  89.5333920  91.1861620 110.0883890  90.2251760  92.8581880
 109.2935390  90.1596880  93.3874790 110.2927170  91.1602400  92.8467230
 107.0302310 104.2643310  96.8520270 107.6261380 103.9427880  96.1754690
 107.2880460 103.7915130  97.6433540  98.6370910 102.2520810 102.6020620
  98.3962270 102.5195370 101.7151140  99.5773550 102.4226540 102.6571480
 107.5814520 104.9138610 100.6818000 107.1217490 105.6654420 100.3076020
 106.9526980 104.1945080 100.6232800  98.0110240 103.2226850  99.8566130
  98.5275260 102.6114210  99.3314390  98.6607620 103.7255630 100.3477140
 100.7505740 104.1135340 100.6835110 101.0383550 103.8589640  99.8068120
 101.2628960 103.5612700 101.2740680 101.9682750  87.8525540 101.2631620
 101.1854540  88.3271040 101.5428380 101.6745680  86.9480370 101.1544800
 106.5203820  88.5548640  99.3080710 106.9611910  88.4993740  98.4602310
 106.2511410  89.4706650  99.3790890 108.3842390  88.1863880  97.3189530
 108.3230790  87.2425100  97.1720550 109.1634420  88.2943970  97.8642990
  92.6895140 104.3256240  96.2813480  92.5217180 103.6926920  96.9795370
  91.8229650 104.5315640  95.9307670  93.3123160  88.1573020  93.7845340
  94.0702520  88.2701900  93.2109370  92.8500330  88.9942220  93.7388770
  99.8536970  90.2712290  96.7747650  99.0411480  89.8969180  96.4343530
 100.3578610  89.5157370  97.0768840 104.3561950  86.9354740  98.0130720
 104.9591320  87.5074950  98.4879240 103.6154940  87.4994180  97.7904620
 107.4996550  87.3376300  93.2871000 107.6947180  88.2359750  93.5538430
 106.7126420  87.1063380  93.7803950  94.2957840 103.0189470  93.7263620
  93.7705460 103.3997500  93.0225580  94.2202420 103.6440240  94.4473330
  95.6848310  88.6837070  92.3247310  96.2141070  87.8966870  92.1955260
  96.3176630  89.3628260  92.5582840  97.8786150  88.4212210  95.3792700
  97.2488890  87.7199520  95.5462830  97.3391290  89.1816340  95.1625860
 109.0523160 104.5777010  95.0477560 109.2275350 103.8914750  94.4038480
 108.3544730 105.1024060  94.6554230  96.8950810 104.9671850  92.6012870
  97.6269630 104.6831130  92.0536760  97.1544480 104.7285130  93.4912250
  96.0565600 101.0836580  92.6059200  95.4274480 101.5521680  93.1545030
  96.1713430 100.2385800  93.0405390 103.5115320  95.1342240  78.7560400
 103.4309370  94.2196850  78.4852110 103.0979740  95.6309310  78.0500110
 101.6433360  96.9121260  80.6369670 100.8675460  96.4321700  80.9268240
 102.2946290  96.2326910  80.4625830  95.6599190  97.2241070  81.5145430
  94.8284070  96.9689780  81.9141940  96.2680170  97.2951840  82.2503350
 105.6640790 101.3181450  79.4168800 105.2022320 100.5468690  79.7455970
 106.4766340 101.3447520  79.9221250  95.6400450 101.2581160  81.7103450
  95.9428490 100.3678900  81.5313670  96.3844040 101.8151380  81.4825700
  94.0691140  92.1842960  75.2987820  93.1807840  92.5258930  75.1967700
  94.3532330  91.9843280  74.4068650  92.0324150  94.7848610  81.1827520
  92.6040260  94.0170810  81.1831160  92.0325690  95.0837370  80.2734130
 101.8904100 103.6039460  79.0372790 101.2715540 104.0596960  78.4667230
 102.7455880 103.7590920  78.6362490 101.0842350  99.5878450  80.6439830
 101.0150630  98.6468390  80.4828960 101.8462210  99.6779860  81.2162400
  93.2749020  90.1932970  82.9696450  93.0951860  89.2958720  83.2499210
  92.8729100  90.7404840  83.6443400 102.1147520  92.3948830  80.8708760
 102.4912340  91.5220710  80.7582430 102.0167030  92.7307530  79.9799200
  96.2452530  90.7674460  76.3326200  96.3519280  91.6678190  76.6394960
  95.3344890  90.7192430  76.0420850 105.8971640  89.8899270  77.8037100
 106.7181260  89.3995840  77.8462580 105.9305720  90.4796930  78.5568940
  93.8935690  92.6893470  81.5778790  94.5745800  92.9531840  82.1966190
  93.5783740  91.8494340  81.9116800  98.0860260  93.7360830  80.6651380
  98.5938480  94.2341800  81.3056400  98.6173500  92.9596030  80.4890740
 110.1871190  91.9066020  84.3680730 109.4823360  92.2947730  83.8495840
 110.4529110  92.6016310  84.9701660  96.3696360  88.3759390  84.9314800
  96.3714800  88.8931780  84.1260700  95.5400670  87.8989570  84.9084730
 102.7567450  98.4878700  76.4304700 102.1384720  98.9528150  75.8667420
 103.2690700  99.1806180  76.8474210  97.6199210  98.0154570  83.1088300
  97.2868590  98.6423490  83.7509370  97.7965890  98.5416450  82.3289970
 106.1333120  91.8299650  80.5764640 105.4288690  92.1184540  81.1567750
 106.4945280  92.6399760  80.2164200  96.0511690  90.0869350  82.9385250
  96.3928500  90.9311400  82.6439120  95.1127500  90.2353090  83.0550590
  96.8318310  99.9835370  84.9237480  97.4492310 100.6586450  84.6421930
  95.9711430 100.3923350  84.8324980  92.1250650  99.1735230  73.8044330
  91.7478630  99.6622330  73.0729230  92.3823720  99.8460510  74.4350860
 107.7495900 101.4474780  82.8392120 107.0659420 102.1173890  82.8308790
 108.2890190 101.6455430  82.0736980 109.2020040  91.2754440  80.9673850
 108.2544950  91.3093420  81.0989280 109.5270030  92.0893390  81.3523210
  99.7339580  87.5751620  79.2629840 100.0414560  87.0198510  78.5465340
  98.8040280  87.7096080  79.0802830 105.2854640 103.2918910  81.5537300
 105.2981800 102.8881200  80.6859560 104.7329860 104.0666200  81.4498730
 106.5800060 100.0135130  76.6427470 106.4696390  99.0709460  76.7676890
 106.5768310 100.3750770  77.5290230 104.6840080  98.1948750  82.8819910
 105.1008870  97.9808860  82.0473370 105.4079900  98.4521540  83.4528530
 102.1220340  95.6400450  75.9989960 101.1949620  95.5737830  76.2278430
 102.2745160  96.5780580  75.8845200 102.1089420  91.9117450  72.9957120
 101.1693090  92.0731410  73.0809580 102.4272680  92.6303130  72.4493110
 108.6302180  96.5935970  82.9736150 107.8020810  96.6629060  82.4986280
 109.2252660  97.1790280  82.5051980 106.1517630  97.2020750  76.5025210
 105.5330050  96.8640300  75.8551510 106.1342080  96.5580510  77.2104400
 105.5944190  93.3805290  83.9191020 105.1815370  94.2059000  84.1731010
 104.8620140  92.7950330  83.7267380  97.7276980  96.1665190  78.7809690
  97.3233980  95.4542440  78.2855590  97.8140100  95.8218430  79.6697730
  98.1958680  99.8532750  80.9448900  97.8986970  99.2478220  80.2656680
  99.1458500  99.8910060  80.8338260  96.4405600  92.9408400  82.5608730
  96.9920190  93.0503740  81.7861980  96.9549110  93.3146000  83.2763960
 106.2844290 103.4264620  84.6072000 105.8074850 104.2336810  84.4144610
 105.6006080 102.7742950  84.7598210  97.2877110  99.5914440  87.5956700
  96.3905640  99.8154410  87.8430100  97.3129980  99.7149380  86.6468100
 104.3282330  96.4407560  73.5097960 104.7675610  95.6029990  73.3635780
 105.0410750  97.0736960  73.5962100  96.1148330  96.4627760  86.1714070
  95.9756100  97.3350560  86.5401470  95.2329690  96.1200570  86.0262010
 102.4377710 101.3803630  77.4779200 102.8773620 102.1227960  77.0634590
 102.3764600 101.6230200  78.4018160  97.9128680 102.4049460  88.3799220
  97.8844110 102.8092410  87.5127650  97.7493650 101.4759820  88.2170820
 107.9099470  87.6950370  71.8239000 107.5972130  87.7877200  72.7238070
 108.6711940  88.2731400  71.7736430  94.4281610  95.0610170  76.2816340
  94.3079210  95.7872260  75.6697610  94.1182500  94.2913080  75.8044250
 109.8643500 103.1876560  89.6763390 110.3403220 103.6659450  90.3552470
 110.4850660 103.1194050  88.9508890  92.0666980  98.2325310  82.0884980
  92.1447400  98.3674080  81.1440700  92.6808660  97.5241200  82.2813100
  93.3114610  99.9325500  78.4991160  92.9042690 100.0740090  77.6444760
  94.2027620  99.6485660  78.2962370 109.2676750 100.3789410  86.8363400
 109.3939810 100.1401290  85.9180580 109.3098130  99.5473950  87.3085480
 103.1293490 104.0817410  85.4058210 103.6438160 103.9925420  86.2080640
 102.2862570 104.4277110  85.6986120 105.1047890 104.3672750  74.8342210
 104.9449030 104.0775690  75.7324040 104.9394600 103.5912880  74.2987440
  97.5836270 104.1471280  76.6113830  97.4078750 103.2306820  76.3981630
  96.7292010 104.5058570  76.8511630 104.8074020 101.8760310  73.3940210
 104.1139180 101.8737600  72.7342490 105.5496880 101.4519630  72.9634380
 104.3723950 103.5023020  77.4688700 104.8280900 102.7212400  77.7827320
 104.7116470 104.2129840  78.0129880 109.1200760  92.4321870  87.8013140
 108.5045030  92.9401540  87.2728600 108.7997180  91.5320200  87.7439080
  92.1226500  99.2739480  84.6279440  92.2857540  98.8044840  83.8098810
  92.5878950  98.7663040  85.2928280  96.8945270  88.4045240  79.6640010
  96.4513420  89.1854780  79.3324530  97.4530260  88.7275130  80.3710950
 101.1815080  91.2713760  85.2675330 100.7194450  91.4796780  86.0795270
 100.7793190  90.4573110  84.9646000 106.1819590  92.4922710  86.3971990
 105.3313180  92.1928460  86.7181060 106.0221380  92.7364720  85.4855810
 103.2769300  93.9924460  88.4970780 103.6022710  93.1588210  88.1573010
 104.0649630  94.5152980  88.6449110 100.0104090  88.0255940  74.5445840
  99.3858270  88.0215810  75.2699150  99.9234210  87.1586900  74.1481810
  98.9321170  88.9492570  81.5229610  99.2293500  89.8555400  81.4421630
  99.4806730  88.4611350  80.9089180  96.6859490  93.5278810  77.3921260
  96.4600410  93.3115980  78.2967880  95.9052020  93.9607270  77.0467230
 103.9157250  93.5342180  75.9911910 103.3166140  94.2577980  75.8075530
 104.4636860  93.4718960  75.2088360  99.1258700  94.4264390  88.0581530
  99.0302300  93.4859120  87.9081930  99.9690680  94.6479460  87.6629600
 102.5222120  92.1705720  78.0215190 102.9151690  92.4877920  77.2083880
 102.8838970  91.2917600  78.1359710  94.2569240  90.8378060  86.2115310
  93.8632630  91.6853270  86.4188090  93.5687640  90.2004430  86.4023950
 100.8314290  90.9213030  89.2812050 100.1412610  90.7285230  89.9158140
 101.5746590  91.2047670  89.8136350  91.5586290  88.7606520  80.2445390
  91.2699340  89.3309380  80.9570370  92.3032050  88.2810970  80.6076620
  91.7456520  92.7026640  71.4548110  91.6631190  93.6457400  71.5963100
  91.3939580  92.5601550  70.5760460 103.1077260  94.7611470  82.1165970
 102.3758380  95.2698280  82.4656070 102.7101600  93.9441450  81.8154750
  99.5454650  91.4365670  80.5218460  99.5490710  90.9955620  79.6723000
 100.4405770  91.7583000  80.6290280  95.3957030  91.3192160  79.4812670
  95.0557080  91.7967390  80.2379720  94.6334350  90.8657280  79.1213770
  99.6074800  92.4377750  73.5125220  99.7287620  92.3964230  74.4611040
  99.2223310  93.3001900  73.3571950 103.5703170  90.2145150  81.5288910
 103.5875910  90.6653800  82.3730760 103.3218750  89.3150790  81.7422350
  98.6196300  94.7478890  72.9108520  98.0513200  94.2997140  72.2844430
  99.3285300  95.1071670  72.3773670 106.9973920  87.6277330  87.3675290
 107.3219690  86.8966990  87.8933270 107.0330430  87.3090970  86.4656280
  93.6965480  98.6490910  86.7875250  93.3120270  98.0084580  87.3858210
  94.0077670  99.3527030  87.3569980  99.8462620  95.4967450  82.2683870
 100.2132750  95.0226020  83.0145210  99.6567680  96.3709020  82.6092210
  92.7103110  90.2411140  78.3977340  92.4250030  89.8766810  79.2355960
  92.6481970  89.5091600  77.7840480  97.6361990  94.5376090  84.5868080
  97.3319060  95.4168070  84.8118440  98.5908450  94.5975880  84.6225520
  96.1643780  98.7437080  75.1834930  95.3906040  98.2034700  75.0233650
  96.8938410  98.2243690  74.8452690 106.9231760  97.7402440  80.9761320
 107.6430880  98.2357730  80.5857430 106.7213580  97.0620330  80.3315190
 102.3841700  89.1340400  75.1190710 101.5706310  88.6353570  75.0436020
 102.1903650  89.9738650  74.7027060 102.3050560  97.8111500  86.8630320
 102.2387870  96.8907170  86.6087910 101.6755700  97.9086940  87.5774960
 105.0990090  93.5060050  73.4152870 105.9869710  93.8177280  73.2404210
 105.0695180  92.6332300  73.0233450  96.2081180  98.4117460  78.8213740
  96.7259850  97.6085720  78.7670630  95.7565200  98.3496600  79.6630570
 101.0950680  99.6783740  74.0941040 101.4366380 100.4225970  73.5984360
 100.2663390  99.9914860  74.4565870  93.6925720  95.3778830  85.7339440
  93.3340660  96.0432680  86.3212780  93.3980280  94.5462380  86.1052060
  96.8938840  95.8363070  88.6178990  96.5938980  95.9820250  87.7206810
  97.6650080  95.2768360  88.5252380 102.2367290 100.6332070  86.6134120
 102.2511830  99.7013030  86.3953030 101.5292390 100.7191830  87.2523890
 107.3704360  94.8171890  72.8832730 107.2868080  95.2486110  72.0329170
 108.0898550  95.2770240  73.3159550 108.4478500  97.2739410  85.9602700
 107.7226690  97.8668190  85.7632090 108.9753960  97.2662950  85.1616070
 108.3991610 101.6714150  75.6114860 107.7567770 101.0169770  75.8858580
 108.0122270 102.0769240  74.8355530 103.9778090  98.9999580  79.4586550
 104.3301910  98.4027710  78.7987920 103.0940420  98.6743810  79.6294800
 100.0641370  99.7597270  76.8656960 100.7512500 100.3066480  77.2464550
  99.2773790 100.3038000  76.9006570  92.2033770  95.3770090  72.3574040
  93.0728620  95.6594890  72.6409960  91.7124090  96.1905960  72.2422850
  99.3668580  96.7643300  76.4782320  99.8231360  97.5748550  76.7042510
  99.0156790  96.4466440  77.3100810 101.6701190 102.2749640  83.7074620
 102.3143410 102.4809020  84.3848040 102.0330630 101.5138040  83.2545470
  95.2680360  87.1080950  76.9504840  95.1394990  87.0998850  77.8989760
  94.4442380  87.4464040  76.5995850 102.9433270 100.2781990  82.4252070
 103.5855500  99.5775150  82.5384240 103.4682620 101.0580430  82.2448960
 106.7888990 100.5630610  72.1491210 106.5626570  99.8461050  72.7415850
 106.3985190 100.3143050  71.3112960 104.7170890 101.0776890  85.6288130
 105.0527130 101.6643580  86.3066050 103.7971230 100.9469600  85.8585920
  92.5705020 104.5897470  72.9235670  92.9302660 105.1886810  72.2692940
  92.4297360 105.1357360  73.6970700  92.2674290  88.8672070  86.4111540
  91.5532810  89.0668990  87.0164150  92.6869330  88.0911640  86.7826340
 106.3705240  98.4802550  73.8105370 106.0826940  98.9415240  74.5983250
 107.1657410  98.0200320  74.0789590  92.5546880 102.8552330  87.3978070
  92.6638000 101.9147070  87.2573460  91.9027440 103.1207080  86.7491800
 100.5459470 101.1268220  88.7976190 100.2256340 100.4077460  89.3421880
  99.8717830 101.8023290  88.8712250  98.5873640 101.9728670  73.7409340
  98.5783740 102.7058360  73.1253850  97.6672000 101.7260250  73.8336300
  94.1880280  97.1943560  74.4856100  93.5808230  97.9342460  74.4951400
  94.6629630  97.2842920  73.6594300 103.7613070  91.3594380  84.1612990
 104.1293890  90.5389590  84.4892560 102.9011270  91.4196270  84.5768640
 107.1275100  90.3151320  74.9700550 106.4988260  90.4196990  74.2558780
 106.6327020  90.5348100  75.7594430 101.5733240 102.0356910  72.4034530
 101.6745220 101.8320900  71.4736510 100.6734980 101.7815190  72.6082310
  99.0959130  92.5937270  76.3858430  98.3875280  93.0623610  76.8272040
  99.3803610  91.9359280  77.0203620 100.7215060  94.0133970  84.3850960
 101.2200310  94.4879790  85.0502810 100.8638010  93.0897490  84.5920990
 103.1274560  89.3187930  77.8254220 103.0042340  89.3374060  76.8763730
 104.0759120  89.3666870  77.9452620 100.2151350 104.5543230  77.0982200
 100.4692850 104.5164620  76.1761570  99.2663830 104.4276560  77.0910450
  97.2994150  90.9022350  73.7609140  98.1484680  91.3392500  73.6949330
  96.9325420  91.2142610  74.5881200 107.9281920  90.2301930  85.2279350
 107.4255520  90.9707330  85.5673160 108.7438580  90.6185930  84.9116140
 106.2203930  95.4735110  78.6740710 105.2794070  95.4885340  78.8488400
 106.5348000  94.6871070  79.1201010  96.1985570  97.1554710  72.2344670
  96.9648840  97.0436070  72.7970100  96.2760260  96.4592680  71.5821440
  94.8932330  94.5879780  72.9177560  94.9735920  93.6407290  73.0294960
  95.7852080  94.9186660  73.0238220 108.2229510 102.6443960  80.3494970
 108.3476930 103.4675130  80.8218780 109.0895070 102.4334690  80.0019120
  95.6947040 104.7375170  80.0212100  96.4309520 104.1890630  80.2920670
  96.0787960 105.6031180  79.8818090  92.5792520 100.8048740  75.8953610
  91.6532300 101.0469880  75.8859020  93.0448950 101.6323000  75.7738360
  94.7005320 103.9221240  89.2097680  95.5018050 104.2433290  89.6233080
  94.1857140 103.5616820  89.9317590  98.8049350 103.9105480  71.8437670
  99.5977960 104.1994310  71.3919460  98.2853700 103.4797650  71.1650150
 103.5369950 100.0301110  89.1573090 102.9308110 100.0532710  88.4168840
 103.2324060  99.2984150  89.6940340 104.9670320 103.7581400  87.7682500
 105.9192070 103.6739420  87.7182740 104.8198540 104.4223110  88.4416290
 107.8579520 103.1375610  73.2674410 107.5721030 102.7240750  72.4528590
 107.6599070 104.0663320  73.1474930  92.4203130  96.4094700  88.1533730
  92.9242150  95.8301980  88.7249960  91.6810550  96.6934930  88.6910100
  99.3226750  99.1308890  71.7080020  99.2177390  98.5161240  72.4341400
  99.1550970  98.6074780  70.9243030  99.4741070  97.8165690  87.6869250
  98.7086740  98.3850690  87.6023920  99.6557030  97.5241900  86.7937480
 102.5629480  98.1928920  72.3122010 102.0139580  98.6398220  72.9564750
 103.1848740  97.6878170  72.8359680 106.6164420  99.5471020  88.2444270
 107.3573890  99.8846780  87.7411730 105.8537100  99.7163080  87.6914040
  94.4526210  94.5524290  89.0483800  94.4931550  94.2538160  89.9569030
  95.3071710  94.9531900  88.8891320  98.2304600  97.1519840  74.2087310
  98.6521020  96.9859710  75.0518700  98.3555440  96.3420070  73.7142450
  96.3932020  93.1316390  87.0158290  95.8628480  92.6407340  86.3881630
  97.0620090  93.5600590  86.4816220 100.7432240  96.1757450  71.4564410
 101.2637900  95.4606470  71.0905560 101.3900640  96.8143320  71.7564920
 105.2910080  97.5985850  86.7799480 105.7051100  97.7530930  87.6289900
 104.3561080  97.7241070  86.9425260 105.7632250  94.9382010  88.7838630
 106.3453020  94.1834330  88.6959110 105.9394020  95.4689450  88.0070110
  96.8804320  90.0978760  87.0955580  96.7861190  89.4799510  86.3706450
  96.3001710  90.8245050  86.8685490  99.6465760  88.6552000  84.1282970
  99.1983060  88.6776260  83.2828520  99.0130960  88.2571020  84.7253270
 100.0525310  97.5506330  84.7495410 100.4713420  98.3939060  84.5771650
  99.1333940  97.6878370  84.5202190 102.3889210  95.2822510  86.1333250
 102.5085420  94.6863650  86.8728090 103.2483210  95.3192200  85.7134550
 104.7277110  95.8359700  84.7095760 104.2012330  96.3602320  84.1060900
 105.0708450  96.4687090  85.3405490  97.1263500  93.2253070  71.1545470
  96.9252560  92.3620430  71.5158810  96.9555550  93.1386430  70.2167070
  97.9032730 103.8559340  85.8653140  97.3653820 104.5805400  85.5461840
  98.1566690 103.3789680  85.0750480  99.1557980  91.8243860  87.3909070
  99.7457670  91.5159710  88.0786890  98.3378220  91.3523610  87.5468970
 103.9751410  91.4409670  87.6242090 103.2866930  90.7791210  87.5592080
 104.6957430  90.9947940  88.0690550 104.6051810  88.0361300  73.6832350
 104.8854100  87.1929200  74.0391770 103.8317540  88.2684410  74.1971100
  95.9246300  90.3253690  71.1423350  96.2272200  90.3321120  70.2342500
  96.6640890  89.9751550  71.6391010 100.7594940 105.0910550  86.1239790
 100.6853640 105.9945690  86.4312160  99.8573780 104.7722450  86.0961860
  99.1431230  89.2688310  72.1279550  98.7953230  88.5912300  71.5482000
  99.3444000  88.8077820  72.9422940 101.3080270 104.2569060  73.7466150
 102.2031060 104.5954030  73.7684910 101.3397900 103.5348470  73.1190430
  94.9476430  99.6296110  71.9753150  95.3851300 100.1725780  72.6310730
  95.4324160  98.8043060  71.9849490  92.1622230 102.4185140  79.4273410
  92.4925240 101.5506200  79.1952050  92.5913230 102.6243660  80.2578370
  96.7584150 100.7494150  77.0875380  96.4579690 100.6259120  77.9879290
  96.6521640  99.8902740  76.6791110  92.6512440 103.2855730  82.1655040
  92.2143430 103.4656530  82.9979190  93.2190120 104.0430350  82.0236760
 108.2874620 102.7872730  86.4532350 107.6876610 102.8465290  85.7096270
 108.4168520 101.8477710  86.5829200 109.5276070 100.5290550  71.7902060
 108.6969030 100.5967200  72.2609290 109.7047900 101.4194670  71.4868920
 108.9832530  97.2738030  74.2936260 109.7451440  97.8434680  74.3995950
 108.9986900  96.7065230  75.0644570  92.4836870  95.7975960  78.5243920
  91.8285710  95.5287600  77.8803620  93.3214820  95.6880440  78.0745900
 109.9892500  98.1288130  79.1378190 110.3601330  97.3455450  78.7314160
 110.6294430  98.8177230  78.9595490 106.9726260  99.5124710  84.5508510
 106.1586100  99.9421870  84.8134300 107.3800460 100.1243120  83.9377560
 109.0351700  97.5672400  71.4508780 109.3100540  98.4751280  71.3228000
 108.8462440  97.5034930  72.3870770 105.4327310  90.5917250  72.7462410
 105.8512190  90.4048230  71.9059070 105.1263370  89.7396300  73.0565340
 108.9317040  95.5041390  76.4438210 108.5560640  94.7369320  76.0119500
 108.2020160  95.8864090  76.9313140  93.5212800  96.1828530  83.0647260
  93.8885840  96.0955930  83.9443280  92.9523620  95.4195080  82.9654120
 108.3216660  94.6512910  86.0777730 108.0902750  94.4225660  85.1775680
 108.5821210  95.5712460  86.0322620  93.0728800  93.0937620  86.9705680
  92.1784850  93.0604380  87.3099390  93.6126350  93.2924410  87.7356930
 106.7604730  89.8769340  88.8557430 107.6374910  89.8852740  89.2391430
 106.7725570  89.1400180  88.2449780  91.6974950  93.0074890  74.4669250
  90.7939030  93.2705090  74.2920910  92.1815570  93.2786060  73.6869210
 108.2068000  93.7298880  79.7445450 108.7305480  93.2361530  79.1135620
 108.7927420  93.8649240  80.4893020 108.3857720  93.8138750  83.2665000
 107.4360430  93.7802290  83.3809990 108.5670730  94.7238860  83.0314770
  94.2402160  92.0640430  72.3763630  94.9493860  91.6423650  71.8910910
  93.5242100  92.1315660  71.7446980  93.8876320  88.1179760  71.4166280
  94.6104450  88.6588700  71.7347500  94.1600840  87.8443180  70.5407820
 107.6967970  92.9872230  75.6837860 108.1927090  92.7543100  76.4686740
 107.4984040  92.1484070  75.2675500  93.5768510  87.3685950  81.3188900
  94.2244700  86.8183330  80.8784060  93.9970350  87.6229100  82.1404710
 109.1255130  91.6233180  78.2175540 109.0154410  91.4689220  79.1557810
 109.8862720  91.0954120  77.9750950 107.4720850  87.5627310  84.6758540
 108.1093070  88.1761450  85.0417730 107.6195740  87.5987970  83.7307770
 110.0145400  89.4541100  71.4581680 110.9394710  89.3222280  71.2499970
 109.9921190  89.5333920  72.4118130 110.0883890  90.2251760  74.0838390
 109.2935390  90.1596880  74.6131300 110.2927170  91.1602400  74.0723740
 107.0302310 104.2643310  78.0776780 107.6261380 103.9427880  77.4011200
 107.2880460 103.7915130  78.8690050  93.3300510  87.5241620  84.0614220
  92.9815330  87.9805440  84.8272400  92.9988210  86.6298750  84.1436650
  94.9364880 100.6961220  88.2267410  94.8934510 100.3254130  89.1081870
  95.0675890 101.6338790  88.3669230  98.6370910 102.2520810  83.8277130
  98.3962270 102.5195370  82.9407650  99.5773550 102.4226540  83.8827990
 100.8425330  88.7153500  87.5833640 100.7814220  89.3075330  88.3329050
 101.7825710  88.6079460  87.4383900 103.4799890  88.3723560  87.2225930
 104.0940300  88.6902850  86.5607010 104.0249450  87.8872150  87.8421790
 109.8975070 104.2715190  84.6287770 109.4033350 104.6684060  83.9114900
 109.2888360 103.6464400  85.0225050  94.0021150  87.0517820  87.3364990
  94.5504140  86.8705870  86.5731100  94.0676460  86.2611930  87.8721300
  94.7752910 103.6423470  85.3465190  94.1813230 103.5108170  86.0855230
  94.7676750 102.8061610  84.8807290 104.2207930  86.9355700  83.5495220
 103.3467770  87.2690810  83.3468150 104.1118680  86.4628880  84.3747090
 105.1279910  89.1426570  84.9336940 104.7993270  88.3278330  84.5538670
 106.0762210  89.0996380  84.8102630 107.5814520 104.9138610  81.9074510
 107.1217490 105.6654420  81.5332530 106.9526980 104.1945080  81.8489310
  94.4065140 101.0081850  84.2973230  93.6799200 100.3887140  84.2299180
  94.4674290 101.4022460  83.4271310  98.0110240 103.2226850  81.0822640
  98.5275260 102.6114210  80.5570900  98.6607620 103.7255630  81.5733650
 100.7505740 104.1135340  81.9091620 101.0383550 103.8589640  81.0324630
 101.2628960 103.5612700  82.4997190 101.9682750  87.8525540  82.4888130
 101.1854540  88.3271040  82.7684890 101.6745680  86.9480370  82.3801310
 106.5203820  88.5548640  80.5337220 106.9611910  88.4993740  79.6858820
 106.2511410  89.4706650  80.6047400 108.3842390  88.1863880  78.5446040
 108.3230790  87.2425100  78.3977060 109.1634420  88.2943970  79.0899500
  92.6895140 104.3256240  77.5069990  92.5217180 103.6926920  78.2051880
  91.8229650 104.5315640  77.1564180  93.3123160  88.1573020  75.0101850
  94.0702520  88.2701900  74.4365880  92.8500330  88.9942220  74.9645280
  99.8536970  90.2712290  78.0004160  99.0411480  89.8969180  77.6600040
 100.3578610  89.5157370  78.3025350 104.3561950  86.9354740  79.2387230
 104.9591320  87.5074950  79.7135750 103.6154940  87.4994180  79.0161130
 107.4996550  87.3376300  74.5127510 107.6947180  88.2359750  74.7794940
 106.7126420  87.1063380  75.0060460  94.2957840 103.0189470  74.9520130
  93.7705460 103.3997500  74.2482090  94.2202420 103.6440240  75.6729840
  95.6848310  88.6837070  73.5503820  96.2141070  87.8966870  73.4211770
  96.3176630  89.3628260  73.7839350  97.8786150  88.4212210  76.6049210
  97.2488890  87.7199520  76.7719340  97.3391290  89.1816340  76.3882370
 100.8178100 105.0351440  89.2759820 101.7445410 104.7995710  89.3195780
 100.8028530 105.8623440  88.7945850 109.0523160 104.5777010  76.2734070
 109.2275350 103.8914750  75.6294990 108.3544730 105.1024060  75.8810740
  98.0041710  87.6996190  89.0401700  97.7225980  88.2029790  88.2762520
  98.3861410  86.9017940  88.6743830  96.8950810 104.9671850  73.8269380
  97.6269630 104.6831130  73.2793270  97.1544480 104.7285130  74.7168760
  96.0565600 101.0836580  73.8315710  95.4274480 101.5521680  74.3801540
  96.1713430 100.2385800  74.2661900 104.6057170  87.1149770  89.6182170
 104.4922620  87.4344380  90.5133690 105.4226910  87.5162280  89.3219450
 107.3855660 104.2621300  89.1000860 108.1780980 103.7670530  88.8926820
 107.6788810 104.9411440  89.7076470 103.5115320  95.1342240  59.9816910
 103.4309370  94.2196850  59.7108620 103.0979740  95.6309310  59.2756620
 101.6433360  96.9121260  61.8626180 100.8675460  96.4321700  62.1524750
 102.2946290  96.2326910  61.6882340  95.6599190  97.2241070  62.7401940
  94.8284070  96.9689780  63.1398450  96.2680170  97.2951840  63.4759860
 105.6640790 101.3181450  60.6425310 105.2022320 100.5468690  60.9712480
 106.4766340 101.3447520  61.1477760  95.6400450 101.2581160  62.9359960
  95.9428490 100.3678900  62.7570180  96.3844040 101.8151380  62.7082210
  94.0691140  92.1842960  56.5244330  93.1807840  92.5258930  56.4224210
  94.3532330  91.9843280  55.6325160  92.0324150  94.7848610  62.4084030
  92.6040260  94.0170810  62.4087670  92.0325690  95.0837370  61.4990640
 101.8904100 103.6039460  60.2629300 101.2715540 104.0596960  59.6923740
 102.7455880 103.7590920  59.8619000 101.0842350  99.5878450  61.8696340
 101.0150630  98.6468390  61.7085470 101.8462210  99.6779860  62.4418910
  93.2749020  90.1932970  64.1952960  93.0951860  89.2958720  64.4755720
  92.8729100  90.7404840  64.8699910 102.1147520  92.3948830  62.0965270
 102.4912340  91.5220710  61.9838940 102.0167030  92.7307530  61.2055710
  96.2452530  90.7674460  57.5582710  96.3519280  91.6678190  57.8651470
  95.3344890  90.7192430  57.2677360 105.8971640  89.8899270  59.0293610
 106.7181260  89.3995840  59.0719090 105.9305720  90.4796930  59.7825450
  93.8935690  92.6893470  62.8035300  94.5745800  92.9531840  63.4222700
  93.5783740  91.8494340  63.1373310  98.0860260  93.7360830  61.8907890
  98.5938480  94.2341800  62.5312910  98.6173500  92.9596030  61.7147250
 110.1871190  91.9066020  65.5937240 109.4823360  92.2947730  65.0752350
 110.4529110  92.6016310  66.1958170  96.3696360  88.3759390  66.1571310
  96.3714800  88.8931780  65.3517210  95.5400670  87.8989570  66.1341240
 102.7567450  98.4878700  57.6561210 102.1384720  98.9528150  57.0923930
 103.2690700  99.1806180  58.0730720  97.6199210  98.0154570  64.3344810
  97.2868590  98.6423490  64.9765880  97.7965890  98.5416450  63.5546480
 106.1333120  91.8299650  61.8021150 105.4288690  92.1184540  62.3824260
 106.4945280  92.6399760  61.4420710  96.0511690  90.0869350  64.1641760
  96.3928500  90.9311400  63.8695630  95.1127500  90.2353090  64.2807100
  96.8318310  99.9835370  66.1493990  97.4492310 100.6586450  65.8678440
  95.9711430 100.3923350  66.0581490  92.1250650  99.1735230  55.0300840
  91.7478630  99.6622330  54.2985740  92.3823720  99.8460510  55.6607370
 107.7495900 101.4474780  64.0648630 107.0659420 102.1173890  64.0565300
 108.2890190 101.6455430  63.2993490 109.2020040  91.2754440  62.1930360
 108.2544950  91.3093420  62.3245790 109.5270030  92.0893390  62.5779720
  99.7339580  87.5751620  60.4886350 100.0414560  87.0198510  59.7721850
  98.8040280  87.7096080  60.3059340 105.2854640 103.2918910  62.7793810
 105.2981800 102.8881200  61.9116070 104.7329860 104.0666200  62.6755240
 106.5800060 100.0135130  57.8683980 106.4696390  99.0709460  57.9933400
 106.5768310 100.3750770  58.7546740 104.6840080  98.1948750  64.1076420
 105.1008870  97.9808860  63.2729880 105.4079900  98.4521540  64.6785040
 102.1220340  95.6400450  57.2246470 101.1949620  95.5737830  57.4534940
 102.2745160  96.5780580  57.1101710 102.1089420  91.9117450  54.2213630
 101.1693090  92.0731410  54.3066090 102.4272680  92.6303130  53.6749620
 108.6302180  96.5935970  64.1992660 107.8020810  96.6629060  63.7242790
 109.2252660  97.1790280  63.7308490 106.1517630  97.2020750  57.7281720
 105.5330050  96.8640300  57.0808020 106.1342080  96.5580510  58.4360910
 105.5944190  93.3805290  65.1447530 105.1815370  94.2059000  65.3987520
 104.8620140  92.7950330  64.9523890  97.7276980  96.1665190  60.0066200
  97.3233980  95.4542440  59.5112100  97.8140100  95.8218430  60.8954240
  98.1958680  99.8532750  62.1705410  97.8986970  99.2478220  61.4913190
  99.1458500  99.8910060  62.0594770  96.4405600  92.9408400  63.7865240
  96.9920190  93.0503740  63.0118490  96.9549110  93.3146000  64.5020470
 106.2844290 103.4264620  65.8328510 105.8074850 104.2336810  65.6401120
 105.6006080 102.7742950  65.9854720  97.2877110  99.5914440  68.8213210
  96.3905640  99.8154410  69.0686610  97.3129980  99.7149380  67.8724610
 104.3282330  96.4407560  54.7354470 104.7675610  95.6029990  54.5892290
 105.0410750  97.0736960  54.8218610  96.1148330  96.4627760  67.3970580
  95.9756100  97.3350560  67.7657980  95.2329690  96.1200570  67.2518520
 102.4377710 101.3803630  58.7035710 102.8773620 102.1227960  58.2891100
 102.3764600 101.6230200  59.6274670  97.9128680 102.4049460  69.6055730
  97.8844110 102.8092410  68.7384160  97.7493650 101.4759820  69.4427330
 107.9099470  87.6950370  53.0495510 107.5972130  87.7877200  53.9494580
 108.6711940  88.2731400  52.9992940  94.4281610  95.0610170  57.5072850
  94.3079210  95.7872260  56.8954120  94.1182500  94.2913080  57.0300760
 109.8643500 103.1876560  70.9019900 110.3403220 103.6659450  71.5808980
 110.4850660 103.1194050  70.1765400  92.0666980  98.2325310  63.3141490
  92.1447400  98.3674080  62.3697210  92.6808660  97.5241200  63.5069610
  93.3114610  99.9325500  59.7247670  92.9042690 100.0740090  58.8701270
  94.2027620  99.6485660  59.5218880 109.2676750 100.3789410  68.0619910
 109.3939810 100.1401290  67.1437090 109.3098130  99.5473950  68.5341990
 103.1293490 104.0817410  66.6314720 103.6438160 103.9925420  67.4337150
 102.2862570 104.4277110  66.9242630 105.1047890 104.3672750  56.0598720
 104.9449030 104.0775690  56.9580550 104.9394600 103.5912880  55.5243950
  97.5836270 104.1471280  57.8370340  97.4078750 103.2306820  57.6238140
  96.7292010 104.5058570  58.0768140 104.8074020 101.8760310  54.6196720
 104.1139180 101.8737600  53.9599000 105.5496880 101.4519630  54.1890890
 104.3723950 103.5023020  58.6945210 104.8280900 102.7212400  59.0083830
 104.7116470 104.2129840  59.2386390 109.1200760  92.4321870  69.0269650
 108.5045030  92.9401540  68.4985110 108.7997180  91.5320200  68.9695590
  92.1226500  99.2739480  65.8535950  92.2857540  98.8044840  65.0355320
  92.5878950  98.7663040  66.5184790  96.8945270  88.4045240  60.8896520
  96.4513420  89.1854780  60.5581040  97.4530260  88.7275130  61.5967460
 101.1815080  91.2713760  66.4931840 100.7194450  91.4796780  67.3051780
 100.7793190  90.4573110  66.1902510 106.1819590  92.4922710  67.6228500
 105.3313180  92.1928460  67.9437570 106.0221380  92.7364720  66.7112320
 103.2769300  93.9924460  69.7227290 103.6022710  93.1588210  69.3829520
 104.0649630  94.5152980  69.8705620 100.0104090  88.0255940  55.7702350
  99.3858270  88.0215810  56.4955660  99.9234210  87.1586900  55.3738320
  98.9321170  88.9492570  62.7486120  99.2293500  89.8555400  62.6678140
  99.4806730  88.4611350  62.1345690  96.6859490  93.5278810  58.6177770
  96.4600410  93.3115980  59.5224390  95.9052020  93.9607270  58.2723740
 103.9157250  93.5342180  57.2168420 103.3166140  94.2577980  57.0332040
 104.4636860  93.4718960  56.4344870  99.1258700  94.4264390  69.2838040
  99.0302300  93.4859120  69.1338440  99.9690680  94.6479460  68.8886110
 102.5222120  92.1705720  59.2471700 102.9151690  92.4877920  58.4340390
 102.8838970  91.2917600  59.3616220  94.2569240  90.8378060  67.4371820
  93.8632630  91.6853270  67.6444600  93.5687640  90.2004430  67.6280460
 100.8314290  90.9213030  70.5068560 100.1412610  90.7285230  71.1414650
 101.5746590  91.2047670  71.0392860  91.5586290  88.7606520  61.4701900
  91.2699340  89.3309380  62.1826880  92.3032050  88.2810970  61.8333130
  91.7456520  92.7026640  52.6804620  91.6631190  93.6457400  52.8219610
  91.3939580  92.5601550  51.8016970 103.1077260  94.7611470  63.3422480
 102.3758380  95.2698280  63.6912580 102.7101600  93.9441450  63.0411260
  99.5454650  91.4365670  61.7474970  99.5490710  90.9955620  60.8979510
 100.4405770  91.7583000  61.8546790  95.3957030  91.3192160  60.7069180
  95.0557080  91.7967390  61.4636230  94.6334350  90.8657280  60.3470280
  99.6074800  92.4377750  54.7381730  99.7287620  92.3964230  55.6867550
  99.2223310  93.3001900  54.5828460 103.5703170  90.2145150  62.7545420
 103.5875910  90.6653800  63.5987270 103.3218750  89.3150790  62.9678860
  98.6196300  94.7478890  54.1365030  98.0513200  94.2997140  53.5100940
  99.3285300  95.1071670  53.6030180 106.9973920  87.6277330  68.5931800
 107.3219690  86.8966990  69.1189780 107.0330430  87.3090970  67.6912790
  93.6965480  98.6490910  68.0131760  93.3120270  98.0084580  68.6114720
  94.0077670  99.3527030  68.5826490  99.8462620  95.4967450  63.4940380
 100.2132750  95.0226020  64.2401720  99.6567680  96.3709020  63.8348720
  92.7103110  90.2411140  59.6233850  92.4250030  89.8766810  60.4612470
  92.6481970  89.5091600  59.0096990  97.6361990  94.5376090  65.8124590
  97.3319060  95.4168070  66.0374950  98.5908450  94.5975880  65.8482030
  96.1643780  98.7437080  56.4091440  95.3906040  98.2034700  56.2490160
  96.8938410  98.2243690  56.0709200 106.9231760  97.7402440  62.2017830
 107.6430880  98.2357730  61.8113940 106.7213580  97.0620330  61.5571700
 102.3841700  89.1340400  56.3447220 101.5706310  88.6353570  56.2692530
 102.1903650  89.9738650  55.9283570 102.3050560  97.8111500  68.0886830
 102.2387870  96.8907170  67.8344420 101.6755700  97.9086940  68.8031470
 105.0990090  93.5060050  54.6409380 105.9869710  93.8177280  54.4660720
 105.0695180  92.6332300  54.2489960  96.2081180  98.4117460  60.0470250
  96.7259850  97.6085720  59.9927140  95.7565200  98.3496600  60.8887080
 101.0950680  99.6783740  55.3197550 101.4366380 100.4225970  54.8240870
 100.2663390  99.9914860  55.6822380  93.6925720  95.3778830  66.9595950
  93.3340660  96.0432680  67.5469290  93.3980280  94.5462380  67.3308570
  96.8938840  95.8363070  69.8435500  96.5938980  95.9820250  68.9463320
  97.6650080  95.2768360  69.7508890 102.2367290 100.6332070  67.8390630
 102.2511830  99.7013030  67.6209540 101.5292390 100.7191830  68.4780400
 107.3704360  94.8171890  54.1089240 107.2868080  95.2486110  53.2585680
 108.0898550  95.2770240  54.5416060 108.4478500  97.2739410  67.1859210
 107.7226690  97.8668190  66.9888600 108.9753960  97.2662950  66.3872580
 108.3991610 101.6714150  56.8371370 107.7567770 101.0169770  57.1115090
 108.0122270 102.0769240  56.0612040 103.9778090  98.9999580  60.6843060
 104.3301910  98.4027710  60.0244430 103.0940420  98.6743810  60.8551310
 100.0641370  99.7597270  58.0913470 100.7512500 100.3066480  58.4721060
  99.2773790 100.3038000  58.1263080  92.2033770  95.3770090  53.5830550
  93.0728620  95.6594890  53.8666470  91.7124090  96.1905960  53.4679360
  99.3668580  96.7643300  57.7038830  99.8231360  97.5748550  57.9299020
  99.0156790  96.4466440  58.5357320 101.6701190 102.2749640  64.9331130
 102.3143410 102.4809020  65.6104550 102.0330630 101.5138040  64.4801980
  95.2680360  87.1080950  58.1761350  95.1394990  87.0998850  59.1246270
  94.4442380  87.4464040  57.8252360 102.9433270 100.2781990  63.6508580
 103.5855500  99.5775150  63.7640750 103.4682620 101.0580430  63.4705470
 106.7888990 100.5630610  53.3747720 106.5626570  99.8461050  53.9672360
 106.3985190 100.3143050  52.5369470 104.7170890 101.0776890  66.8544640
 105.0527130 101.6643580  67.5322560 103.7971230 100.9469600  67.0842430
  92.5705020 104.5897470  54.1492180  92.9302660 105.1886810  53.4949450
  92.4297360 105.1357360  54.9227210  92.2674290  88.8672070  67.6368050
  91.5532810  89.0668990  68.2420660  92.6869330  88.0911640  68.0082850
 106.3705240  98.4802550  55.0361880 106.0826940  98.9415240  55.8239760
 107.1657410  98.0200320  55.3046100  92.5546880 102.8552330  68.6234580
  92.6638000 101.9147070  68.4829970  91.9027440 103.1207080  67.9748310
 100.5459470 101.1268220  70.0232700 100.2256340 100.4077460  70.5678390
  99.8717830 101.8023290  70.0968760  98.5873640 101.9728670  54.9665850
  98.5783740 102.7058360  54.3510360  97.6672000 101.7260250  55.0592810
  94.1880280  97.1943560  55.7112610  93.5808230  97.9342460  55.7207910
  94.6629630  97.2842920  54.8850810 103.7613070  91.3594380  65.3869500
 104.1293890  90.5389590  65.7149070 102.9011270  91.4196270  65.8025150
 107.1275100  90.3151320  56.1957060 106.4988260  90.4196990  55.4815290
 106.6327020  90.5348100  56.9850940 101.5733240 102.0356910  53.6291040
 101.6745220 101.8320900  52.6993020 100.6734980 101.7815190  53.8338820
  99.0959130  92.5937270  57.6114940  98.3875280  93.0623610  58.0528550
  99.3803610  91.9359280  58.2460130 100.7215060  94.0133970  65.6107470
 101.2200310  94.4879790  66.2759320 100.8638010  93.0897490  65.8177500
 103.1274560  89.3187930  59.0510730 103.0042340  89.3374060  58.1020240
 104.0759120  89.3666870  59.1709130 100.2151350 104.5543230  58.3238710
 100.4692850 104.5164620  57.4018080  99.2663830 104.4276560  58.3166960
  97.2994150  90.9022350  54.9865650  98.1484680  91.3392500  54.9205840
  96.9325420  91.2142610  55.8137710 107.9281920  90.2301930  66.4535860
 107.4255520  90.9707330  66.7929670 108.7438580  90.6185930  66.1372650
 106.2203930  95.4735110  59.8997220 105.2794070  95.4885340  60.0744910
 106.5348000  94.6871070  60.3457520  96.1985570  97.1554710  53.4601180
  96.9648840  97.0436070  54.0226610  96.2760260  96.4592680  52.8077950
  94.8932330  94.5879780  54.1434070  94.9735920  93.6407290  54.2551470
  95.7852080  94.9186660  54.2494730 108.2229510 102.6443960  61.5751480
 108.3476930 103.4675130  62.0475290 109.0895070 102.4334690  61.2275630
  95.6947040 104.7375170  61.2468610  96.4309520 104.1890630  61.5177180
  96.0787960 105.6031180  61.1074600  92.5792520 100.8048740  57.1210120
  91.6532300 101.0469880  57.1115530  93.0448950 101.6323000  56.9994870
  94.7005320 103.9221240  70.4354190  95.5018050 104.2433290  70.8489590
  94.1857140 103.5616820  71.1574100  98.8049350 103.9105480  53.0694180
  99.5977960 104.1994310  52.6175970  98.2853700 103.4797650  52.3906660
 103.5369950 100.0301110  70.3829600 102.9308110 100.0532710  69.6425350
 103.2324060  99.2984150  70.9196850 104.9670320 103.7581400  68.9939010
 105.9192070 103.6739420  68.9439250 104.8198540 104.4223110  69.6672800
 107.8579520 103.1375610  54.4930920 107.5721030 102.7240750  53.6785100
 107.6599070 104.0663320  54.3731440  92.4203130  96.4094700  69.3790240
  92.9242150  95.8301980  69.9506470  91.6810550  96.6934930  69.9166610
  99.3226750  99.1308890  52.9336530  99.2177390  98.5161240  53.6597910
  99.1550970  98.6074780  52.1499540  99.4741070  97.8165690  68.9125760
  98.7086740  98.3850690  68.8280430  99.6557030  97.5241900  68.0193990
 102.5629480  98.1928920  53.5378520 102.0139580  98.6398220  54.1821260
 103.1848740  97.6878170  54.0616190 106.6164420  99.5471020  69.4700780
 107.3573890  99.8846780  68.9668240 105.8537100  99.7163080  68.9170550
  94.4526210  94.5524290  70.2740310  94.4931550  94.2538160  71.1825540
  95.3071710  94.9531900  70.1147830  98.2304600  97.1519840  55.4343820
  98.6521020  96.9859710  56.2775210  98.3555440  96.3420070  54.9398960
  96.3932020  93.1316390  68.2414800  95.8628480  92.6407340  67.6138140
  97.0620090  93.5600590  67.7072730 100.7432240  96.1757450  52.6820920
 101.2637900  95.4606470  52.3162070 101.3900640  96.8143320  52.9821430
 105.2910080  97.5985850  68.0055990 105.7051100  97.7530930  68.8546410
 104.3561080  97.7241070  68.1681770 105.7632250  94.9382010  70.0095140
 106.3453020  94.1834330  69.9215620 105.9394020  95.4689450  69.2326620
  96.8804320  90.0978760  68.3212090  96.7861190  89.4799510  67.5962960
  96.3001710  90.8245050  68.0942000  99.6465760  88.6552000  65.3539480
  99.1983060  88.6776260  64.5085030  99.0130960  88.2571020  65.9509780
 100.0525310  97.5506330  65.9751920 100.4713420  98.3939060  65.8028160
  99.1333940  97.6878370  65.7458700 102.3889210  95.2822510  67.3589760
 102.5085420  94.6863650  68.0984600 103.2483210  95.3192200  66.9391060
 104.7277110  95.8359700  65.9352270 104.2012330  96.3602320  65.3317410
 105.0708450  96.4687090  66.5662000  97.1263500  93.2253070  52.3801980
  96.9252560  92.3620430  52.7415320  96.9555550  93.1386430  51.4423580
  97.9032730 103.8559340  67.0909650  97.3653820 104.5805400  66.7718350
  98.1566690 103.3789680  66.3006990  99.1557980  91.8243860  68.6165580
  99.7457670  91.5159710  69.3043400  98.3378220  91.3523610  68.7725480
 103.9751410  91.4409670  68.8498600 103.2866930  90.7791210  68.7848590
 104.6957430  90.9947940  69.2947060 104.6051810  88.0361300  54.9088860
 104.8854100  87.1929200  55.2648280 103.8317540  88.2684410  55.4227610
  95.9246300  90.3253690  52.3679860  96.2272200  90.3321120  51.4599010
  96.6640890  89.9751550  52.8647520 100.7594940 105.0910550  67.3496300
 100.6853640 105.9945690  67.6568670  99.8573780 104.7722450  67.3218370
  99.1431230  89.2688310  53.3536060  98.7953230  88.5912300  52.7738510
  99.3444000  88.8077820  54.1679450 101.3080270 104.2569060  54.9722660
 102.2031060 104.5954030  54.9941420 101.3397900 103.5348470  54.3446940
  94.9476430  99.6296110  53.2009660  95.3851300 100.1725780  53.8567240
  95.4324160  98.8043060  53.2106000  92.1622230 102.4185140  60.6529920
  92.4925240 101.5506200  60.4208560  92.5913230 102.6243660  61.4834880
  96.7584150 100.7494150  58.3131890  96.4579690 100.6259120  59.2135800
  96.6521640  99.8902740  57.9047620  92.6512440 103.2855730  63.3911550
  92.2143430 103.4656530  64.2235700  93.2190120 104.0430350  63.2493270
 108.2874620 102.7872730  67.6788860 107.6876610 102.8465290  66.9352780
 108.4168520 101.8477710  67.8085710 109.5276070 100.5290550  53.0158570
 108.6969030 100.5967200  53.4865800 109.7047900 101.4194670  52.7125430
 108.9832530  97.2738030  55.5192770 109.7451440  97.8434680  55.6252460
 108.9986900  96.7065230  56.2901080  92.4836870  95.7975960  59.7500430
  91.8285710  95.5287600  59.1060130  93.3214820  95.6880440  59.3002410
 109.9892500  98.1288130  60.3634700 110.3601330  97.3455450  59.9570670
 110.6294430  98.8177230  60.1852000 106.9726260  99.5124710  65.7765020
 106.1586100  99.9421870  66.0390810 107.3800460 100.1243120  65.1634070
 109.0351700  97.5672400  52.6765290 109.3100540  98.4751280  52.5484510
 108.8462440  97.5034930  53.6127280 105.4327310  90.5917250  53.9718920
 105.8512190  90.4048230  53.1315580 105.1263370  89.7396300  54.2821850
 108.9317040  95.5041390  57.6694720 108.5560640  94.7369320  57.2376010
 108.2020160  95.8864090  58.1569650  93.5212800  96.1828530  64.2903770
  93.8885840  96.0955930  65.1699790  92.9523620  95.4195080  64.1910630
 108.3216660  94.6512910  67.3034240 108.0902750  94.4225660  66.4032190
 108.5821210  95.5712460  67.2579130  93.0728800  93.0937620  68.1962190
  92.1784850  93.0604380  68.5355900  93.6126350  93.2924410  68.9613440
 106.7604730  89.8769340  70.0813940 107.6374910  89.8852740  70.4647940
 106.7725570  89.1400180  69.4706290  91.6974950  93.0074890  55.6925760
  90.7939030  93.2705090  55.5177420  92.1815570  93.2786060  54.9125720
 108.2068000  93.7298880  60.9701960 108.7305480  93.2361530  60.3392130
 108.7927420  93.8649240  61.7149530 108.3857720  93.8138750  64.4921510
 107.4360430  93.7802290  64.6066500 108.5670730  94.7238860  64.2571280
  94.2402160  92.0640430  53.6020140  94.9493860  91.6423650  53.1167420
  93.5242100  92.1315660  52.9703490  93.8876320  88.1179760  52.6422790
  94.6104450  88.6588700  52.9604010  94.1600840  87.8443180  51.7664330
 107.6967970  92.9872230  56.9094370 108.1927090  92.7543100  57.6943250
 107.4984040  92.1484070  56.4932010  93.5768510  87.3685950  62.5445410
  94.2244700  86.8183330  62.1040570  93.9970350  87.6229100  63.3661220
 109.1255130  91.6233180  59.4432050 109.0154410  91.4689220  60.3814320
 109.8862720  91.0954120  59.2007460 107.4720850  87.5627310  65.9015050
 108.1093070  88.1761450  66.2674240 107.6195740  87.5987970  64.9564280
 110.0145400  89.4541100  52.6838190 110.9394710  89.3222280  52.4756480
 109.9921190  89.5333920  53.6374640 110.0883890  90.2251760  55.3094900
 109.2935390  90.1596880  55.8387810 110.2927170  91.1602400  55.2980250
 107.0302310 104.2643310  59.3033290 107.6261380 103.9427880  58.6267710
 107.2880460 103.7915130  60.0946560  93.3300510  87.5241620  65.2870730
  92.9815330  87.9805440  66.0528910  92.9988210  86.6298750  65.3693160
  94.9364880 100.6961220  69.4523920  94.8934510 100.3254130  70.3338380
  95.0675890 101.6338790  69.5925740  98.6370910 102.2520810  65.0533640
  98.3962270 102.5195370  64.1664160  99.5773550 102.4226540  65.1084500
 100.8425330  88.7153500  68.8090150 100.7814220  89.3075330  69.5585560
 101.7825710  88.6079460  68.6640410 103.4799890  88.3723560  68.4482440
 104.0940300  88.6902850  67.7863520 104.0249450  87.8872150  69.0678300
 109.8975070 104.2715190  65.8544280 109.4033350 104.6684060  65.1371410
 109.2888360 103.6464400  66.2481560  94.0021150  87.0517820  68.5621500
  94.5504140  86.8705870  67.7987610  94.0676460  86.2611930  69.0977810
  94.7752910 103.6423470  66.5721700  94.1813230 103.5108170  67.3111740
  94.7676750 102.8061610  66.1063800 104.2207930  86.9355700  64.7751730
 103.3467770  87.2690810  64.5724660 104.1118680  86.4628880  65.6003600
 105.1279910  89.1426570  66.1593450 104.7993270  88.3278330  65.7795180
 106.0762210  89.0996380  66.0359140 107.5814520 104.9138610  63.1331020
 107.1217490 105.6654420  62.7589040 106.9526980 104.1945080  63.0745820
  94.4065140 101.0081850  65.5229740  93.6799200 100.3887140  65.4555690
  94.4674290 101.4022460  64.6527820  98.0110240 103.2226850  62.3079150
  98.5275260 102.6114210  61.7827410  98.6607620 103.7255630  62.7990160
 100.7505740 104.1135340  63.1348130 101.0383550 103.8589640  62.2581140
 101.2628960 103.5612700  63.7253700 101.9682750  87.8525540  63.7144640
 101.1854540  88.3271040  63.9941400 101.6745680  86.9480370  63.6057820
 106.5203820  88.5548640  61.7593730 106.9611910  88.4993740  60.9115330
 106.2511410  89.4706650  61.8303910 108.3842390  88.1863880  59.7702550
 108.3230790  87.2425100  59.6233570 109.1634420  88.2943970  60.3156010
  92.6895140 104.3256240  58.7326500  92.5217180 103.6926920  59.4308390
  91.8229650 104.5315640  58.3820690  93.3123160  88.1573020  56.2358360
  94.0702520  88.2701900  55.6622390  92.8500330  88.9942220  56.1901790
  99.8536970  90.2712290  59.2260670  99.0411480  89.8969180  58.8856550
 100.3578610  89.5157370  59.5281860 104.3561950  86.9354740  60.4643740
 104.9591320  87.5074950  60.9392260 103.6154940  87.4994180  60.2417640
 107.4996550  87.3376300  55.7384020 107.6947180  88.2359750  56.0051450
 106.7126420  87.1063380  56.2316970  94.2957840 103.0189470  56.1776640
  93.7705460 103.3997500  55.4738600  94.2202420 103.6440240  56.8986350
  95.6848310  88.6837070  54.7760330  96.2141070  87.8966870  54.6468280
  96.3176630  89.3628260  55.0095860  97.8786150  88.4212210  57.8305720
  97.2488890  87.7199520  57.9975850  97.3391290  89.1816340  57.6138880
 100.8178100 105.0351440  70.5016330 101.7445410 104.7995710  70.5452290
 100.8028530 105.8623440  70.0202360 109.0523160 104.5777010  57.4990580
 109.2275350 103.8914750  56.8551500 108.3544730 105.1024060  57.1067250
  98.0041710  87.6996190  70.2658210  97.7225980  88.2029790  69.5019030
  98.3861410  86.9017940  69.9000340  96.8950810 104.9671850  55.0525890
  97.6269630 104.6831130  54.5049780  97.1544480 104.7285130  55.9425270
  96.0565600 101.0836580  55.0572220  95.4274480 101.5521680  55.6058050
  96.1713430 100.2385800  55.4918410 104.6057170  87.1149770  70.8438680
 104.4922620  87.4344380  71.7390200 105.4226910  87.5162280  70.5475960
 107.3855660 104.2621300  70.3257370 108.1780980 103.7670530  70.1183330
 107.6788810 104.9411440  70.9332980 103.5115320  95.1342240  41.2073420
 103.4309370  94.2196850  40.9365130 103.0979740  95.6309310  40.5013130
 101.6433360  96.9121260  43.0882690 100.8675460  96.4321700  43.3781260
 102.2946290  96.2326910  42.9138850  95.6599190  97.2241070  43.9658450
  94.8284070  96.9689780  44.3654960  96.2680170  97.2951840  44.7016370
 105.6640790 101.3181450  41.8681820 105.2022320 100.5468690  42.1968990
 106.4766340 101.3447520  42.3734270  95.6400450 101.2581160  44.1616470
  95.9428490 100.3678900  43.9826690  96.3844040 101.8151380  43.9338720
  94.0691140  92.1842960  37.7500840  93.1807840  92.5258930  37.6480720
  94.3532330  91.9843280  36.8581670  92.0324150  94.7848610  43.6340540
  92.6040260  94.0170810  43.6344180  92.0325690  95.0837370  42.7247150
 101.8904100 103.6039460  41.4885810 101.2715540 104.0596960  40.9180250
 102.7455880 103.7590920  41.0875510 101.0842350  99.5878450  43.0952850
 101.0150630  98.6468390  42.9341980 101.8462210  99.6779860  43.6675420
  93.2749020  90.1932970  45.4209470  93.0951860  89.2958720  45.7012230
  92.8729100  90.7404840  46.0956420 102.1147520  92.3948830  43.3221780
 102.4912340  91.5220710  43.2095450 102.0167030  92.7307530  42.4312220
  96.2452530  90.7674460  38.7839220  96.3519280  91.6678190  39.0907980
  95.3344890  90.7192430  38.4933870 105.8971640  89.8899270  40.2550120
 106.7181260  89.3995840  40.2975600 105.9305720  90.4796930  41.0081960
  93.8935690  92.6893470  44.0291810  94.5745800  92.9531840  44.6479210
  93.5783740  91.8494340  44.3629820  98.0860260  93.7360830  43.1164400
  98.5938480  94.2341800  43.7569420  98.6173500  92.9596030  42.9403760
  96.3696360  88.3759390  47.3827820  96.3714800  88.8931780  46.5773720
  95.5400670  87.8989570  47.3597750 102.7567450  98.4878700  38.8817720
 102.1384720  98.9528150  38.3180440 103.2690700  99.1806180  39.2987230
  97.6199210  98.0154570  45.5601320  97.2868590  98.6423490  46.2022390
  97.7965890  98.5416450  44.7802990 106.1333120  91.8299650  43.0277660
 105.4288690  92.1184540  43.6080770 106.4945280  92.6399760  42.6677220
  96.0511690  90.0869350  45.3898270  96.3928500  90.9311400  45.0952140
  95.1127500  90.2353090  45.5063610  96.8318310  99.9835370  47.3750500
  97.4492310 100.6586450  47.0934950  95.9711430 100.3923350  47.2838000
  92.1250650  99.1735230  36.2557350  91.7478630  99.6622330  35.5242250
  92.3823720  99.8460510  36.8863880 107.7495900 101.4474780  45.2905140
 107.0659420 102.1173890  45.2821810 108.2890190 101.6455430  44.5250000
 109.2020040  91.2754440  43.4186870 108.2544950  91.3093420  43.5502300
 109.5270030  92.0893390  43.8036230  99.7339580  87.5751620  41.7142860
 100.0414560  87.0198510  40.9978360  98.8040280  87.7096080  41.5315850
 105.2854640 103.2918910  44.0050320 105.2981800 102.8881200  43.1372580
 104.7329860 104.0666200  43.9011750 106.5800060 100.0135130  39.0940490
 106.4696390  99.0709460  39.2189910 106.5768310 100.3750770  39.9803250
 104.6840080  98.1948750  45.3332930 105.1008870  97.9808860  44.4986390
 105.4079900  98.4521540  45.9041550 102.1220340  95.6400450  38.4502980
 101.1949620  95.5737830  38.6791450 102.2745160  96.5780580  38.3358220
 102.1089420  91.9117450  35.4470140 101.1693090  92.0731410  35.5322600
 102.4272680  92.6303130  34.9006130 106.1517630  97.2020750  38.9538230
 105.5330050  96.8640300  38.3064530 106.1342080  96.5580510  39.6617420
  97.7276980  96.1665190  41.2322710  97.3233980  95.4542440  40.7368610
  97.8140100  95.8218430  42.1210750  98.1958680  99.8532750  43.3961920
  97.8986970  99.2478220  42.7169700  99.1458500  99.8910060  43.2851280
  96.4405600  92.9408400  45.0121750  96.9920190  93.0503740  44.2375000
  96.9549110  93.3146000  45.7276980 106.2844290 103.4264620  47.0585020
 105.8074850 104.2336810  46.8657630 105.6006080 102.7742950  47.2111230
  97.2877110  99.5914440  50.0469720  96.3905640  99.8154410  50.2943120
  97.3129980  99.7149380  49.0981120 104.3282330  96.4407560  35.9610980
 104.7675610  95.6029990  35.8148800 105.0410750  97.0736960  36.0475120
  96.1148330  96.4627760  48.6227090  95.9756100  97.3350560  48.9914490
  95.2329690  96.1200570  48.4775030 102.4377710 101.3803630  39.9292220
 102.8773620 102.1227960  39.5147610 102.3764600 101.6230200  40.8531180
  97.9128680 102.4049460  50.8312240  97.8844110 102.8092410  49.9640670
  97.7493650 101.4759820  50.6683840 107.9099470  87.6950370  34.2752020
 107.5972130  87.7877200  35.1751090 108.6711940  88.2731400  34.2249450
  94.4281610  95.0610170  38.7329360  94.3079210  95.7872260  38.1210630
  94.1182500  94.2913080  38.2557270 109.8643500 103.1876560  52.1276410
 110.3403220 103.6659450  52.8065490 110.4850660 103.1194050  51.4021910
  92.0666980  98.2325310  44.5398000  92.1447400  98.3674080  43.5953720
  92.6808660  97.5241200  44.7326120  93.3114610  99.9325500  40.9504180
  92.9042690 100.0740090  40.0957780  94.2027620  99.6485660  40.7475390
 109.2676750 100.3789410  49.2876420 109.3939810 100.1401290  48.3693600
 109.3098130  99.5473950  49.7598500 103.1293490 104.0817410  47.8571230
 103.6438160 103.9925420  48.6593660 102.2862570 104.4277110  48.1499140
 105.1047890 104.3672750  37.2855230 104.9449030 104.0775690  38.1837060
 104.9394600 103.5912880  36.7500460  97.5836270 104.1471280  39.0626850
  97.4078750 103.2306820  38.8494650  96.7292010 104.5058570  39.3024650
 104.8074020 101.8760310  35.8453230 104.1139180 101.8737600  35.1855510
 105.5496880 101.4519630  35.4147400 104.3723950 103.5023020  39.9201720
 104.8280900 102.7212400  40.2340340 104.7116470 104.2129840  40.4642900
  92.1226500  99.2739480  47.0792460  92.2857540  98.8044840  46.2611830
  92.5878950  98.7663040  47.7441300  96.8945270  88.4045240  42.1153030
  96.4513420  89.1854780  41.7837550  97.4530260  88.7275130  42.8223970
 101.1815080  91.2713760  47.7188350 100.7194450  91.4796780  48.5308290
 100.7793190  90.4573110  47.4159020 103.2769300  93.9924460  50.9483800
 103.6022710  93.1588210  50.6086030 104.0649630  94.5152980  51.0962130
 100.0104090  88.0255940  36.9958860  99.3858270  88.0215810  37.7212170
  99.9234210  87.1586900  36.5994830  98.9321170  88.9492570  43.9742630
  99.2293500  89.8555400  43.8934650  99.4806730  88.4611350  43.3602200
  96.6859490  93.5278810  39.8434280  96.4600410  93.3115980  40.7480900
  95.9052020  93.9607270  39.4980250 103.9157250  93.5342180  38.4424930
 103.3166140  94.2577980  38.2588550 104.4636860  93.4718960  37.6601380
  99.1258700  94.4264390  50.5094550  99.0302300  93.4859120  50.3594950
  99.9690680  94.6479460  50.1142620 102.5222120  92.1705720  40.4728210
 102.9151690  92.4877920  39.6596900 102.8838970  91.2917600  40.5872730
  94.2569240  90.8378060  48.6628330  93.8632630  91.6853270  48.8701110
  93.5687640  90.2004430  48.8536970 100.8314290  90.9213030  51.7325070
 100.1412610  90.7285230  52.3671160 101.5746590  91.2047670  52.2649370
  91.5586290  88.7606520  42.6958410  91.2699340  89.3309380  43.4083390
  92.3032050  88.2810970  43.0589640  91.7456520  92.7026640  33.9061130
  91.6631190  93.6457400  34.0476120  91.3939580  92.5601550  33.0273480
 103.1077260  94.7611470  44.5678990 102.3758380  95.2698280  44.9169090
 102.7101600  93.9441450  44.2667770  99.5454650  91.4365670  42.9731480
  99.5490710  90.9955620  42.1236020 100.4405770  91.7583000  43.0803300
  95.3957030  91.3192160  41.9325690  95.0557080  91.7967390  42.6892740
  94.6334350  90.8657280  41.5726790  99.6074800  92.4377750  35.9638240
  99.7287620  92.3964230  36.9124060  99.2223310  93.3001900  35.8084970
 103.5703170  90.2145150  43.9801930 103.5875910  90.6653800  44.8243780
 103.3218750  89.3150790  44.1935370  98.6196300  94.7478890  35.3621540
  98.0513200  94.2997140  34.7357450  99.3285300  95.1071670  34.8286690
 106.9973920  87.6277330  49.8188310 107.3219690  86.8966990  50.3446290
 107.0330430  87.3090970  48.9169300  93.6965480  98.6490910  49.2388270
  93.3120270  98.0084580  49.8371230  94.0077670  99.3527030  49.8083000
  99.8462620  95.4967450  44.7196890 100.2132750  95.0226020  45.4658230
  99.6567680  96.3709020  45.0605230  92.7103110  90.2411140  40.8490360
  92.4250030  89.8766810  41.6868980  92.6481970  89.5091600  40.2353500
  97.6361990  94.5376090  47.0381100  97.3319060  95.4168070  47.2631460
  98.5908450  94.5975880  47.0738540  96.1643780  98.7437080  37.6347950
  95.3906040  98.2034700  37.4746670  96.8938410  98.2243690  37.2965710
 106.9231760  97.7402440  43.4274340 107.6430880  98.2357730  43.0370450
 106.7213580  97.0620330  42.7828210 102.3841700  89.1340400  37.5703730
 101.5706310  88.6353570  37.4949040 102.1903650  89.9738650  37.1540080
 102.3050560  97.8111500  49.3143340 102.2387870  96.8907170  49.0600930
 101.6755700  97.9086940  50.0287980 105.0990090  93.5060050  35.8665890
 105.9869710  93.8177280  35.6917230 105.0695180  92.6332300  35.4746470
  96.2081180  98.4117460  41.2726760  96.7259850  97.6085720  41.2183650
  95.7565200  98.3496600  42.1143590 101.0950680  99.6783740  36.5454060
 101.4366380 100.4225970  36.0497380 100.2663390  99.9914860  36.9078890
  93.6925720  95.3778830  48.1852460  93.3340660  96.0432680  48.7725800
  93.3980280  94.5462380  48.5565080  96.8938840  95.8363070  51.0692010
  96.5938980  95.9820250  50.1719830  97.6650080  95.2768360  50.9765400
 102.2367290 100.6332070  49.0647140 102.2511830  99.7013030  48.8466050
 101.5292390 100.7191830  49.7036910 107.3704360  94.8171890  35.3345750
 107.2868080  95.2486110  34.4842190 108.0898550  95.2770240  35.7672570
 108.3991610 101.6714150  38.0627880 107.7567770 101.0169770  38.3371600
 108.0122270 102.0769240  37.2868550 103.9778090  98.9999580  41.9099570
 104.3301910  98.4027710  41.2500940 103.0940420  98.6743810  42.0807820
 100.0641370  99.7597270  39.3169980 100.7512500 100.3066480  39.6977570
  99.2773790 100.3038000  39.3519590  92.2033770  95.3770090  34.8087060
  93.0728620  95.6594890  35.0922980  91.7124090  96.1905960  34.6935870
  99.3668580  96.7643300  38.9295340  99.8231360  97.5748550  39.1555530
  99.0156790  96.4466440  39.7613830 101.6701190 102.2749640  46.1587640
 102.3143410 102.4809020  46.8361060 102.0330630 101.5138040  45.7058490
  95.2680360  87.1080950  39.4017860  95.1394990  87.0998850  40.3502780
  94.4442380  87.4464040  39.0508870 102.9433270 100.2781990  44.8765090
 103.5855500  99.5775150  44.9897260 103.4682620 101.0580430  44.6961980
 106.7888990 100.5630610  34.6004230 106.5626570  99.8461050  35.1928870
 106.3985190 100.3143050  33.7625980 104.7170890 101.0776890  48.0801150
 105.0527130 101.6643580  48.7579070 103.7971230 100.9469600  48.3098940
  92.5705020 104.5897470  35.3748690  92.9302660 105.1886810  34.7205960
  92.4297360 105.1357360  36.1483720  92.2674290  88.8672070  48.8624560
  91.5532810  89.0668990  49.4677170  92.6869330  88.0911640  49.2339360
 106.3705240  98.4802550  36.2618390 106.0826940  98.9415240  37.0496270
 107.1657410  98.0200320  36.5302610  92.5546880 102.8552330  49.8491090
  92.6638000 101.9147070  49.7086480  91.9027440 103.1207080  49.2004820
 100.5459470 101.1268220  51.2489210 100.2256340 100.4077460  51.7934900
  99.8717830 101.8023290  51.3225270  98.5873640 101.9728670  36.1922360
  98.5783740 102.7058360  35.5766870  97.6672000 101.7260250  36.2849320
  94.1880280  97.1943560  36.9369120  93.5808230  97.9342460  36.9464420
  94.6629630  97.2842920  36.1107320 103.7613070  91.3594380  46.6126010
 104.1293890  90.5389590  46.9405580 102.9011270  91.4196270  47.0281660
 107.1275100  90.3151320  37.4213570 106.4988260  90.4196990  36.7071800
 106.6327020  90.5348100  38.2107450 101.5733240 102.0356910  34.8547550
 101.6745220 101.8320900  33.9249530 100.6734980 101.7815190  35.0595330
  99.0959130  92.5937270  38.8371450  98.3875280  93.0623610  39.2785060
  99.3803610  91.9359280  39.4716640 100.7215060  94.0133970  46.8363980
 101.2200310  94.4879790  47.5015830 100.8638010  93.0897490  47.0434010
 103.1274560  89.3187930  40.2767240 103.0042340  89.3374060  39.3276750
 104.0759120  89.3666870  40.3965640 100.2151350 104.5543230  39.5495220
 100.4692850 104.5164620  38.6274590  99.2663830 104.4276560  39.5423470
  97.2994150  90.9022350  36.2122160  98.1484680  91.3392500  36.1462350
  96.9325420  91.2142610  37.0394220 106.2203930  95.4735110  41.1253730
 105.2794070  95.4885340  41.3001420 106.5348000  94.6871070  41.5714030
  96.1985570  97.1554710  34.6857690  96.9648840  97.0436070  35.2483120
  96.2760260  96.4592680  34.0334460  94.8932330  94.5879780  35.3690580
  94.9735920  93.6407290  35.4807980  95.7852080  94.9186660  35.4751240
 108.2229510 102.6443960  42.8007990 108.3476930 103.4675130  43.2731800
 109.0895070 102.4334690  42.4532140  95.6947040 104.7375170  42.4725120
  96.4309520 104.1890630  42.7433690  96.0787960 105.6031180  42.3331110
  92.5792520 100.8048740  38.3466630  91.6532300 101.0469880  38.3372040
  93.0448950 101.6323000  38.2251380  94.7005320 103.9221240  51.6610700
  95.5018050 104.2433290  52.0746100  94.1857140 103.5616820  52.3830610
  98.8049350 103.9105480  34.2950690  99.5977960 104.1994310  33.8432480
  98.2853700 103.4797650  33.6163170 103.5369950 100.0301110  51.6086110
 102.9308110 100.0532710  50.8681860 103.2324060  99.2984150  52.1453360
 104.9670320 103.7581400  50.2195520 105.9192070 103.6739420  50.1695760
 104.8198540 104.4223110  50.8929310 107.8579520 103.1375610  35.7187430
 107.5721030 102.7240750  34.9041610 107.6599070 104.0663320  35.5987950
  92.4203130  96.4094700  50.6046750  92.9242150  95.8301980  51.1762980
  91.6810550  96.6934930  51.1423120  99.3226750  99.1308890  34.1593040
  99.2177390  98.5161240  34.8854420  99.1550970  98.6074780  33.3756050
  99.4741070  97.8165690  50.1382270  98.7086740  98.3850690  50.0536940
  99.6557030  97.5241900  49.2450500 102.5629480  98.1928920  34.7635030
 102.0139580  98.6398220  35.4077770 103.1848740  97.6878170  35.2872700
 106.6164420  99.5471020  50.6957290 107.3573890  99.8846780  50.1924750
 105.8537100  99.7163080  50.1427060  94.4526210  94.5524290  51.4996820
  94.4931550  94.2538160  52.4082050  95.3071710  94.9531900  51.3404340
  98.2304600  97.1519840  36.6600330  98.6521020  96.9859710  37.5031720
  98.3555440  96.3420070  36.1655470  96.3932020  93.1316390  49.4671310
  95.8628480  92.6407340  48.8394650  97.0620090  93.5600590  48.9329240
 100.7432240  96.1757450  33.9077430 101.2637900  95.4606470  33.5418580
 101.3900640  96.8143320  34.2077940 105.2910080  97.5985850  49.2312500
 105.7051100  97.7530930  50.0802920 104.3561080  97.7241070  49.3938280
 105.7632250  94.9382010  51.2351650 106.3453020  94.1834330  51.1472130
 105.9394020  95.4689450  50.4583130  96.8804320  90.0978760  49.5468600
  96.7861190  89.4799510  48.8219470  96.3001710  90.8245050  49.3198510
  99.6465760  88.6552000  46.5795990  99.1983060  88.6776260  45.7341540
  99.0130960  88.2571020  47.1766290 100.0525310  97.5506330  47.2008430
 100.4713420  98.3939060  47.0284670  99.1333940  97.6878370  46.9715210
 102.3889210  95.2822510  48.5846270 102.5085420  94.6863650  49.3241110
 103.2483210  95.3192200  48.1647570  97.1263500  93.2253070  33.6058490
  96.9252560  92.3620430  33.9671830  96.9555550  93.1386430  32.6680090
  97.9032730 103.8559340  48.3166160  97.3653820 104.5805400  47.9974860
  98.1566690 103.3789680  47.5263500  99.1557980  91.8243860  49.8422090
  99.7457670  91.5159710  50.5299910  98.3378220  91.3523610  49.9981990
 103.9751410  91.4409670  50.0755110 103.2866930  90.7791210  50.0105100
 104.6957430  90.9947940  50.5203570 104.6051810  88.0361300  36.1345370
 104.8854100  87.1929200  36.4904790 103.8317540  88.2684410  36.6484120
  95.9246300  90.3253690  33.5936370  96.2272200  90.3321120  32.6855520
  96.6640890  89.9751550  34.0904030 100.7594940 105.0910550  48.5752810
 100.6853640 105.9945690  48.8825180  99.8573780 104.7722450  48.5474880
  99.1431230  89.2688310  34.5792570  98.7953230  88.5912300  33.9995020
  99.3444000  88.8077820  35.3935960 101.3080270 104.2569060  36.1979170
 102.2031060 104.5954030  36.2197930 101.3397900 103.5348470  35.5703450
  94.9476430  99.6296110  34.4266170  95.3851300 100.1725780  35.0823750
  95.4324160  98.8043060  34.4362510  92.1622230 102.4185140  41.8786430
  92.4925240 101.5506200  41.6465070  92.5913230 102.6243660  42.7091390
  96.7584150 100.7494150  39.5388400  96.4579690 100.6259120  40.4392310
  96.6521640  99.8902740  39.1304130  92.6512440 103.2855730  44.6168060
  92.2143430 103.4656530  45.4492210  93.2190120 104.0430350  44.4749780
 108.2874620 102.7872730  48.9045370 107.6876610 102.8465290  48.1609290
 108.4168520 101.8477710  49.0342220 109.5276070 100.5290550  34.2415080
 108.6969030 100.5967200  34.7122310 109.7047900 101.4194670  33.9381940
 108.9832530  97.2738030  36.7449280 109.7451440  97.8434680  36.8508970
 108.9986900  96.7065230  37.5157590  92.4836870  95.7975960  40.9756940
  91.8285710  95.5287600  40.3316640  93.3214820  95.6880440  40.5258920
 109.9892500  98.1288130  41.5891210 110.3601330  97.3455450  41.1827180
 110.6294430  98.8177230  41.4108510 106.9726260  99.5124710  47.0021530
 106.1586100  99.9421870  47.2647320 107.3800460 100.1243120  46.3890580
 109.0351700  97.5672400  33.9021800 109.3100540  98.4751280  33.7741020
 108.8462440  97.5034930  34.8383790 105.4327310  90.5917250  35.1975430
 105.8512190  90.4048230  34.3572090 105.1263370  89.7396300  35.5078360
 108.9317040  95.5041390  38.8951230 108.5560640  94.7369320  38.4632520
 108.2020160  95.8864090  39.3826160  93.5212800  96.1828530  45.5160280
  93.8885840  96.0955930  46.3956300  92.9523620  95.4195080  45.4167140
  93.0728800  93.0937620  49.4218700  92.1784850  93.0604380  49.7612410
  93.6126350  93.2924410  50.1869950 106.7604730  89.8769340  51.3070450
 107.6374910  89.8852740  51.6904450 106.7725570  89.1400180  50.6962800
  91.6974950  93.0074890  36.9182270  90.7939030  93.2705090  36.7433930
  92.1815570  93.2786060  36.1382230 108.2068000  93.7298880  42.1958470
 108.7305480  93.2361530  41.5648640 108.7927420  93.8649240  42.9406040
  94.2402160  92.0640430  34.8276650  94.9493860  91.6423650  34.3423930
  93.5242100  92.1315660  34.1960000  93.8876320  88.1179760  33.8679300
  94.6104450  88.6588700  34.1860520  94.1600840  87.8443180  32.9920840
 107.6967970  92.9872230  38.1350880 108.1927090  92.7543100  38.9199760
 107.4984040  92.1484070  37.7188520  93.5768510  87.3685950  43.7701920
  94.2244700  86.8183330  43.3297080  93.9970350  87.6229100  44.5917730
 109.1255130  91.6233180  40.6688560 109.0154410  91.4689220  41.6070830
 109.8862720  91.0954120  40.4263970 107.4720850  87.5627310  47.1271560
 108.1093070  88.1761450  47.4930750 107.6195740  87.5987970  46.1820790
 110.0145400  89.4541100  33.9094700 110.9394710  89.3222280  33.7012990
 109.9921190  89.5333920  34.8631150 110.0883890  90.2251760  36.5351410
 109.2935390  90.1596880  37.0644320 110.2927170  91.1602400  36.5236760
 107.0302310 104.2643310  40.5289800 107.6261380 103.9427880  39.8524220
 107.2880460 103.7915130  41.3203070  93.3300510  87.5241620  46.5127240
  92.9815330  87.9805440  47.2785420  92.9988210  86.6298750  46.5949670
  94.9364880 100.6961220  50.6780430  94.8934510 100.3254130  51.5594890
  95.0675890 101.6338790  50.8182250  98.6370910 102.2520810  46.2790150
  98.3962270 102.5195370  45.3920670  99.5773550 102.4226540  46.3341010
 100.8425330  88.7153500  50.0346660 100.7814220  89.3075330  50.7842070
 101.7825710  88.6079460  49.8896920 103.4799890  88.3723560  49.6738950
 104.0940300  88.6902850  49.0120030 104.0249450  87.8872150  50.2934810
 109.8975070 104.2715190  47.0800790 109.4033350 104.6684060  46.3627920
 109.2888360 103.6464400  47.4738070  94.0021150  87.0517820  49.7878010
  94.5504140  86.8705870  49.0244120  94.0676460  86.2611930  50.3234320
  94.7752910 103.6423470  47.7978210  94.1813230 103.5108170  48.5368250
  94.7676750 102.8061610  47.3320310 104.2207930  86.9355700  46.0008240
 103.3467770  87.2690810  45.7981170 104.1118680  86.4628880  46.8260110
 105.1279910  89.1426570  47.3849960 104.7993270  88.3278330  47.0051690
 106.0762210  89.0996380  47.2615650 107.5814520 104.9138610  44.3587530
 107.1217490 105.6654420  43.9845550 106.9526980 104.1945080  44.3002330
  94.4065140 101.0081850  46.7486250  93.6799200 100.3887140  46.6812200
  94.4674290 101.4022460  45.8784330  98.0110240 103.2226850  43.5335660
  98.5275260 102.6114210  43.0083920  98.6607620 103.7255630  44.0246670
 100.7505740 104.1135340  44.3604640 101.0383550 103.8589640  43.4837650
 101.2628960 103.5612700  44.9510210 101.9682750  87.8525540  44.9401150
 101.1854540  88.3271040  45.2197910 101.6745680  86.9480370  44.8314330
 106.5203820  88.5548640  42.9850240 106.9611910  88.4993740  42.1371840
 106.2511410  89.4706650  43.0560420 108.3842390  88.1863880  40.9959060
 108.3230790  87.2425100  40.8490080 109.1634420  88.2943970  41.5412520
  92.6895140 104.3256240  39.9583010  92.5217180 103.6926920  40.6564900
  91.8229650 104.5315640  39.6077200  93.3123160  88.1573020  37.4614870
  94.0702520  88.2701900  36.8878900  92.8500330  88.9942220  37.4158300
  99.8536970  90.2712290  40.4517180  99.0411480  89.8969180  40.1113060
 100.3578610  89.5157370  40.7538370 104.3561950  86.9354740  41.6900250
 104.9591320  87.5074950  42.1648770 103.6154940  87.4994180  41.4674150
 107.4996550  87.3376300  36.9640530 107.6947180  88.2359750  37.2307960
 106.7126420  87.1063380  37.4573480  94.2957840 103.0189470  37.4033150
  93.7705460 103.3997500  36.6995110  94.2202420 103.6440240  38.1242860
  95.6848310  88.6837070  36.0016840  96.2141070  87.8966870  35.8724790
  96.3176630  89.3628260  36.2352370  97.8786150  88.4212210  39.0562230
  97.2488890  87.7199520  39.2232360  97.3391290  89.1816340  38.8395390
 100.8178100 105.0351440  51.7272840 101.7445410 104.7995710  51.7708800
 100.8028530 105.8623440  51.2458870 109.0523160 104.5777010  38.7247090
 109.2275350 103.8914750  38.0808010 108.3544730 105.1024060  38.3323760
  98.0041710  87.6996190  51.4914720  97.7225980  88.2029790  50.7275540
  98.3861410  86.9017940  51.1256850  96.8950810 104.9671850  36.2782400
  97.6269630 104.6831130  35.7306290  97.1544480 104.7285130  37.1681780
  96.0565600 101.0836580  36.2828730  95.4274480 101.5521680  36.8314560
  96.1713430 100.2385800  36.7174920 104.6057170  87.1149770  52.0695190
 104.4922620  87.4344380  52.9646710 105.4226910  87.5162280  51.7732470
 107.3855660 104.2621300  51.5513880 108.1780980 103.7670530  51.3439840
 107.6788810 104.9411440  52.1589490 103.5115320  95.1342240  22.4329930
 103.4309370  94.2196850  22.1621640 103.0979740  95.6309310  21.7269640
 101.6433360  96.9121260  24.3139200 100.8675460  96.4321700  24.6037770
 102.2946290  96.2326910  24.1395360  95.6599190  97.2241070  25.1914960
  94.8284070  96.9689780  25.5911470  96.2680170  97.2951840  25.9272880
 105.6640790 101.3181450  23.0938330 105.2022320 100.5468690  23.4225500
 106.4766340 101.3447520  23.5990780  95.6400450 101.2581160  25.3872980
  95.9428490 100.3678900  25.2083200  96.3844040 101.8151380  25.1595230
  94.0691140  92.1842960  18.9757350  93.1807840  92.5258930  18.8737230
  94.3532330  91.9843280  18.0838180  92.0324150  94.7848610  24.8597050
  92.6040260  94.0170810  24.8600690  92.0325690  95.0837370  23.9503660
 101.8904100 103.6039460  22.7142320 101.2715540 104.0596960  22.1436760
 102.7455880 103.7590920  22.3132020 101.0842350  99.5878450  24.3209360
 101.0150630  98.6468390  24.1598490 101.8462210  99.6779860  24.8931930
  93.2749020  90.1932970  26.6465980  93.0951860  89.2958720  26.9268740
  92.8729100  90.7404840  27.3212930 102.1147520  92.3948830  24.5478290
 102.4912340  91.5220710  24.4351960 102.0167030  92.7307530  23.6568730
  96.2452530  90.7674460  20.0095730  96.3519280  91.6678190  20.3164490
  95.3344890  90.7192430  19.7190380 105.8971640  89.8899270  21.4806630
 106.7181260  89.3995840  21.5232110 105.9305720  90.4796930  22.2338470
  93.8935690  92.6893470  25.2548320  94.5745800  92.9531840  25.8735720
  93.5783740  91.8494340  25.5886330  98.0860260  93.7360830  24.3420910
  98.5938480  94.2341800  24.9825930  98.6173500  92.9596030  24.1660270
 110.1871190  91.9066020  28.0450260 109.4823360  92.2947730  27.5265370
 110.4529110  92.6016310  28.6471190  96.3696360  88.3759390  28.6084330
  96.3714800  88.8931780  27.8030230  95.5400670  87.8989570  28.5854260
 102.7567450  98.4878700  20.1074230 102.1384720  98.9528150  19.5436950
 103.2690700  99.1806180  20.5243740  97.6199210  98.0154570  26.7857830
  97.2868590  98.6423490  27.4278900  97.7965890  98.5416450  26.0059500
 106.1333120  91.8299650  24.2534170 105.4288690  92.1184540  24.8337280
 106.4945280  92.6399760  23.8933730  96.0511690  90.0869350  26.6154780
  96.3928500  90.9311400  26.3208650  95.1127500  90.2353090  26.7320120
  96.8318310  99.9835370  28.6007010  97.4492310 100.6586450  28.3191460
  95.9711430 100.3923350  28.5094510  92.1250650  99.1735230  17.4813860
  91.7478630  99.6622330  16.7498760  92.3823720  99.8460510  18.1120390
 107.7495900 101.4474780  26.5161650 107.0659420 102.1173890  26.5078320
 108.2890190 101.6455430  25.7506510 109.2020040  91.2754440  24.6443380
 108.2544950  91.3093420  24.7758810 109.5270030  92.0893390  25.0292740
  99.7339580  87.5751620  22.9399370 100.0414560  87.0198510  22.2234870
  98.8040280  87.7096080  22.7572360 105.2854640 103.2918910  25.2306830
 105.2981800 102.8881200  24.3629090 104.7329860 104.0666200  25.1268260
 106.5800060 100.0135130  20.3197000 106.4696390  99.0709460  20.4446420
 106.5768310 100.3750770  21.2059760 104.6840080  98.1948750  26.5589440
 105.1008870  97.9808860  25.7242900 105.4079900  98.4521540  27.1298060
 102.1220340  95.6400450  19.6759490 101.1949620  95.5737830  19.9047960
 102.2745160  96.5780580  19.5614730 102.1089420  91.9117450  16.6726650
 101.1693090  92.0731410  16.7579110 102.4272680  92.6303130  16.1262640
 108.6302180  96.5935970  26.6505680 107.8020810  96.6629060  26.1755810
 109.2252660  97.1790280  26.1821510 106.1517630  97.2020750  20.1794740
 105.5330050  96.8640300  19.5321040 106.1342080  96.5580510  20.8873930
 105.5944190  93.3805290  27.5960550 105.1815370  94.2059000  27.8500540
 104.8620140  92.7950330  27.4036910  97.7276980  96.1665190  22.4579220
  97.3233980  95.4542440  21.9625120  97.8140100  95.8218430  23.3467260
  98.1958680  99.8532750  24.6218430  97.8986970  99.2478220  23.9426210
  99.1458500  99.8910060  24.5107790  96.4405600  92.9408400  26.2378260
  96.9920190  93.0503740  25.4631510  96.9549110  93.3146000  26.9533490
 106.2844290 103.4264620  28.2841530 105.8074850 104.2336810  28.0914140
 105.6006080 102.7742950  28.4367740  97.2877110  99.5914440  31.2726230
  96.3905640  99.8154410  31.5199630  97.3129980  99.7149380  30.3237630
 104.3282330  96.4407560  17.1867490 104.7675610  95.6029990  17.0405310
 105.0410750  97.0736960  17.2731630  96.1148330  96.4627760  29.8483600
  95.9756100  97.3350560  30.2171000  95.2329690  96.1200570  29.7031540
 102.4377710 101.3803630  21.1548730 102.8773620 102.1227960  20.7404120
 102.3764600 101.6230200  22.0787690  97.9128680 102.4049460  32.0568750
  97.8844110 102.8092410  31.1897180  97.7493650 101.4759820  31.8940350
 107.9099470  87.6950370  15.5008530 107.5972130  87.7877200  16.4007600
 108.6711940  88.2731400  15.4505960  94.4281610  95.0610170  19.9585870
  94.3079210  95.7872260  19.3467140  94.1182500  94.2913080  19.4813780
 109.8643500 103.1876560  33.3532920 110.3403220 103.6659450  34.0322000
 110.4850660 103.1194050  32.6278420  92.0666980  98.2325310  25.7654510
  92.1447400  98.3674080  24.8210230  92.6808660  97.5241200  25.9582630
  93.3114610  99.9325500  22.1760690  92.9042690 100.0740090  21.3214290
  94.2027620  99.6485660  21.9731900 109.2676750 100.3789410  30.5132930
 109.3939810 100.1401290  29.5950110 109.3098130  99.5473950  30.9855010
 103.1293490 104.0817410  29.0827740 103.6438160 103.9925420  29.8850170
 102.2862570 104.4277110  29.3755650 105.1047890 104.3672750  18.5111740
 104.9449030 104.0775690  19.4093570 104.9394600 103.5912880  17.9756970
  97.5836270 104.1471280  20.2883360  97.4078750 103.2306820  20.0751160
  96.7292010 104.5058570  20.5281160 104.8074020 101.8760310  17.0709740
 104.1139180 101.8737600  16.4112020 105.5496880 101.4519630  16.6403910
 104.3723950 103.5023020  21.1458230 104.8280900 102.7212400  21.4596850
 104.7116470 104.2129840  21.6899410 109.1200760  92.4321870  31.4782670
 108.5045030  92.9401540  30.9498130 108.7997180  91.5320200  31.4208610
  92.1226500  99.2739480  28.3048970  92.2857540  98.8044840  27.4868340
  92.5878950  98.7663040  28.9697810  96.8945270  88.4045240  23.3409540
  96.4513420  89.1854780  23.0094060  97.4530260  88.7275130  24.0480480
 101.1815080  91.2713760  28.9444860 100.7194450  91.4796780  29.7564800
 100.7793190  90.4573110  28.6415530 106.1819590  92.4922710  30.0741520
 105.3313180  92.1928460  30.3950590 106.0221380  92.7364720  29.1625340
 103.2769300  93.9924460  32.1740310 103.6022710  93.1588210  31.8342540
 104.0649630  94.5152980  32.3218640 100.0104090  88.0255940  18.2215370
  99.3858270  88.0215810  18.9468680  99.9234210  87.1586900  17.8251340
  98.9321170  88.9492570  25.1999140  99.2293500  89.8555400  25.1191160
  99.4806730  88.4611350  24.5858710  96.6859490  93.5278810  21.0690790
  96.4600410  93.3115980  21.9737410  95.9052020  93.9607270  20.7236760
 103.9157250  93.5342180  19.6681440 103.3166140  94.2577980  19.4845060
 104.4636860  93.4718960  18.8857890  99.1258700  94.4264390  31.7351060
  99.0302300  93.4859120  31.5851460  99.9690680  94.6479460  31.3399130
 102.5222120  92.1705720  21.6984720 102.9151690  92.4877920  20.8853410
 102.8838970  91.2917600  21.8129240  94.2569240  90.8378060  29.8884840
  93.8632630  91.6853270  30.0957620  93.5687640  90.2004430  30.0793480
 100.8314290  90.9213030  32.9581580 100.1412610  90.7285230  33.5927670
 101.5746590  91.2047670  33.4905880  91.5586290  88.7606520  23.9214920
  91.2699340  89.3309380  24.6339900  92.3032050  88.2810970  24.2846150
  91.7456520  92.7026640  15.1317640  91.6631190  93.6457400  15.2732630
  91.3939580  92.5601550  14.2529990 103.1077260  94.7611470  25.7935500
 102.3758380  95.2698280  26.1425600 102.7101600  93.9441450  25.4924280
  99.5454650  91.4365670  24.1987990  99.5490710  90.9955620  23.3492530
 100.4405770  91.7583000  24.3059810  95.3957030  91.3192160  23.1582200
  95.0557080  91.7967390  23.9149250  94.6334350  90.8657280  22.7983300
  99.6074800  92.4377750  17.1894750  99.7287620  92.3964230  18.1380570
  99.2223310  93.3001900  17.0341480 103.5703170  90.2145150  25.2058440
 103.5875910  90.6653800  26.0500290 103.3218750  89.3150790  25.4191880
  98.6196300  94.7478890  16.5878050  98.0513200  94.2997140  15.9613960
  99.3285300  95.1071670  16.0543200 106.9973920  87.6277330  31.0444820
 107.3219690  86.8966990  31.5702800 107.0330430  87.3090970  30.1425810
  93.6965480  98.6490910  30.4644780  93.3120270  98.0084580  31.0627740
  94.0077670  99.3527030  31.0339510  99.8462620  95.4967450  25.9453400
 100.2132750  95.0226020  26.6914740  99.6567680  96.3709020  26.2861740
  92.7103110  90.2411140  22.0746870  92.4250030  89.8766810  22.9125490
  92.6481970  89.5091600  21.4610010  97.6361990  94.5376090  28.2637610
  97.3319060  95.4168070  28.4887970  98.5908450  94.5975880  28.2995050
  96.1643780  98.7437080  18.8604460  95.3906040  98.2034700  18.7003180
  96.8938410  98.2243690  18.5222220 106.9231760  97.7402440  24.6530850
 107.6430880  98.2357730  24.2626960 106.7213580  97.0620330  24.0084720
 102.3841700  89.1340400  18.7960240 101.5706310  88.6353570  18.7205550
 102.1903650  89.9738650  18.3796590 102.3050560  97.8111500  30.5399850
 102.2387870  96.8907170  30.2857440 101.6755700  97.9086940  31.2544490
 105.0990090  93.5060050  17.0922400 105.9869710  93.8177280  16.9173740
 105.0695180  92.6332300  16.7002980  96.2081180  98.4117460  22.4983270
  96.7259850  97.6085720  22.4440160  95.7565200  98.3496600  23.3400100
 101.0950680  99.6783740  17.7710570 101.4366380 100.4225970  17.2753890
 100.2663390  99.9914860  18.1335400  93.6925720  95.3778830  29.4108970
  93.3340660  96.0432680  29.9982310  93.3980280  94.5462380  29.7821590
  96.8938840  95.8363070  32.2948520  96.5938980  95.9820250  31.3976340
  97.6650080  95.2768360  32.2021910 102.2367290 100.6332070  30.2903650
 102.2511830  99.7013030  30.0722560 101.5292390 100.7191830  30.9293420
 107.3704360  94.8171890  16.5602260 107.2868080  95.2486110  15.7098700
 108.0898550  95.2770240  16.9929080 108.4478500  97.2739410  29.6372230
 107.7226690  97.8668190  29.4401620 108.9753960  97.2662950  28.8385600
 108.3991610 101.6714150  19.2884390 107.7567770 101.0169770  19.5628110
 108.0122270 102.0769240  18.5125060 103.9778090  98.9999580  23.1356080
 104.3301910  98.4027710  22.4757450 103.0940420  98.6743810  23.3064330
 100.0641370  99.7597270  20.5426490 100.7512500 100.3066480  20.9234080
  99.2773790 100.3038000  20.5776100  92.2033770  95.3770090  16.0343570
  93.0728620  95.6594890  16.3179490  91.7124090  96.1905960  15.9192380
  99.3668580  96.7643300  20.1551850  99.8231360  97.5748550  20.3812040
  99.0156790  96.4466440  20.9870340 101.6701190 102.2749640  27.3844150
 102.3143410 102.4809020  28.0617570 102.0330630 101.5138040  26.9315000
  95.2680360  87.1080950  20.6274370  95.1394990  87.0998850  21.5759290
  94.4442380  87.4464040  20.2765380 102.9433270 100.2781990  26.1021600
 103.5855500  99.5775150  26.2153770 103.4682620 101.0580430  25.9218490
 106.7888990 100.5630610  15.8260740 106.5626570  99.8461050  16.4185380
 106.3985190 100.3143050  14.9882490 104.7170890 101.0776890  29.3057660
 105.0527130 101.6643580  29.9835580 103.7971230 100.9469600  29.5355450
  92.5705020 104.5897470  16.6005200  92.9302660 105.1886810  15.9462470
  92.4297360 105.1357360  17.3740230  92.2674290  88.8672070  30.0881070
  91.5532810  89.0668990  30.6933680  92.6869330  88.0911640  30.4595870
 106.3705240  98.4802550  17.4874900 106.0826940  98.9415240  18.2752780
 107.1657410  98.0200320  17.7559120  92.5546880 102.8552330  31.0747600
  92.6638000 101.9147070  30.9342990  91.9027440 103.1207080  30.4261330
 100.5459470 101.1268220  32.4745720 100.2256340 100.4077460  33.0191410
  99.8717830 101.8023290  32.5481780  98.5873640 101.9728670  17.4178870
  98.5783740 102.7058360  16.8023380  97.6672000 101.7260250  17.5105830
  94.1880280  97.1943560  18.1625630  93.5808230  97.9342460  18.1720930
  94.6629630  97.2842920  17.3363830 103.7613070  91.3594380  27.8382520
 104.1293890  90.5389590  28.1662090 102.9011270  91.4196270  28.2538170
 107.1275100  90.3151320  18.6470080 106.4988260  90.4196990  17.9328310
 106.6327020  90.5348100  19.4363960 101.5733240 102.0356910  16.0804060
 101.6745220 101.8320900  15.1506040 100.6734980 101.7815190  16.2851840
  99.0959130  92.5937270  20.0627960  98.3875280  93.0623610  20.5041570
  99.3803610  91.9359280  20.6973150 100.7215060  94.0133970  28.0620490
 101.2200310  94.4879790  28.7272340 100.8638010  93.0897490  28.2690520
 103.1274560  89.3187930  21.5023750 103.0042340  89.3374060  20.5533260
 104.0759120  89.3666870  21.6222150 100.2151350 104.5543230  20.7751730
 100.4692850 104.5164620  19.8531100  99.2663830 104.4276560  20.7679980
  97.2994150  90.9022350  17.4378670  98.1484680  91.3392500  17.3718860
  96.9325420  91.2142610  18.2650730 107.9281920  90.2301930  28.9048880
 107.4255520  90.9707330  29.2442690 108.7438580  90.6185930  28.5885670
 106.2203930  95.4735110  22.3510240 105.2794070  95.4885340  22.5257930
 106.5348000  94.6871070  22.7970540  96.1985570  97.1554710  15.9114200
  96.9648840  97.0436070  16.4739630  96.2760260  96.4592680  15.2590970
  94.8932330  94.5879780  16.5947090  94.9735920  93.6407290  16.7064490
  95.7852080  94.9186660  16.7007750 108.2229510 102.6443960  24.0264500
 108.3476930 103.4675130  24.4988310 109.0895070 102.4334690  23.6788650
  95.6947040 104.7375170  23.6981630  96.4309520 104.1890630  23.9690200
  96.0787960 105.6031180  23.5587620  92.5792520 100.8048740  19.5723140
  91.6532300 101.0469880  19.5628550  93.0448950 101.6323000  19.4507890
  94.7005320 103.9221240  32.8867210  95.5018050 104.2433290  33.3002610
  94.1857140 103.5616820  33.6087120  98.8049350 103.9105480  15.5207200
  99.5977960 104.1994310  15.0688990  98.2853700 103.4797650  14.8419680
 103.5369950 100.0301110  32.8342620 102.9308110 100.0532710  32.0938370
 103.2324060  99.2984150  33.3709870 104.9670320 103.7581400  31.4452030
 105.9192070 103.6739420  31.3952270 104.8198540 104.4223110  32.1185820
 107.8579520 103.1375610  16.9443940 107.5721030 102.7240750  16.1298120
 107.6599070 104.0663320  16.8244460  92.4203130  96.4094700  31.8303260
  92.9242150  95.8301980  32.4019490  91.6810550  96.6934930  32.3679630
  99.3226750  99.1308890  15.3849550  99.2177390  98.5161240  16.1110930
  99.1550970  98.6074780  14.6012560  99.4741070  97.8165690  31.3638780
  98.7086740  98.3850690  31.2793450  99.6557030  97.5241900  30.4707010
 102.5629480  98.1928920  15.9891540 102.0139580  98.6398220  16.6334280
 103.1848740  97.6878170  16.5129210 106.6164420  99.5471020  31.9213800
 107.3573890  99.8846780  31.4181260 105.8537100  99.7163080  31.3683570
  94.4526210  94.5524290  32.7253330  94.4931550  94.2538160  33.6338560
  95.3071710  94.9531900  32.5660850  98.2304600  97.1519840  17.8856840
  98.6521020  96.9859710  18.7288230  98.3555440  96.3420070  17.3911980
  96.3932020  93.1316390  30.6927820  95.8628480  92.6407340  30.0651160
  97.0620090  93.5600590  30.1585750 100.7432240  96.1757450  15.1333940
 101.2637900  95.4606470  14.7675090 101.3900640  96.8143320  15.4334450
 105.2910080  97.5985850  30.4569010 105.7051100  97.7530930  31.3059430
 104.3561080  97.7241070  30.6194790 105.7632250  94.9382010  32.4608160
 106.3453020  94.1834330  32.3728640 105.9394020  95.4689450  31.6839640
  96.8804320  90.0978760  30.7725110  96.7861190  89.4799510  30.0475980
  96.3001710  90.8245050  30.5455020  99.6465760  88.6552000  27.8052500
  99.1983060  88.6776260  26.9598050  99.0130960  88.2571020  28.4022800
 100.0525310  97.5506330  28.4264940 100.4713420  98.3939060  28.2541180
  99.1333940  97.6878370  28.1971720 102.3889210  95.2822510  29.8102780
 102.5085420  94.6863650  30.5497620 103.2483210  95.3192200  29.3904080
 104.7277110  95.8359700  28.3865290 104.2012330  96.3602320  27.7830430
 105.0708450  96.4687090  29.0175020  97.1263500  93.2253070  14.8315000
  96.9252560  92.3620430  15.1928340  96.9555550  93.1386430  13.8936600
  97.9032730 103.8559340  29.5422670  97.3653820 104.5805400  29.2231370
  98.1566690 103.3789680  28.7520010  99.1557980  91.8243860  31.0678600
  99.7457670  91.5159710  31.7556420  98.3378220  91.3523610  31.2238500
 103.9751410  91.4409670  31.3011620 103.2866930  90.7791210  31.2361610
 104.6957430  90.9947940  31.7460080 104.6051810  88.0361300  17.3601880
 104.8854100  87.1929200  17.7161300 103.8317540  88.2684410  17.8740630
  95.9246300  90.3253690  14.8192880  96.2272200  90.3321120  13.9112030
  96.6640890  89.9751550  15.3160540 100.7594940 105.0910550  29.8009320
 100.6853640 105.9945690  30.1081690  99.8573780 104.7722450  29.7731390
  99.1431230  89.2688310  15.8049080  98.7953230  88.5912300  15.2251530
  99.3444000  88.8077820  16.6192470 101.3080270 104.2569060  17.4235680
 102.2031060 104.5954030  17.4454440 101.3397900 103.5348470  16.7959960
  94.9476430  99.6296110  15.6522680  95.3851300 100.1725780  16.3080260
  95.4324160  98.8043060  15.6619020  92.1622230 102.4185140  23.1042940
  92.4925240 101.5506200  22.8721580  92.5913230 102.6243660  23.9347900
  96.7584150 100.7494150  20.7644910  96.4579690 100.6259120  21.6648820
  96.6521640  99.8902740  20.3560640  92.6512440 103.2855730  25.8424570
  92.2143430 103.4656530  26.6748720  93.2190120 104.0430350  25.7006290
 108.2874620 102.7872730  30.1301880 107.6876610 102.8465290  29.3865800
 108.4168520 101.8477710  30.2598730 109.5276070 100.5290550  15.4671590
 108.6969030 100.5967200  15.9378820 109.7047900 101.4194670  15.1638450
 108.9832530  97.2738030  17.9705790 109.7451440  97.8434680  18.0765480
 108.9986900  96.7065230  18.7414100  92.4836870  95.7975960  22.2013450
  91.8285710  95.5287600  21.5573150  93.3214820  95.6880440  21.7515430
 109.9892500  98.1288130  22.8147720 110.3601330  97.3455450  22.4083690
 110.6294430  98.8177230  22.6365020 106.9726260  99.5124710  28.2278040
 106.1586100  99.9421870  28.4903830 107.3800460 100.1243120  27.6147090
 109.0351700  97.5672400  15.1278310 109.3100540  98.4751280  14.9997530
 108.8462440  97.5034930  16.0640300 105.4327310  90.5917250  16.4231940
 105.8512190  90.4048230  15.5828600 105.1263370  89.7396300  16.7334870
 108.9317040  95.5041390  20.1207740 108.5560640  94.7369320  19.6889030
 108.2020160  95.8864090  20.6082670  93.5212800  96.1828530  26.7416790
  93.8885840  96.0955930  27.6212810  92.9523620  95.4195080  26.6423650
 108.3216660  94.6512910  29.7547260 108.0902750  94.4225660  28.8545210
 108.5821210  95.5712460  29.7092150  93.0728800  93.0937620  30.6475210
  92.1784850  93.0604380  30.9868920  93.6126350  93.2924410  31.4126460
 106.7604730  89.8769340  32.5326960 107.6374910  89.8852740  32.9160960
 106.7725570  89.1400180  31.9219310  91.6974950  93.0074890  18.1438780
  90.7939030  93.2705090  17.9690440  92.1815570  93.2786060  17.3638740
 108.2068000  93.7298880  23.4214980 108.7305480  93.2361530  22.7905150
 108.7927420  93.8649240  24.1662550 108.3857720  93.8138750  26.9434530
 107.4360430  93.7802290  27.0579520 108.5670730  94.7238860  26.7084300
  94.2402160  92.0640430  16.0533160  94.9493860  91.6423650  15.5680440
  93.5242100  92.1315660  15.4216510  93.8876320  88.1179760  15.0935810
  94.6104450  88.6588700  15.4117030  94.1600840  87.8443180  14.2177350
 107.6967970  92.9872230  19.3607390 108.1927090  92.7543100  20.1456270
 107.4984040  92.1484070  18.9445030  93.5768510  87.3685950  24.9958430
  94.2244700  86.8183330  24.5553590  93.9970350  87.6229100  25.8174240
 109.1255130  91.6233180  21.8945070 109.0154410  91.4689220  22.8327340
 109.8862720  91.0954120  21.6520480 107.4720850  87.5627310  28.3528070
 108.1093070  88.1761450  28.7187260 107.6195740  87.5987970  27.4077300
 110.0145400  89.4541100  15.1351210 110.9394710  89.3222280  14.9269500
 109.9921190  89.5333920  16.0887660 110.0883890  90.2251760  17.7607920
 109.2935390  90.1596880  18.2900830 110.2927170  91.1602400  17.7493270
 107.0302310 104.2643310  21.7546310 107.6261380 103.9427880  21.0780730
 107.2880460 103.7915130  22.5459580  93.3300510  87.5241620  27.7383750
  92.9815330  87.9805440  28.5041930  92.9988210  86.6298750  27.8206180
  94.9364880 100.6961220  31.9036940  94.8934510 100.3254130  32.7851400
  95.0675890 101.6338790  32.0438760  98.6370910 102.2520810  27.5046660
  98.3962270 102.5195370  26.6177180  99.5773550 102.4226540  27.5597520
 100.8425330  88.7153500  31.2603170 100.7814220  89.3075330  32.0098580
 101.7825710  88.6079460  31.1153430 103.4799890  88.3723560  30.8995460
 104.0940300  88.6902850  30.2376540 104.0249450  87.8872150  31.5191320
 109.8975070 104.2715190  28.3057300 109.4033350 104.6684060  27.5884430
 109.2888360 103.6464400  28.6994580  94.0021150  87.0517820  31.0134520
  94.5504140  86.8705870  30.2500630  94.0676460  86.2611930  31.5490830
  94.7752910 103.6423470  29.0234720  94.1813230 103.5108170  29.7624760
  94.7676750 102.8061610  28.5576820 104.2207930  86.9355700  27.2264750
 103.3467770  87.2690810  27.0237680 104.1118680  86.4628880  28.0516620
 105.1279910  89.1426570  28.6106470 104.7993270  88.3278330  28.2308200
 106.0762210  89.0996380  28.4872160 107.5814520 104.9138610  25.5844040
 107.1217490 105.6654420  25.2102060 106.9526980 104.1945080  25.5258840
  94.4065140 101.0081850  27.9742760  93.6799200 100.3887140  27.9068710
  94.4674290 101.4022460  27.1040840  98.0110240 103.2226850  24.7592170
  98.5275260 102.6114210  24.2340430  98.6607620 103.7255630  25.2503180
 100.7505740 104.1135340  25.5861150 101.0383550 103.8589640  24.7094160
 101.2628960 103.5612700  26.1766720 101.9682750  87.8525540  26.1657660
 101.1854540  88.3271040  26.4454420 101.6745680  86.9480370  26.0570840
 106.5203820  88.5548640  24.2106750 106.9611910  88.4993740  23.3628350
 106.2511410  89.4706650  24.2816930 108.3842390  88.1863880  22.2215570
 108.3230790  87.2425100  22.0746590 109.1634420  88.2943970  22.7669030
  92.6895140 104.3256240  21.1839520  92.5217180 103.6926920  21.8821410
  91.8229650 104.5315640  20.8333710  93.3123160  88.1573020  18.6871380
  94.0702520  88.2701900  18.1135410  92.8500330  88.9942220  18.6414810
  99.8536970  90.2712290  21.6773690  99.0411480  89.8969180  21.3369570
 100.3578610  89.5157370  21.9794880 104.3561950  86.9354740  22.9156760
 104.9591320  87.5074950  23.3905280 103.6154940  87.4994180  22.6930660
 107.4996550  87.3376300  18.1897040 107.6947180  88.2359750  18.4564470
 106.7126420  87.1063380  18.6829990  94.2957840 103.0189470  18.6289660
  93.7705460 103.3997500  17.9251620  94.2202420 103.6440240  19.3499370
  95.6848310  88.6837070  17.2273350  96.2141070  87.8966870  17.0981300
  96.3176630  89.3628260  17.4608880  97.8786150  88.4212210  20.2818740
  97.2488890  87.7199520  20.4488870  97.3391290  89.1816340  20.0651900
 100.8178100 105.0351440  32.9529350 101.7445410 104.7995710  32.9965310
 100.8028530 105.8623440  32.4715380 109.0523160 104.5777010  19.9503600
 109.2275350 103.8914750  19.3064520 108.3544730 105.1024060  19.5580270
  98.0041710  87.6996190  32.7171230  97.7225980  88.2029790  31.9532050
  98.3861410  86.9017940  32.3513360  96.8950810 104.9671850  17.5038910
  97.6269630 104.6831130  16.9562800  97.1544480 104.7285130  18.3938290
  96.0565600 101.0836580  17.5085240  95.4274480 101.5521680  18.0571070
  96.1713430 100.2385800  17.9431430 104.6057170  87.1149770  33.2951700
 104.4922620  87.4344380  34.1903220 105.4226910  87.5162280  32.9988980
 107.3855660 104.2621300  32.7770390 108.1780980 103.7670530  32.5696350
 107.6788810 104.9411440  33.3846000 103.5115320  95.1342240   3.6586440
 103.4309370  94.2196850   3.3878150 103.0979740  95.6309310   2.9526150
 101.6433360  96.9121260   5.5395710 100.8675460  96.4321700   5.8294280
 102.2946290  96.2326910   5.3651870  95.6599190  97.2241070   6.4171470
  94.8284070  96.9689780   6.8167980  96.2680170  97.2951840   7.1529390
 105.6640790 101.3181450   4.3194840 105.2022320 100.5468690   4.6482010
 106.4766340 101.3447520   4.8247290  95.6400450 101.2581160   6.6129490
  95.9428490 100.3678900   6.4339710  96.3844040 101.8151380   6.3851740
  92.0324150  94.7848610   6.0853560  92.6040260  94.0170810   6.0857200
  92.0325690  95.0837370   5.1760170 101.8904100 103.6039460   3.9398830
 101.2715540 104.0596960   3.3693270 102.7455880 103.7590920   3.5388530
 101.0842350  99.5878450   5.5465870 101.0150630  98.6468390   5.3855000
 101.8462210  99.6779860   6.1188440  93.2749020  90.1932970   7.8722490
  93.0951860  89.2958720   8.1525250  92.8729100  90.7404840   8.5469440
 102.1147520  92.3948830   5.7734800 102.4912340  91.5220710   5.6608470
 102.0167030  92.7307530   4.8825240 105.8971640  89.8899270   2.7063140
 106.7181260  89.3995840   2.7488620 105.9305720  90.4796930   3.4594980
  93.8935690  92.6893470   6.4804830  94.5745800  92.9531840   7.0992230
  93.5783740  91.8494340   6.8142840  98.0860260  93.7360830   5.5677420
  98.5938480  94.2341800   6.2082440  98.6173500  92.9596030   5.3916780
 110.1871190  91.9066020   9.2706770 109.4823360  92.2947730   8.7521880
 110.4529110  92.6016310   9.8727700  96.3696360  88.3759390   9.8340840
  96.3714800  88.8931780   9.0286740  95.5400670  87.8989570   9.8110770
  97.6199210  98.0154570   8.0114340  97.2868590  98.6423490   8.6535410
  97.7965890  98.5416450   7.2316010 106.1333120  91.8299650   5.4790680
 105.4288690  92.1184540   6.0593790 106.4945280  92.6399760   5.1190240
  96.0511690  90.0869350   7.8411290  96.3928500  90.9311400   7.5465160
  95.1127500  90.2353090   7.9576630  96.8318310  99.9835370   9.8263520
  97.4492310 100.6586450   9.5447970  95.9711430 100.3923350   9.7351020
 107.7495900 101.4474780   7.7418160 107.0659420 102.1173890   7.7334830
 108.2890190 101.6455430   6.9763020 109.2020040  91.2754440   5.8699890
 108.2544950  91.3093420   6.0015320 109.5270030  92.0893390   6.2549250
  99.7339580  87.5751620   4.1655880 100.0414560  87.0198510   3.4491380
  98.8040280  87.7096080   3.9828870 105.2854640 103.2918910   6.4563340
 105.2981800 102.8881200   5.5885600 104.7329860 104.0666200   6.3524770
 104.6840080  98.1948750   7.7845950 105.1008870  97.9808860   6.9499410
 105.4079900  98.4521540   8.3554570 108.6302180  96.5935970   7.8762190
 107.8020810  96.6629060   7.4012320 109.2252660  97.1790280   7.4078020
 105.5944190  93.3805290   8.8217060 105.1815370  94.2059000   9.0757050
 104.8620140  92.7950330   8.6293420  97.7276980  96.1665190   3.6835730
  97.3233980  95.4542440   3.1881630  97.8140100  95.8218430   4.5723770
  98.1958680  99.8532750   5.8474940  97.8986970  99.2478220   5.1682720
  99.1458500  99.8910060   5.7364300  96.4405600  92.9408400   7.4634770
  96.9920190  93.0503740   6.6888020  96.9549110  93.3146000   8.1790000
 106.2844290 103.4264620   9.5098040 105.8074850 104.2336810   9.3170650
 105.6006080 102.7742950   9.6624250  97.2877110  99.5914440  12.4982740
  96.3905640  99.8154410  12.7456140  97.3129980  99.7149380  11.5494140
  96.1148330  96.4627760  11.0740110  95.9756100  97.3350560  11.4427510
  95.2329690  96.1200570  10.9288050 102.4377710 101.3803630   2.3805240
 102.8773620 102.1227960   1.9660630 102.3764600 101.6230200   3.3044200
  97.9128680 102.4049460  13.2825260  97.8844110 102.8092410  12.4153690
  97.7493650 101.4759820  13.1196860 109.8643500 103.1876560  14.5789430
 110.3403220 103.6659450  15.2578510 110.4850660 103.1194050  13.8534930
  92.0666980  98.2325310   6.9911020  92.1447400  98.3674080   6.0466740
  92.6808660  97.5241200   7.1839140  93.3114610  99.9325500   3.4017200
  92.9042690 100.0740090   2.5470800  94.2027620  99.6485660   3.1988410
 109.2676750 100.3789410  11.7389440 109.3939810 100.1401290  10.8206620
 109.3098130  99.5473950  12.2111520 103.1293490 104.0817410  10.3084250
 103.6438160 103.9925420  11.1106680 102.2862570 104.4277110  10.6012160
 104.3723950 103.5023020   2.3714740 104.8280900 102.7212400   2.6853360
 104.7116470 104.2129840   2.9155920 109.1200760  92.4321870  12.7039180
 108.5045030  92.9401540  12.1754640 108.7997180  91.5320200  12.6465120
  92.1226500  99.2739480   9.5305480  92.2857540  98.8044840   8.7124850
  92.5878950  98.7663040  10.1954320  96.8945270  88.4045240   4.5666050
  96.4513420  89.1854780   4.2350570  97.4530260  88.7275130   5.2736990
 101.1815080  91.2713760  10.1701370 100.7194450  91.4796780  10.9821310
 100.7793190  90.4573110   9.8672040 106.1819590  92.4922710  11.2998030
 105.3313180  92.1928460  11.6207100 106.0221380  92.7364720  10.3881850
 103.2769300  93.9924460  13.3996820 103.6022710  93.1588210  13.0599050
 104.0649630  94.5152980  13.5475150  98.9321170  88.9492570   6.4255650
  99.2293500  89.8555400   6.3447670  99.4806730  88.4611350   5.8115220
  96.6859490  93.5278810   2.2947300  96.4600410  93.3115980   3.1993920
  95.9052020  93.9607270   1.9493270  99.1258700  94.4264390  12.9607570
  99.0302300  93.4859120  12.8107970  99.9690680  94.6479460  12.5655640
 102.5222120  92.1705720   2.9241230 102.9151690  92.4877920   2.1109920
 102.8838970  91.2917600   3.0385750  94.2569240  90.8378060  11.1141350
  93.8632630  91.6853270  11.3214130  93.5687640  90.2004430  11.3049990
 100.8314290  90.9213030  14.1838090 100.1412610  90.7285230  14.8184180
 101.5746590  91.2047670  14.7162390  91.5586290  88.7606520   5.1471430
  91.2699340  89.3309380   5.8596410  92.3032050  88.2810970   5.5102660
 103.1077260  94.7611470   7.0192010 102.3758380  95.2698280   7.3682110
 102.7101600  93.9441450   6.7180790  99.5454650  91.4365670   5.4244500
  99.5490710  90.9955620   4.5749040 100.4405770  91.7583000   5.5316320
  95.3957030  91.3192160   4.3838710  95.0557080  91.7967390   5.1405760
  94.6334350  90.8657280   4.0239810 103.5703170  90.2145150   6.4314950
 103.5875910  90.6653800   7.2756800 103.3218750  89.3150790   6.6448390
 106.9973920  87.6277330  12.2701330 107.3219690  86.8966990  12.7959310
 107.0330430  87.3090970  11.3682320  93.6965480  98.6490910  11.6901290
  93.3120270  98.0084580  12.2884250  94.0077670  99.3527030  12.2596020
  99.8462620  95.4967450   7.1709910 100.2132750  95.0226020   7.9171250
  99.6567680  96.3709020   7.5118250  92.7103110  90.2411140   3.3003380
  92.4250030  89.8766810   4.1382000  92.6481970  89.5091600   2.6866520
  97.6361990  94.5376090   9.4894120  97.3319060  95.4168070   9.7144480
  98.5908450  94.5975880   9.5251560 106.9231760  97.7402440   5.8787360
 107.6430880  98.2357730   5.4883470 106.7213580  97.0620330   5.2341230
 102.3050560  97.8111500  11.7656360 102.2387870  96.8907170  11.5113950
 101.6755700  97.9086940  12.4801000  96.2081180  98.4117460   3.7239780
  96.7259850  97.6085720   3.6696670  95.7565200  98.3496600   4.5656610
  93.6925720  95.3778830  10.6365480  93.3340660  96.0432680  11.2238820
  93.3980280  94.5462380  11.0078100  96.8938840  95.8363070  13.5205030
  96.5938980  95.9820250  12.6232850  97.6650080  95.2768360  13.4278420
 102.2367290 100.6332070  11.5160160 102.2511830  99.7013030  11.2979070
 101.5292390 100.7191830  12.1549930 108.4478500  97.2739410  10.8628740
 107.7226690  97.8668190  10.6658130 108.9753960  97.2662950  10.0642110
 103.9778090  98.9999580   4.3612590 104.3301910  98.4027710   3.7013960
 103.0940420  98.6743810   4.5320840 100.0641370  99.7597270   1.7683000
 100.7512500 100.3066480   2.1490590  99.2773790 100.3038000   1.8032610
 101.6701190 102.2749640   8.6100660 102.3143410 102.4809020   9.2874080
 102.0330630 101.5138040   8.1571510 102.9433270 100.2781990   7.3278110
 103.5855500  99.5775150   7.4410280 103.4682620 101.0580430   7.1475000
 104.7170890 101.0776890  10.5314170 105.0527130 101.6643580  11.2092090
 103.7971230 100.9469600  10.7611960  92.2674290  88.8672070  11.3137580
  91.5532810  89.0668990  11.9190190  92.6869330  88.0911640  11.6852380
  92.5546880 102.8552330  12.3004110  92.6638000 101.9147070  12.1599500
  91.9027440 103.1207080  11.6517840 100.5459470 101.1268220  13.7002230
 100.2256340 100.4077460  14.2447920  99.8717830 101.8023290  13.7738290
 103.7613070  91.3594380   9.0639030 104.1293890  90.5389590   9.3918600
 102.9011270  91.4196270   9.4794680 100.7215060  94.0133970   9.2877000
 101.2200310  94.4879790   9.9528850 100.8638010  93.0897490   9.4947030
 103.1274560  89.3187930   2.7280260 103.0042340  89.3374060   1.7789770
 104.0759120  89.3666870   2.8478660 107.9281920  90.2301930  10.1305390
 107.4255520  90.9707330  10.4699200 108.7438580  90.6185930   9.8142180
 106.2203930  95.4735110   3.5766750 105.2794070  95.4885340   3.7514440
 106.5348000  94.6871070   4.0227050 108.2229510 102.6443960   5.2521010
 108.3476930 103.4675130   5.7244820 109.0895070 102.4334690   4.9045160
  95.6947040 104.7375170   4.9238140  96.4309520 104.1890630   5.1946710
  96.0787960 105.6031180   4.7844130  94.7005320 103.9221240  14.1123720
  95.5018050 104.2433290  14.5259120  94.1857140 103.5616820  14.8343630
 103.5369950 100.0301110  14.0599130 102.9308110 100.0532710  13.3194880
 103.2324060  99.2984150  14.5966380 104.9670320 103.7581400  12.6708540
 105.9192070 103.6739420  12.6208780 104.8198540 104.4223110  13.3442330
  92.4203130  96.4094700  13.0559770  92.9242150  95.8301980  13.6276000
  91.6810550  96.6934930  13.5936140  99.4741070  97.8165690  12.5895290
  98.7086740  98.3850690  12.5049960  99.6557030  97.5241900  11.6963520
 106.6164420  99.5471020  13.1470310 107.3573890  99.8846780  12.6437770
 105.8537100  99.7163080  12.5940080  94.4526210  94.5524290  13.9509840
  94.4931550  94.2538160  14.8595070  95.3071710  94.9531900  13.7917360
  96.3932020  93.1316390  11.9184330  95.8628480  92.6407340  11.2907670
  97.0620090  93.5600590  11.3842260 105.2910080  97.5985850  11.6825520
 105.7051100  97.7530930  12.5315940 104.3561080  97.7241070  11.8451300
 105.7632250  94.9382010  13.6864670 106.3453020  94.1834330  13.5985150
 105.9394020  95.4689450  12.9096150  96.8804320  90.0978760  11.9981620
  96.7861190  89.4799510  11.2732490  96.3001710  90.8245050  11.7711530
  99.6465760  88.6552000   9.0309010  99.1983060  88.6776260   8.1854560
  99.0130960  88.2571020   9.6279310 100.0525310  97.5506330   9.6521450
 100.4713420  98.3939060   9.4797690  99.1333940  97.6878370   9.4228230
 102.3889210  95.2822510  11.0359290 102.5085420  94.6863650  11.7754130
 103.2483210  95.3192200  10.6160590 104.7277110  95.8359700   9.6121800
 104.2012330  96.3602320   9.0086940 105.0708450  96.4687090  10.2431530
  97.9032730 103.8559340  10.7679180  97.3653820 104.5805400  10.4487880
  98.1566690 103.3789680   9.9776520  99.1557980  91.8243860  12.2935110
  99.7457670  91.5159710  12.9812930  98.3378220  91.3523610  12.4495010
 103.9751410  91.4409670  12.5268130 103.2866930  90.7791210  12.4618120
 104.6957430  90.9947940  12.9716590 100.7594940 105.0910550  11.0265830
 100.6853640 105.9945690  11.3338200  99.8573780 104.7722450  10.9987900
  92.1622230 102.4185140   4.3299450  92.4925240 101.5506200   4.0978090
  92.5913230 102.6243660   5.1604410  92.6512440 103.2855730   7.0681080
  92.2143430 103.4656530   7.9005230  93.2190120 104.0430350   6.9262800
 108.2874620 102.7872730  11.3558390 107.6876610 102.8465290  10.6122310
 108.4168520 101.8477710  11.4855240  92.4836870  95.7975960   3.4269960
  91.8285710  95.5287600   2.7829660  93.3214820  95.6880440   2.9771940
 109.9892500  98.1288130   4.0404230 110.3601330  97.3455450   3.6340200
 110.6294430  98.8177230   3.8621530 106.9726260  99.5124710   9.4534550
 106.1586100  99.9421870   9.7160340 107.3800460 100.1243120   8.8403600
  93.5212800  96.1828530   7.9673300  93.8885840  96.0955930   8.8469320
  92.9523620  95.4195080   7.8680160 108.3216660  94.6512910  10.9803770
 108.0902750  94.4225660  10.0801720 108.5821210  95.5712460  10.9348660
  93.0728800  93.0937620  11.8731720  92.1784850  93.0604380  12.2125430
  93.6126350  93.2924410  12.6382970 106.7604730  89.8769340  13.7583470
 107.6374910  89.8852740  14.1417470 106.7725570  89.1400180  13.1475820
 108.2068000  93.7298880   4.6471490 108.7305480  93.2361530   4.0161660
 108.7927420  93.8649240   5.3919060 108.3857720  93.8138750   8.1691040
 107.4360430  93.7802290   8.2836030 108.5670730  94.7238860   7.9340810
  93.5768510  87.3685950   6.2214940  94.2244700  86.8183330   5.7810100
  93.9970350  87.6229100   7.0430750 109.1255130  91.6233180   3.1201580
 109.0154410  91.4689220   4.0583850 109.8862720  91.0954120   2.8776990
 107.4720850  87.5627310   9.5784580 108.1093070  88.1761450   9.9443770
 107.6195740  87.5987970   8.6333810 107.0302310 104.2643310   2.9802820
 107.6261380 103.9427880   2.3037240 107.2880460 103.7915130   3.7716090
  93.3300510  87.5241620   8.9640260  92.9815330  87.9805440   9.7298440
  92.9988210  86.6298750   9.0462690  94.9364880 100.6961220  13.1293450
  94.8934510 100.3254130  14.0107910  95.0675890 101.6338790  13.2695270
  98.6370910 102.2520810   8.7303170  98.3962270 102.5195370   7.8433690
  99.5773550 102.4226540   8.7854030 100.8425330  88.7153500  12.4859680
 100.7814220  89.3075330  13.2355090 101.7825710  88.6079460  12.3409940
 103.4799890  88.3723560  12.1251970 104.0940300  88.6902850  11.4633050
 104.0249450  87.8872150  12.7447830 109.8975070 104.2715190   9.5313810
 109.4033350 104.6684060   8.8140940 109.2888360 103.6464400   9.9251090
  94.0021150  87.0517820  12.2391030  94.5504140  86.8705870  11.4757140
  94.0676460  86.2611930  12.7747340  94.7752910 103.6423470  10.2491230
  94.1813230 103.5108170  10.9881270  94.7676750 102.8061610   9.7833330
 104.2207930  86.9355700   8.4521260 103.3467770  87.2690810   8.2494190
 104.1118680  86.4628880   9.2773130 105.1279910  89.1426570   9.8362980
 104.7993270  88.3278330   9.4564710 106.0762210  89.0996380   9.7128670
 107.5814520 104.9138610   6.8100550 107.1217490 105.6654420   6.4358570
 106.9526980 104.1945080   6.7515350  94.4065140 101.0081850   9.1999270
  93.6799200 100.3887140   9.1325220  94.4674290 101.4022460   8.3297350
  98.0110240 103.2226850   5.9848680  98.5275260 102.6114210   5.4596940
  98.6607620 103.7255630   6.4759690 100.7505740 104.1135340   6.8117660
 101.0383550 103.8589640   5.9350670 101.2628960 103.5612700   7.4023230
 101.9682750  87.8525540   7.3914170 101.1854540  88.3271040   7.6710930
 101.6745680  86.9480370   7.2827350 106.5203820  88.5548640   5.4363260
 106.9611910  88.4993740   4.5884860 106.2511410  89.4706650   5.5073440
 108.3842390  88.1863880   3.4472080 108.3230790  87.2425100   3.3003100
 109.1634420  88.2943970   3.9925540  92.6895140 104.3256240   2.4096030
  92.5217180 103.6926920   3.1077920  91.8229650 104.5315640   2.0590220
  99.8536970  90.2712290   2.9030200  99.0411480  89.8969180   2.5626080
 100.3578610  89.5157370   3.2051390 104.3561950  86.9354740   4.1413270
 104.9591320  87.5074950   4.6161790 103.6154940  87.4994180   3.9187170
 100.8178100 105.0351440  14.1785860 101.7445410 104.7995710  14.2221820
 100.8028530 105.8623440  13.6971890  98.0041710  87.6996190  13.9427740
  97.7225980  88.2029790  13.1788560  98.3861410  86.9017940  13.5769870
 104.6057170  87.1149770  14.5208210 104.4922620  87.4344380  15.4159730
 105.4226910  87.5162280  14.2245490 107.3855660 104.2621300  14.0026900
 108.1780980 103.7670530  13.7952860 107.6788810 104.9411440  14.6102510
 103.5115320  76.3598750  97.5303890 103.4309370  75.4453360  97.2595600
 103.0979740  76.8565820  96.8243600 101.6433360  78.1377770  99.4113160
 100.8675460  77.6578210  99.7011730 102.2946290  77.4583420  99.2369320
  95.6599190  78.4497580 100.2888920  94.8284070  78.1946290 100.6885430
  96.2680170  78.5208350 101.0246840 105.6640790  82.5437960  98.1912290
 105.2022320  81.7725200  98.5199460 106.4766340  82.5704030  98.6964740
  95.6400450  82.4837670 100.4846940  95.9428490  81.5935410 100.3057160
  96.3844040  83.0407890 100.2569190  94.0691140  73.4099470  94.0731310
  93.1807840  73.7515440  93.9711190  94.3532330  73.2099790  93.1812140
  92.0324150  76.0105120  99.9571010  92.6040260  75.2427320  99.9574650
  92.0325690  76.3093880  99.0477620 101.8904100  84.8295970  97.8116280
 101.2715540  85.2853470  97.2410720 102.7455880  84.9847430  97.4105980
 101.0842350  80.8134960  99.4183320 101.0150630  79.8724900  99.2572450
 101.8462210  80.9036370  99.9905890  93.2749020  71.4189480 101.7439940
  93.0951860  70.5215230 102.0242700  92.8729100  71.9661350 102.4186890
 102.1147520  73.6205340  99.6452250 102.4912340  72.7477220  99.5325920
 102.0167030  73.9564040  98.7542690  96.2452530  71.9930970  95.1069690
  96.3519280  72.8934700  95.4138450  95.3344890  71.9448940  94.8164340
 105.8971640  71.1155780  96.5780590 106.7181260  70.6252350  96.6206070
 105.9305720  71.7053440  97.3312430  93.8935690  73.9149980 100.3522280
  94.5745800  74.1788350 100.9709680  93.5783740  73.0750850 100.6860290
  98.0860260  74.9617340  99.4394870  98.5938480  75.4598310 100.0799890
  98.6173500  74.1852540  99.2634230 102.7567450  79.7135210  95.2048190
 102.1384720  80.1784660  94.6410910 103.2690700  80.4062690  95.6217700
  97.6199210  79.2411080 101.8831790  97.2868590  79.8680000 102.5252860
  97.7965890  79.7672960 101.1033460 106.1333120  73.0556160  99.3508130
 105.4288690  73.3441050  99.9311240 106.4945280  73.8656270  98.9907690
  96.0511690  71.3125860 101.7128740  96.3928500  72.1567910 101.4182610
  95.1127500  71.4609600 101.8294080  92.1250650  80.3991740  92.5787820
  91.7478630  80.8878840  91.8472720  92.3823720  81.0717020  93.2094350
 107.7495900  82.6731290 101.6135610 107.0659420  83.3430400 101.6052280
 108.2890190  82.8711940 100.8480470 109.2020040  72.5010950  99.7417340
 108.2544950  72.5349930  99.8732770 109.5270030  73.3149900 100.1266700
  99.7339580  68.8008130  98.0373330 100.0414560  68.2455020  97.3208830
  98.8040280  68.9352590  97.8546320 105.2854640  84.5175420 100.3280790
 105.2981800  84.1137710  99.4603050 104.7329860  85.2922710 100.2242220
 106.5800060  81.2391640  95.4170960 106.4696390  80.2965970  95.5420380
 106.5768310  81.6007280  96.3033720 104.6840080  79.4205260 101.6563400
 105.1008870  79.2065370 100.8216860 105.4079900  79.6778050 102.2272020
 102.1220340  76.8656960  94.7733450 101.1949620  76.7994340  95.0021920
 102.2745160  77.8037090  94.6588690 102.1089420  73.1373960  91.7700610
 101.1693090  73.2987920  91.8553070 102.4272680  73.8559640  91.2236600
 108.6302180  77.8192480 101.7479640 107.8020810  77.8885570 101.2729770
 109.2252660  78.4046790 101.2795470 106.1517630  78.4277260  95.2768700
 105.5330050  78.0896810  94.6295000 106.1342080  77.7837020  95.9847890
  97.7276980  77.3921700  97.5553180  97.3233980  76.6798950  97.0599080
  97.8140100  77.0474940  98.4441220  98.1958680  81.0789260  99.7192390
  97.8986970  80.4734730  99.0400170  99.1458500  81.1166570  99.6081750
  96.4405600  74.1664910 101.3352220  96.9920190  74.2760250 100.5605470
  96.9549110  74.5402510 102.0507450 104.3282330  77.6664070  92.2841450
 104.7675610  76.8286500  92.1379270 105.0410750  78.2993470  92.3705590
 102.4377710  82.6060140  96.2522690 102.8773620  83.3484470  95.8378080
 102.3764600  82.8486710  97.1761650 107.9099470  68.9206880  90.5982490
 107.5972130  69.0133710  91.4981560 108.6711940  69.4987910  90.5479920
  94.4281610  76.2866680  95.0559830  94.3079210  77.0128770  94.4441100
  94.1182500  75.5169590  94.5787740  92.0666980  79.4581820 100.8628470
  92.1447400  79.5930590  99.9184190  92.6808660  78.7497710 101.0556590
  93.3114610  81.1582010  97.2734650  92.9042690  81.2996600  96.4188250
  94.2027620  80.8742170  97.0705860 105.1047890  85.5929260  93.6085700
 104.9449030  85.3032200  94.5067530 104.9394600  84.8169390  93.0730930
  97.5836270  85.3727790  95.3857320  97.4078750  84.4563330  95.1725120
  96.7292010  85.7315080  95.6255120 104.8074020  83.1016820  92.1683700
 104.1139180  83.0994110  91.5085980 105.5496880  82.6776140  91.7377870
 104.3723950  84.7279530  96.2432190 104.8280900  83.9468910  96.5570810
 104.7116470  85.4386350  96.7873370  96.8945270  69.6301750  98.4383500
  96.4513420  70.4111290  98.1068020  97.4530260  69.9531640  99.1454440
 100.0104090  69.2512450  93.3189330  99.3858270  69.2472320  94.0442640
  99.9234210  68.3843410  92.9225300  98.9321170  70.1749080 100.2973100
  99.2293500  71.0811910 100.2165120  99.4806730  69.6867860  99.6832670
  96.6859490  74.7535320  96.1664750  96.4600410  74.5372490  97.0711370
  95.9052020  75.1863780  95.8210720 103.9157250  74.7598690  94.7655400
 103.3166140  75.4834490  94.5819020 104.4636860  74.6975470  93.9831850
 102.5222120  73.3962230  96.7958680 102.9151690  73.7134430  95.9827370
 102.8838970  72.5174110  96.9103200  91.5586290  69.9863030  99.0188880
  91.2699340  70.5565890  99.7313860  92.3032050  69.5067480  99.3820110
  91.7456520  73.9283150  90.2291600  91.6631190  74.8713910  90.3706590
  91.3939580  73.7858060  89.3503950 103.1077260  75.9867980 100.8909460
 102.3758380  76.4954790 101.2399560 102.7101600  75.1697960 100.5898240
  99.5454650  72.6622180  99.2961950  99.5490710  72.2212130  98.4466490
 100.4405770  72.9839510  99.4033770  95.3957030  72.5448670  98.2556160
  95.0557080  73.0223900  99.0123210  94.6334350  72.0913790  97.8957260
  99.6074800  73.6634260  92.2868710  99.7287620  73.6220740  93.2354530
  99.2223310  74.5258410  92.1315440 103.5703170  71.4401660 100.3032400
 103.5875910  71.8910310 101.1474250 103.3218750  70.5407300 100.5165840
  98.6196300  75.9735400  91.6852010  98.0513200  75.5253650  91.0587920
  99.3285300  76.3328180  91.1517160  99.8462620  76.7223960 101.0427360
 100.2132750  76.2482530 101.7888700  99.6567680  77.5965530 101.3835700
  92.7103110  71.4667650  97.1720830  92.4250030  71.1023320  98.0099450
  92.6481970  70.7348110  96.5583970  96.1643780  79.9693590  93.9578420
  95.3906040  79.4291210  93.7977140  96.8938410  79.4500200  93.6196180
 106.9231760  78.9658950  99.7504810 107.6430880  79.4614240  99.3600920
 106.7213580  78.2876840  99.1058680 102.3841700  70.3596910  93.8934200
 101.5706310  69.8610080  93.8179510 102.1903650  71.1995160  93.4770550
 105.0990090  74.7316560  92.1896360 105.9869710  75.0433790  92.0147700
 105.0695180  73.8588810  91.7976940  96.2081180  79.6373970  97.5957230
  96.7259850  78.8342230  97.5414120  95.7565200  79.5753110  98.4374060
 101.0950680  80.9040250  92.8684530 101.4366380  81.6482480  92.3727850
 100.2663390  81.2171370  93.2309360 107.3704360  76.0428400  91.6576220
 107.2868080  76.4742620  90.8072660 108.0898550  76.5026750  92.0903040
 108.3991610  82.8970660  94.3858350 107.7567770  82.2426280  94.6602070
 108.0122270  83.3025750  93.6099020 103.9778090  80.2256090  98.2330040
 104.3301910  79.6284220  97.5731410 103.0940420  79.9000320  98.4038290
 100.0641370  80.9853780  95.6400450 100.7512500  81.5322990  96.0208040
  99.2773790  81.5294510  95.6750060  92.2033770  76.6026600  91.1317530
  93.0728620  76.8851400  91.4153450  91.7124090  77.4162470  91.0166340
  99.3668580  77.9899810  95.2525810  99.8231360  78.8005060  95.4786000
  99.0156790  77.6722950  96.0844300  95.2680360  68.3337460  95.7248330
  95.1394990  68.3255360  96.6733250  94.4442380  68.6720550  95.3739340
 102.9433270  81.5038500 101.1995560 103.5855500  80.8031660 101.3127730
 103.4682620  82.2836940 101.0192450 106.7888990  81.7887120  90.9234700
 106.5626570  81.0717560  91.5159340 106.3985190  81.5399560  90.0856450
  92.5705020  85.8153980  91.6979160  92.9302660  86.4143320  91.0436430
  92.4297360  86.3613870  92.4714190 106.3705240  79.7059060  92.5848860
 106.0826940  80.1671750  93.3726740 107.1657410  79.2456830  92.8533080
  98.5873640  83.1985180  92.5152830  98.5783740  83.9314870  91.8997340
  97.6672000  82.9516760  92.6079790  94.1880280  78.4200070  93.2599590
  93.5808230  79.1598970  93.2694890  94.6629630  78.5099430  92.4337790
 107.1275100  71.5407830  93.7444040 106.4988260  71.6453500  93.0302270
 106.6327020  71.7604610  94.5337920 101.5733240  83.2613420  91.1778020
 101.6745220  83.0577410  90.2480000 100.6734980  83.0071700  91.3825800
  99.0959130  73.8193780  95.1601920  98.3875280  74.2880120  95.6015530
  99.3803610  73.1615790  95.7947110 103.1274560  70.5444440  96.5997710
 103.0042340  70.5630570  95.6507220 104.0759120  70.5923380  96.7196110
 100.2151350  85.7799740  95.8725690 100.4692850  85.7421130  94.9505060
  99.2663830  85.6533070  95.8653940  97.2994150  72.1278860  92.5352630
  98.1484680  72.5649010  92.4692820  96.9325420  72.4399120  93.3624690
 106.2203930  76.6991620  97.4484200 105.2794070  76.7141850  97.6231890
 106.5348000  75.9127580  97.8944500  96.1985570  78.3811220  91.0088160
  96.9648840  78.2692580  91.5713590  96.2760260  77.6849190  90.3564930
  94.8932330  75.8136290  91.6921050  94.9735920  74.8663800  91.8038450
  95.7852080  76.1443170  91.7981710 108.2229510  83.8700470  99.1238460
 108.3476930  84.6931640  99.5962270 109.0895070  83.6591200  98.7762610
  95.6947040  85.9631680  98.7955590  96.4309520  85.4147140  99.0664160
  96.0787960  86.8287690  98.6561580  92.5792520  82.0305250  94.6697100
  91.6532300  82.2726390  94.6602510  93.0448950  82.8579510  94.5481850
  98.8049350  85.1361990  90.6181160  99.5977960  85.4250820  90.1662950
  98.2853700  84.7054160  89.9393640 107.8579520  84.3632120  92.0417900
 107.5721030  83.9497260  91.2272080 107.6599070  85.2919830  91.9218420
  99.3226750  80.3565400  90.4823510  99.2177390  79.7417750  91.2084890
  99.1550970  79.8331290  89.6986520 102.5629480  79.4185430  91.0865500
 102.0139580  79.8654730  91.7308240 103.1848740  78.9134680  91.6103170
  98.2304600  78.3776350  92.9830800  98.6521020  78.2116220  93.8262190
  98.3555440  77.5676580  92.4885940 100.7432240  77.4013960  90.2307900
 101.2637900  76.6862980  89.8649050 101.3900640  78.0399830  90.5308410
  97.1263500  74.4509580  89.9288960  96.9252560  73.5876940  90.2902300
  96.9555550  74.3642940  88.9910560 104.6051810  69.2617810  92.4575840
 104.8854100  68.4185710  92.8135260 103.8317540  69.4940920  92.9714590
  95.9246300  71.5510200  89.9166840  96.2272200  71.5577630  89.0085990
  96.6640890  71.2008060  90.4134500  99.1431230  70.4944820  90.9023040
  98.7953230  69.8168810  90.3225490  99.3444000  70.0334330  91.7166430
 101.3080270  85.4825570  92.5209640 102.2031060  85.8210540  92.5428400
 101.3397900  84.7604980  91.8933920  94.9476430  80.8552620  90.7496640
  95.3851300  81.3982290  91.4054220  95.4324160  80.0299570  90.7592980
  92.1622230  83.6441650  98.2016900  92.4925240  82.7762710  97.9695540
  92.5913230  83.8500170  99.0321860  96.7584150  81.9750660  95.8618870
  96.4579690  81.8515630  96.7622780  96.6521640  81.1159250  95.4534600
  92.6512440  84.5112240 100.9398530  92.2143430  84.6913040 101.7722680
  93.2190120  85.2686860 100.7980250 109.5276070  81.7547060  90.5645550
 108.6969030  81.8223710  91.0352780 109.7047900  82.6451180  90.2612410
 108.9832530  78.4994540  93.0679750 109.7451440  79.0691190  93.1739440
 108.9986900  77.9321740  93.8388060  92.4836870  77.0232470  97.2987410
  91.8285710  76.7544110  96.6547110  93.3214820  76.9136950  96.8489390
 109.9892500  79.3544640  97.9121680 110.3601330  78.5711960  97.5057650
 110.6294430  80.0433740  97.7338980 109.0351700  78.7928910  90.2252270
 109.3100540  79.7007790  90.0971490 108.8462440  78.7291440  91.1614260
 105.4327310  71.8173760  91.5205900 105.8512190  71.6304740  90.6802560
 105.1263370  70.9652810  91.8308830 108.9317040  76.7297900  95.2181700
 108.5560640  75.9625830  94.7862990 108.2020160  77.1120600  95.7056630
  93.5212800  77.4085040 101.8390750  93.8885840  77.3212440 102.7186770
  92.9523620  76.6451590 101.7397610  91.6974950  74.2331400  93.2412740
  90.7939030  74.4961600  93.0664400  92.1815570  74.5042570  92.4612700
 108.2068000  74.9555390  98.5188940 108.7305480  74.4618040  97.8879110
 108.7927420  75.0905750  99.2636510 108.3857720  75.0395260 102.0408490
 107.4360430  75.0058800 102.1553480 108.5670730  75.9495370 101.8058260
  94.2402160  73.2896940  91.1507120  94.9493860  72.8680160  90.6654400
  93.5242100  73.3572170  90.5190470  93.8876320  69.3436270  90.1909770
  94.6104450  69.8845210  90.5090990  94.1600840  69.0699690  89.3151310
 107.6967970  74.2128740  94.4581350 108.1927090  73.9799610  95.2430230
 107.4984040  73.3740580  94.0418990  93.5768510  68.5942460 100.0932390
  94.2244700  68.0439840  99.6527550  93.9970350  68.8485610 100.9148200
 109.1255130  72.8489690  96.9919030 109.0154410  72.6945730  97.9301300
 109.8862720  72.3210630  96.7494440 110.0145400  70.6797610  90.2325170
 110.9394710  70.5478790  90.0243460 109.9921190  70.7590430  91.1861620
 110.0883890  71.4508270  92.8581880 109.2935390  71.3853390  93.3874790
 110.2927170  72.3858910  92.8467230 107.0302310  85.4899820  96.8520270
 107.6261380  85.1684390  96.1754690 107.2880460  85.0171640  97.6433540
  98.6370910  83.4777320 102.6020620  98.3962270  83.7451880 101.7151140
  99.5773550  83.6483050 102.6571480 107.5814520  86.1395120 100.6818000
 107.1217490  86.8910930 100.3076020 106.9526980  85.4201590 100.6232800
  98.0110240  84.4483360  99.8566130  98.5275260  83.8370720  99.3314390
  98.6607620  84.9512140 100.3477140 100.7505740  85.3391850 100.6835110
 101.0383550  85.0846150  99.8068120 101.2628960  84.7869210 101.2740680
 101.9682750  69.0782050 101.2631620 101.1854540  69.5527550 101.5428380
 101.6745680  68.1736880 101.1544800 106.5203820  69.7805150  99.3080710
 106.9611910  69.7250250  98.4602310 106.2511410  70.6963160  99.3790890
 108.3842390  69.4120390  97.3189530 108.3230790  68.4681610  97.1720550
 109.1634420  69.5200480  97.8642990  92.6895140  85.5512750  96.2813480
  92.5217180  84.9183430  96.9795370  91.8229650  85.7572150  95.9307670
  93.3123160  69.3829530  93.7845340  94.0702520  69.4958410  93.2109370
  92.8500330  70.2198730  93.7388770  99.8536970  71.4968800  96.7747650
  99.0411480  71.1225690  96.4343530 100.3578610  70.7413880  97.0768840
 104.3561950  68.1611250  98.0130720 104.9591320  68.7331460  98.4879240
 103.6154940  68.7250690  97.7904620 107.4996550  68.5632810  93.2871000
 107.6947180  69.4616260  93.5538430 106.7126420  68.3319890  93.7803950
  94.2957840  84.2445980  93.7263620  93.7705460  84.6254010  93.0225580
  94.2202420  84.8696750  94.4473330  95.6848310  69.9093580  92.3247310
  96.2141070  69.1223380  92.1955260  96.3176630  70.5884770  92.5582840
  97.8786150  69.6468720  95.3792700  97.2488890  68.9456030  95.5462830
  97.3391290  70.4072850  95.1625860 109.0523160  85.8033520  95.0477560
 109.2275350  85.1171260  94.4038480 108.3544730  86.3280570  94.6554230
  96.8950810  86.1928360  92.6012870  97.6269630  85.9087640  92.0536760
  97.1544480  85.9541640  93.4912250  96.0565600  82.3093090  92.6059200
  95.4274480  82.7778190  93.1545030  96.1713430  81.4642310  93.0405390
 103.5115320  76.3598750  78.7560400 103.4309370  75.4453360  78.4852110
 103.0979740  76.8565820  78.0500110 101.6433360  78.1377770  80.6369670
 100.8675460  77.6578210  80.9268240 102.2946290  77.4583420  80.4625830
  95.6599190  78.4497580  81.5145430  94.8284070  78.1946290  81.9141940
  96.2680170  78.5208350  82.2503350 105.6640790  82.5437960  79.4168800
 105.2022320  81.7725200  79.7455970 106.4766340  82.5704030  79.9221250
  95.6400450  82.4837670  81.7103450  95.9428490  81.5935410  81.5313670
  96.3844040  83.0407890  81.4825700  94.0691140  73.4099470  75.2987820
  93.1807840  73.7515440  75.1967700  94.3532330  73.2099790  74.4068650
  92.0324150  76.0105120  81.1827520  92.6040260  75.2427320  81.1831160
  92.0325690  76.3093880  80.2734130 101.8904100  84.8295970  79.0372790
 101.2715540  85.2853470  78.4667230 102.7455880  84.9847430  78.6362490
 101.0842350  80.8134960  80.6439830 101.0150630  79.8724900  80.4828960
 101.8462210  80.9036370  81.2162400  93.2749020  71.4189480  82.9696450
  93.0951860  70.5215230  83.2499210  92.8729100  71.9661350  83.6443400
 102.1147520  73.6205340  80.8708760 102.4912340  72.7477220  80.7582430
 102.0167030  73.9564040  79.9799200  96.2452530  71.9930970  76.3326200
  96.3519280  72.8934700  76.6394960  95.3344890  71.9448940  76.0420850
 105.8971640  71.1155780  77.8037100 106.7181260  70.6252350  77.8462580
 105.9305720  71.7053440  78.5568940  93.8935690  73.9149980  81.5778790
  94.5745800  74.1788350  82.1966190  93.5783740  73.0750850  81.9116800
  98.0860260  74.9617340  80.6651380  98.5938480  75.4598310  81.3056400
  98.6173500  74.1852540  80.4890740 110.1871190  73.1322530  84.3680730
 109.4823360  73.5204240  83.8495840 110.4529110  73.8272820  84.9701660
  96.3696360  69.6015900  84.9314800  96.3714800  70.1188290  84.1260700
  95.5400670  69.1246080  84.9084730 102.7567450  79.7135210  76.4304700
 102.1384720  80.1784660  75.8667420 103.2690700  80.4062690  76.8474210
  97.6199210  79.2411080  83.1088300  97.2868590  79.8680000  83.7509370
  97.7965890  79.7672960  82.3289970 106.1333120  73.0556160  80.5764640
 105.4288690  73.3441050  81.1567750 106.4945280  73.8656270  80.2164200
  96.0511690  71.3125860  82.9385250  96.3928500  72.1567910  82.6439120
  95.1127500  71.4609600  83.0550590  96.8318310  81.2091880  84.9237480
  97.4492310  81.8842960  84.6421930  95.9711430  81.6179860  84.8324980
  92.1250650  80.3991740  73.8044330  91.7478630  80.8878840  73.0729230
  92.3823720  81.0717020  74.4350860 107.7495900  82.6731290  82.8392120
 107.0659420  83.3430400  82.8308790 108.2890190  82.8711940  82.0736980
 109.2020040  72.5010950  80.9673850 108.2544950  72.5349930  81.0989280
 109.5270030  73.3149900  81.3523210  99.7339580  68.8008130  79.2629840
 100.0414560  68.2455020  78.5465340  98.8040280  68.9352590  79.0802830
 105.2854640  84.5175420  81.5537300 105.2981800  84.1137710  80.6859560
 104.7329860  85.2922710  81.4498730 106.5800060  81.2391640  76.6427470
 106.4696390  80.2965970  76.7676890 106.5768310  81.6007280  77.5290230
 104.6840080  79.4205260  82.8819910 105.1008870  79.2065370  82.0473370
 105.4079900  79.6778050  83.4528530 102.1220340  76.8656960  75.9989960
 101.1949620  76.7994340  76.2278430 102.2745160  77.8037090  75.8845200
 102.1089420  73.1373960  72.9957120 101.1693090  73.2987920  73.0809580
 102.4272680  73.8559640  72.4493110 108.6302180  77.8192480  82.9736150
 107.8020810  77.8885570  82.4986280 109.2252660  78.4046790  82.5051980
 106.1517630  78.4277260  76.5025210 105.5330050  78.0896810  75.8551510
 106.1342080  77.7837020  77.2104400 105.5944190  74.6061800  83.9191020
 105.1815370  75.4315510  84.1731010 104.8620140  74.0206840  83.7267380
  97.7276980  77.3921700  78.7809690  97.3233980  76.6798950  78.2855590
  97.8140100  77.0474940  79.6697730  98.1958680  81.0789260  80.9448900
  97.8986970  80.4734730  80.2656680  99.1458500  81.1166570  80.8338260
  96.4405600  74.1664910  82.5608730  96.9920190  74.2760250  81.7861980
  96.9549110  74.5402510  83.2763960 106.2844290  84.6521130  84.6072000
 105.8074850  85.4593320  84.4144610 105.6006080  83.9999460  84.7598210
  97.2877110  80.8170950  87.5956700  96.3905640  81.0410920  87.8430100
  97.3129980  80.9405890  86.6468100 104.3282330  77.6664070  73.5097960
 104.7675610  76.8286500  73.3635780 105.0410750  78.2993470  73.5962100
  96.1148330  77.6884270  86.1714070  95.9756100  78.5607070  86.5401470
  95.2329690  77.3457080  86.0262010 102.4377710  82.6060140  77.4779200
 102.8773620  83.3484470  77.0634590 102.3764600  82.8486710  78.4018160
  97.9128680  83.6305970  88.3799220  97.8844110  84.0348920  87.5127650
  97.7493650  82.7016330  88.2170820 107.9099470  68.9206880  71.8239000
 107.5972130  69.0133710  72.7238070 108.6711940  69.4987910  71.7736430
  94.4281610  76.2866680  76.2816340  94.3079210  77.0128770  75.6697610
  94.1182500  75.5169590  75.8044250 109.8643500  84.4133070  89.6763390
 110.3403220  84.8915960  90.3552470 110.4850660  84.3450560  88.9508890
  92.0666980  79.4581820  82.0884980  92.1447400  79.5930590  81.1440700
  92.6808660  78.7497710  82.2813100  93.3114610  81.1582010  78.4991160
  92.9042690  81.2996600  77.6444760  94.2027620  80.8742170  78.2962370
 109.2676750  81.6045920  86.8363400 109.3939810  81.3657800  85.9180580
 109.3098130  80.7730460  87.3085480 103.1293490  85.3073920  85.4058210
 103.6438160  85.2181930  86.2080640 102.2862570  85.6533620  85.6986120
 105.1047890  85.5929260  74.8342210 104.9449030  85.3032200  75.7324040
 104.9394600  84.8169390  74.2987440  97.5836270  85.3727790  76.6113830
  97.4078750  84.4563330  76.3981630  96.7292010  85.7315080  76.8511630
 104.8074020  83.1016820  73.3940210 104.1139180  83.0994110  72.7342490
 105.5496880  82.6776140  72.9634380 104.3723950  84.7279530  77.4688700
 104.8280900  83.9468910  77.7827320 104.7116470  85.4386350  78.0129880
 109.1200760  73.6578380  87.8013140 108.5045030  74.1658050  87.2728600
 108.7997180  72.7576710  87.7439080  92.1226500  80.4995990  84.6279440
  92.2857540  80.0301350  83.8098810  92.5878950  79.9919550  85.2928280
  96.8945270  69.6301750  79.6640010  96.4513420  70.4111290  79.3324530
  97.4530260  69.9531640  80.3710950 101.1815080  72.4970270  85.2675330
 100.7194450  72.7053290  86.0795270 100.7793190  71.6829620  84.9646000
 106.1819590  73.7179220  86.3971990 105.3313180  73.4184970  86.7181060
 106.0221380  73.9621230  85.4855810 103.2769300  75.2180970  88.4970780
 103.6022710  74.3844720  88.1573010 104.0649630  75.7409490  88.6449110
 100.0104090  69.2512450  74.5445840  99.3858270  69.2472320  75.2699150
  99.9234210  68.3843410  74.1481810  98.9321170  70.1749080  81.5229610
  99.2293500  71.0811910  81.4421630  99.4806730  69.6867860  80.9089180
  96.6859490  74.7535320  77.3921260  96.4600410  74.5372490  78.2967880
  95.9052020  75.1863780  77.0467230 103.9157250  74.7598690  75.9911910
 103.3166140  75.4834490  75.8075530 104.4636860  74.6975470  75.2088360
  99.1258700  75.6520900  88.0581530  99.0302300  74.7115630  87.9081930
  99.9690680  75.8735970  87.6629600 102.5222120  73.3962230  78.0215190
 102.9151690  73.7134430  77.2083880 102.8838970  72.5174110  78.1359710
  94.2569240  72.0634570  86.2115310  93.8632630  72.9109780  86.4188090
  93.5687640  71.4260940  86.4023950 100.8314290  72.1469540  89.2812050
 100.1412610  71.9541740  89.9158140 101.5746590  72.4304180  89.8136350
  91.5586290  69.9863030  80.2445390  91.2699340  70.5565890  80.9570370
  92.3032050  69.5067480  80.6076620 103.1077260  75.9867980  82.1165970
 102.3758380  76.4954790  82.4656070 102.7101600  75.1697960  81.8154750
  99.5454650  72.6622180  80.5218460  99.5490710  72.2212130  79.6723000
 100.4405770  72.9839510  80.6290280  95.3957030  72.5448670  79.4812670
  95.0557080  73.0223900  80.2379720  94.6334350  72.0913790  79.1213770
  99.6074800  73.6634260  73.5125220  99.7287620  73.6220740  74.4611040
  99.2223310  74.5258410  73.3571950 103.5703170  71.4401660  81.5288910
 103.5875910  71.8910310  82.3730760 103.3218750  70.5407300  81.7422350
  98.6196300  75.9735400  72.9108520  98.0513200  75.5253650  72.2844430
  99.3285300  76.3328180  72.3773670 106.9973920  68.8533840  87.3675290
 107.3219690  68.1223500  87.8933270 107.0330430  68.5347480  86.4656280
  93.6965480  79.8747420  86.7875250  93.3120270  79.2341090  87.3858210
  94.0077670  80.5783540  87.3569980  99.8462620  76.7223960  82.2683870
 100.2132750  76.2482530  83.0145210  99.6567680  77.5965530  82.6092210
  92.7103110  71.4667650  78.3977340  92.4250030  71.1023320  79.2355960
  92.6481970  70.7348110  77.7840480  97.6361990  75.7632600  84.5868080
  97.3319060  76.6424580  84.8118440  98.5908450  75.8232390  84.6225520
  96.1643780  79.9693590  75.1834930  95.3906040  79.4291210  75.0233650
  96.8938410  79.4500200  74.8452690 106.9231760  78.9658950  80.9761320
 107.6430880  79.4614240  80.5857430 106.7213580  78.2876840  80.3315190
 102.3841700  70.3596910  75.1190710 101.5706310  69.8610080  75.0436020
 102.1903650  71.1995160  74.7027060 102.3050560  79.0368010  86.8630320
 102.2387870  78.1163680  86.6087910 101.6755700  79.1343450  87.5774960
 105.0990090  74.7316560  73.4152870 105.9869710  75.0433790  73.2404210
 105.0695180  73.8588810  73.0233450  96.2081180  79.6373970  78.8213740
  96.7259850  78.8342230  78.7670630  95.7565200  79.5753110  79.6630570
 101.0950680  80.9040250  74.0941040 101.4366380  81.6482480  73.5984360
 100.2663390  81.2171370  74.4565870  93.6925720  76.6035340  85.7339440
  93.3340660  77.2689190  86.3212780  93.3980280  75.7718890  86.1052060
  96.8938840  77.0619580  88.6178990  96.5938980  77.2076760  87.7206810
  97.6650080  76.5024870  88.5252380 102.2367290  81.8588580  86.6134120
 102.2511830  80.9269540  86.3953030 101.5292390  81.9448340  87.2523890
 107.3704360  76.0428400  72.8832730 107.2868080  76.4742620  72.0329170
 108.0898550  76.5026750  73.3159550 108.4478500  78.4995920  85.9602700
 107.7226690  79.0924700  85.7632090 108.9753960  78.4919460  85.1616070
 108.3991610  82.8970660  75.6114860 107.7567770  82.2426280  75.8858580
 108.0122270  83.3025750  74.8355530 103.9778090  80.2256090  79.4586550
 104.3301910  79.6284220  78.7987920 103.0940420  79.9000320  79.6294800
 100.0641370  80.9853780  76.8656960 100.7512500  81.5322990  77.2464550
  99.2773790  81.5294510  76.9006570  99.3668580  77.9899810  76.4782320
  99.8231360  78.8005060  76.7042510  99.0156790  77.6722950  77.3100810
 101.6701190  83.5006150  83.7074620 102.3143410  83.7065530  84.3848040
 102.0330630  82.7394550  83.2545470  95.2680360  68.3337460  76.9504840
  95.1394990  68.3255360  77.8989760  94.4442380  68.6720550  76.5995850
 102.9433270  81.5038500  82.4252070 103.5855500  80.8031660  82.5384240
 103.4682620  82.2836940  82.2448960 106.7888990  81.7887120  72.1491210
 106.5626570  81.0717560  72.7415850 106.3985190  81.5399560  71.3112960
 104.7170890  82.3033400  85.6288130 105.0527130  82.8900090  86.3066050
 103.7971230  82.1726110  85.8585920  92.5705020  85.8153980  72.9235670
  92.9302660  86.4143320  72.2692940  92.4297360  86.3613870  73.6970700
  92.2674290  70.0928580  86.4111540  91.5532810  70.2925500  87.0164150
  92.6869330  69.3168150  86.7826340 106.3705240  79.7059060  73.8105370
 106.0826940  80.1671750  74.5983250 107.1657410  79.2456830  74.0789590
  92.5546880  84.0808840  87.3978070  92.6638000  83.1403580  87.2573460
  91.9027440  84.3463590  86.7491800 100.5459470  82.3524730  88.7976190
 100.2256340  81.6333970  89.3421880  99.8717830  83.0279800  88.8712250
  98.5873640  83.1985180  73.7409340  98.5783740  83.9314870  73.1253850
  97.6672000  82.9516760  73.8336300  94.1880280  78.4200070  74.4856100
  93.5808230  79.1598970  74.4951400  94.6629630  78.5099430  73.6594300
 103.7613070  72.5850890  84.1612990 104.1293890  71.7646100  84.4892560
 102.9011270  72.6452780  84.5768640 107.1275100  71.5407830  74.9700550
 106.4988260  71.6453500  74.2558780 106.6327020  71.7604610  75.7594430
 101.5733240  83.2613420  72.4034530 101.6745220  83.0577410  71.4736510
 100.6734980  83.0071700  72.6082310  99.0959130  73.8193780  76.3858430
  98.3875280  74.2880120  76.8272040  99.3803610  73.1615790  77.0203620
 100.7215060  75.2390480  84.3850960 101.2200310  75.7136300  85.0502810
 100.8638010  74.3154000  84.5920990 103.1274560  70.5444440  77.8254220
 103.0042340  70.5630570  76.8763730 104.0759120  70.5923380  77.9452620
 100.2151350  85.7799740  77.0982200 100.4692850  85.7421130  76.1761570
  99.2663830  85.6533070  77.0910450  97.2994150  72.1278860  73.7609140
  98.1484680  72.5649010  73.6949330  96.9325420  72.4399120  74.5881200
 107.9281920  71.4558440  85.2279350 107.4255520  72.1963840  85.5673160
 108.7438580  71.8442440  84.9116140 106.2203930  76.6991620  78.6740710
 105.2794070  76.7141850  78.8488400 106.5348000  75.9127580  79.1201010
 108.2229510  83.8700470  80.3494970 108.3476930  84.6931640  80.8218780
 109.0895070  83.6591200  80.0019120  95.6947040  85.9631680  80.0212100
  96.4309520  85.4147140  80.2920670  96.0787960  86.8287690  79.8818090
  92.5792520  82.0305250  75.8953610  91.6532300  82.2726390  75.8859020
  93.0448950  82.8579510  75.7738360  94.7005320  85.1477750  89.2097680
  95.5018050  85.4689800  89.6233080  94.1857140  84.7873330  89.9317590
  98.8049350  85.1361990  71.8437670  99.5977960  85.4250820  71.3919460
  98.2853700  84.7054160  71.1650150 103.5369950  81.2557620  89.1573090
 102.9308110  81.2789220  88.4168840 103.2324060  80.5240660  89.6940340
 104.9670320  84.9837910  87.7682500 105.9192070  84.8995930  87.7182740
 104.8198540  85.6479620  88.4416290 107.8579520  84.3632120  73.2674410
 107.5721030  83.9497260  72.4528590 107.6599070  85.2919830  73.1474930
  92.4203130  77.6351210  88.1533730  92.9242150  77.0558490  88.7249960
  91.6810550  77.9191440  88.6910100  99.3226750  80.3565400  71.7080020
  99.2177390  79.7417750  72.4341400  99.1550970  79.8331290  70.9243030
  99.4741070  79.0422200  87.6869250  98.7086740  79.6107200  87.6023920
  99.6557030  78.7498410  86.7937480 102.5629480  79.4185430  72.3122010
 102.0139580  79.8654730  72.9564750 103.1848740  78.9134680  72.8359680
 106.6164420  80.7727530  88.2444270 107.3573890  81.1103290  87.7411730
 105.8537100  80.9419590  87.6914040  94.4526210  75.7780800  89.0483800
  94.4931550  75.4794670  89.9569030  95.3071710  76.1788410  88.8891320
  98.2304600  78.3776350  74.2087310  98.6521020  78.2116220  75.0518700
  98.3555440  77.5676580  73.7142450  96.3932020  74.3572900  87.0158290
  95.8628480  73.8663850  86.3881630  97.0620090  74.7857100  86.4816220
 100.7432240  77.4013960  71.4564410 101.2637900  76.6862980  71.0905560
 101.3900640  78.0399830  71.7564920 105.2910080  78.8242360  86.7799480
 105.7051100  78.9787440  87.6289900 104.3561080  78.9497580  86.9425260
 105.7632250  76.1638520  88.7838630 106.3453020  75.4090840  88.6959110
 105.9394020  76.6945960  88.0070110  96.8804320  71.3235270  87.0955580
  96.7861190  70.7056020  86.3706450  96.3001710  72.0501560  86.8685490
  99.6465760  69.8808510  84.1282970  99.1983060  69.9032770  83.2828520
  99.0130960  69.4827530  84.7253270 100.0525310  78.7762840  84.7495410
 100.4713420  79.6195570  84.5771650  99.1333940  78.9134880  84.5202190
 102.3889210  76.5079020  86.1333250 102.5085420  75.9120160  86.8728090
 103.2483210  76.5448710  85.7134550 104.7277110  77.0616210  84.7095760
 104.2012330  77.5858830  84.1060900 105.0708450  77.6943600  85.3405490
  97.1263500  74.4509580  71.1545470  96.9252560  73.5876940  71.5158810
  96.9555550  74.3642940  70.2167070  97.9032730  85.0815850  85.8653140
  97.3653820  85.8061910  85.5461840  98.1566690  84.6046190  85.0750480
  99.1557980  73.0500370  87.3909070  99.7457670  72.7416220  88.0786890
  98.3378220  72.5780120  87.5468970 103.9751410  72.6666180  87.6242090
 103.2866930  72.0047720  87.5592080 104.6957430  72.2204450  88.0690550
 104.6051810  69.2617810  73.6832350 104.8854100  68.4185710  74.0391770
 103.8317540  69.4940920  74.1971100  95.9246300  71.5510200  71.1423350
  96.2272200  71.5577630  70.2342500  96.6640890  71.2008060  71.6391010
 100.7594940  86.3167060  86.1239790 100.6853640  87.2202200  86.4312160
  99.8573780  85.9978960  86.0961860  99.1431230  70.4944820  72.1279550
  98.7953230  69.8168810  71.5482000  99.3444000  70.0334330  72.9422940
 101.3080270  85.4825570  73.7466150 102.2031060  85.8210540  73.7684910
 101.3397900  84.7604980  73.1190430  94.9476430  80.8552620  71.9753150
  95.3851300  81.3982290  72.6310730  95.4324160  80.0299570  71.9849490
  92.1622230  83.6441650  79.4273410  92.4925240  82.7762710  79.1952050
  92.5913230  83.8500170  80.2578370  96.7584150  81.9750660  77.0875380
  96.4579690  81.8515630  77.9879290  96.6521640  81.1159250  76.6791110
  92.6512440  84.5112240  82.1655040  92.2143430  84.6913040  82.9979190
  93.2190120  85.2686860  82.0236760 108.2874620  84.0129240  86.4532350
 107.6876610  84.0721800  85.7096270 108.4168520  83.0734220  86.5829200
 109.5276070  81.7547060  71.7902060 108.6969030  81.8223710  72.2609290
 109.7047900  82.6451180  71.4868920 108.9832530  78.4994540  74.2936260
 109.7451440  79.0691190  74.3995950 108.9986900  77.9321740  75.0644570
  92.4836870  77.0232470  78.5243920  91.8285710  76.7544110  77.8803620
  93.3214820  76.9136950  78.0745900 109.9892500  79.3544640  79.1378190
 110.3601330  78.5711960  78.7314160 110.6294430  80.0433740  78.9595490
 106.9726260  80.7381220  84.5508510 106.1586100  81.1678380  84.8134300
 107.3800460  81.3499630  83.9377560 109.0351700  78.7928910  71.4508780
 109.3100540  79.7007790  71.3228000 108.8462440  78.7291440  72.3870770
 105.4327310  71.8173760  72.7462410 105.8512190  71.6304740  71.9059070
 105.1263370  70.9652810  73.0565340 108.9317040  76.7297900  76.4438210
 108.5560640  75.9625830  76.0119500 108.2020160  77.1120600  76.9313140
  93.5212800  77.4085040  83.0647260  93.8885840  77.3212440  83.9443280
  92.9523620  76.6451590  82.9654120 108.3216660  75.8769420  86.0777730
 108.0902750  75.6482170  85.1775680 108.5821210  76.7968970  86.0322620
  93.0728800  74.3194130  86.9705680  92.1784850  74.2860890  87.3099390
  93.6126350  74.5180920  87.7356930 106.7604730  71.1025850  88.8557430
 107.6374910  71.1109250  89.2391430 106.7725570  70.3656690  88.2449780
  91.6974950  74.2331400  74.4669250  90.7939030  74.4961600  74.2920910
  92.1815570  74.5042570  73.6869210 108.2068000  74.9555390  79.7445450
 108.7305480  74.4618040  79.1135620 108.7927420  75.0905750  80.4893020
 108.3857720  75.0395260  83.2665000 107.4360430  75.0058800  83.3809990
 108.5670730  75.9495370  83.0314770  93.8876320  69.3436270  71.4166280
  94.6104450  69.8845210  71.7347500  94.1600840  69.0699690  70.5407820
 107.6967970  74.2128740  75.6837860 108.1927090  73.9799610  76.4686740
 107.4984040  73.3740580  75.2675500  93.5768510  68.5942460  81.3188900
  94.2244700  68.0439840  80.8784060  93.9970350  68.8485610  82.1404710
 109.1255130  72.8489690  78.2175540 109.0154410  72.6945730  79.1557810
 109.8862720  72.3210630  77.9750950 107.4720850  68.7883820  84.6758540
 108.1093070  69.4017960  85.0417730 107.6195740  68.8244480  83.7307770
 110.0145400  70.6797610  71.4581680 110.9394710  70.5478790  71.2499970
 109.9921190  70.7590430  72.4118130 110.0883890  71.4508270  74.0838390
 109.2935390  71.3853390  74.6131300 110.2927170  72.3858910  74.0723740
 107.0302310  85.4899820  78.0776780 107.6261380  85.1684390  77.4011200
 107.2880460  85.0171640  78.8690050  93.3300510  68.7498130  84.0614220
  92.9815330  69.2061950  84.8272400  92.9988210  67.8555260  84.1436650
  94.9364880  81.9217730  88.2267410  94.8934510  81.5510640  89.1081870
  95.0675890  82.8595300  88.3669230  98.6370910  83.4777320  83.8277130
  98.3962270  83.7451880  82.9407650  99.5773550  83.6483050  83.8827990
 100.8425330  69.9410010  87.5833640 100.7814220  70.5331840  88.3329050
 101.7825710  69.8335970  87.4383900 103.4799890  69.5980070  87.2225930
 104.0940300  69.9159360  86.5607010 104.0249450  69.1128660  87.8421790
 109.8975070  85.4971700  84.6287770 109.4033350  85.8940570  83.9114900
 109.2888360  84.8720910  85.0225050  94.0021150  68.2774330  87.3364990
  94.5504140  68.0962380  86.5731100  94.0676460  67.4868440  87.8721300
  94.7752910  84.8679980  85.3465190  94.1813230  84.7364680  86.0855230
  94.7676750  84.0318120  84.8807290 104.2207930  68.1612210  83.5495220
 103.3467770  68.4947320  83.3468150 104.1118680  67.6885390  84.3747090
 105.1279910  70.3683080  84.9336940 104.7993270  69.5534840  84.5538670
 106.0762210  70.3252890  84.8102630 107.5814520  86.1395120  81.9074510
 107.1217490  86.8910930  81.5332530 106.9526980  85.4201590  81.8489310
  94.4065140  82.2338360  84.2973230  93.6799200  81.6143650  84.2299180
  94.4674290  82.6278970  83.4271310  98.0110240  84.4483360  81.0822640
  98.5275260  83.8370720  80.5570900  98.6607620  84.9512140  81.5733650
 100.7505740  85.3391850  81.9091620 101.0383550  85.0846150  81.0324630
 101.2628960  84.7869210  82.4997190 101.9682750  69.0782050  82.4888130
 101.1854540  69.5527550  82.7684890 101.6745680  68.1736880  82.3801310
 106.5203820  69.7805150  80.5337220 106.9611910  69.7250250  79.6858820
 106.2511410  70.6963160  80.6047400 108.3842390  69.4120390  78.5446040
 108.3230790  68.4681610  78.3977060 109.1634420  69.5200480  79.0899500
  92.6895140  85.5512750  77.5069990  92.5217180  84.9183430  78.2051880
  91.8229650  85.7572150  77.1564180  93.3123160  69.3829530  75.0101850
  94.0702520  69.4958410  74.4365880  92.8500330  70.2198730  74.9645280
  99.8536970  71.4968800  78.0004160  99.0411480  71.1225690  77.6600040
 100.3578610  70.7413880  78.3025350 104.3561950  68.1611250  79.2387230
 104.9591320  68.7331460  79.7135750 103.6154940  68.7250690  79.0161130
 107.4996550  68.5632810  74.5127510 107.6947180  69.4616260  74.7794940
 106.7126420  68.3319890  75.0060460  94.2957840  84.2445980  74.9520130
  93.7705460  84.6254010  74.2482090  94.2202420  84.8696750  75.6729840
  95.6848310  69.9093580  73.5503820  96.2141070  69.1223380  73.4211770
  96.3176630  70.5884770  73.7839350  97.8786150  69.6468720  76.6049210
  97.2488890  68.9456030  76.7719340  97.3391290  70.4072850  76.3882370
 100.8178100  86.2607950  89.2759820 101.7445410  86.0252220  89.3195780
 100.8028530  87.0879950  88.7945850 109.0523160  85.8033520  76.2734070
 109.2275350  85.1171260  75.6294990 108.3544730  86.3280570  75.8810740
  98.0041710  68.9252700  89.0401700  97.7225980  69.4286300  88.2762520
  98.3861410  68.1274450  88.6743830  96.8950810  86.1928360  73.8269380
  97.6269630  85.9087640  73.2793270  97.1544480  85.9541640  74.7168760
  96.0565600  82.3093090  73.8315710  95.4274480  82.7778190  74.3801540
  96.1713430  81.4642310  74.2661900 104.6057170  68.3406280  89.6182170
 104.4922620  68.6600890  90.5133690 105.4226910  68.7418790  89.3219450
 107.3855660  85.4877810  89.1000860 108.1780980  84.9927040  88.8926820
 107.6788810  86.1667950  89.7076470 103.5115320  76.3598750  59.9816910
 103.4309370  75.4453360  59.7108620 103.0979740  76.8565820  59.2756620
 101.6433360  78.1377770  61.8626180 100.8675460  77.6578210  62.1524750
 102.2946290  77.4583420  61.6882340  95.6599190  78.4497580  62.7401940
  94.8284070  78.1946290  63.1398450  96.2680170  78.5208350  63.4759860
 105.6640790  82.5437960  60.6425310 105.2022320  81.7725200  60.9712480
 106.4766340  82.5704030  61.1477760  95.6400450  82.4837670  62.9359960
  95.9428490  81.5935410  62.7570180  96.3844040  83.0407890  62.7082210
  94.0691140  73.4099470  56.5244330  93.1807840  73.7515440  56.4224210
  94.3532330  73.2099790  55.6325160  92.0324150  76.0105120  62.4084030
  92.6040260  75.2427320  62.4087670  92.0325690  76.3093880  61.4990640
 101.8904100  84.8295970  60.2629300 101.2715540  85.2853470  59.6923740
 102.7455880  84.9847430  59.8619000 101.0842350  80.8134960  61.8696340
 101.0150630  79.8724900  61.7085470 101.8462210  80.9036370  62.4418910
  93.2749020  71.4189480  64.1952960  93.0951860  70.5215230  64.4755720
  92.8729100  71.9661350  64.8699910 102.1147520  73.6205340  62.0965270
 102.4912340  72.7477220  61.9838940 102.0167030  73.9564040  61.2055710
  96.2452530  71.9930970  57.5582710  96.3519280  72.8934700  57.8651470
  95.3344890  71.9448940  57.2677360 105.8971640  71.1155780  59.0293610
 106.7181260  70.6252350  59.0719090 105.9305720  71.7053440  59.7825450
  93.8935690  73.9149980  62.8035300  94.5745800  74.1788350  63.4222700
  93.5783740  73.0750850  63.1373310  98.0860260  74.9617340  61.8907890
  98.5938480  75.4598310  62.5312910  98.6173500  74.1852540  61.7147250
 110.1871190  73.1322530  65.5937240 109.4823360  73.5204240  65.0752350
 110.4529110  73.8272820  66.1958170  96.3696360  69.6015900  66.1571310
  96.3714800  70.1188290  65.3517210  95.5400670  69.1246080  66.1341240
 102.7567450  79.7135210  57.6561210 102.1384720  80.1784660  57.0923930
 103.2690700  80.4062690  58.0730720  97.6199210  79.2411080  64.3344810
  97.2868590  79.8680000  64.9765880  97.7965890  79.7672960  63.5546480
 106.1333120  73.0556160  61.8021150 105.4288690  73.3441050  62.3824260
 106.4945280  73.8656270  61.4420710  96.0511690  71.3125860  64.1641760
  96.3928500  72.1567910  63.8695630  95.1127500  71.4609600  64.2807100
  96.8318310  81.2091880  66.1493990  97.4492310  81.8842960  65.8678440
  95.9711430  81.6179860  66.0581490  92.1250650  80.3991740  55.0300840
  91.7478630  80.8878840  54.2985740  92.3823720  81.0717020  55.6607370
 107.7495900  82.6731290  64.0648630 107.0659420  83.3430400  64.0565300
 108.2890190  82.8711940  63.2993490 109.2020040  72.5010950  62.1930360
 108.2544950  72.5349930  62.3245790 109.5270030  73.3149900  62.5779720
  99.7339580  68.8008130  60.4886350 100.0414560  68.2455020  59.7721850
  98.8040280  68.9352590  60.3059340 105.2854640  84.5175420  62.7793810
 105.2981800  84.1137710  61.9116070 104.7329860  85.2922710  62.6755240
 106.5800060  81.2391640  57.8683980 106.4696390  80.2965970  57.9933400
 106.5768310  81.6007280  58.7546740 104.6840080  79.4205260  64.1076420
 105.1008870  79.2065370  63.2729880 105.4079900  79.6778050  64.6785040
 102.1220340  76.8656960  57.2246470 101.1949620  76.7994340  57.4534940
 102.2745160  77.8037090  57.1101710 102.1089420  73.1373960  54.2213630
 101.1693090  73.2987920  54.3066090 102.4272680  73.8559640  53.6749620
 108.6302180  77.8192480  64.1992660 107.8020810  77.8885570  63.7242790
 109.2252660  78.4046790  63.7308490 106.1517630  78.4277260  57.7281720
 105.5330050  78.0896810  57.0808020 106.1342080  77.7837020  58.4360910
 105.5944190  74.6061800  65.1447530 105.1815370  75.4315510  65.3987520
 104.8620140  74.0206840  64.9523890  97.7276980  77.3921700  60.0066200
  97.3233980  76.6798950  59.5112100  97.8140100  77.0474940  60.8954240
  98.1958680  81.0789260  62.1705410  97.8986970  80.4734730  61.4913190
  99.1458500  81.1166570  62.0594770  96.4405600  74.1664910  63.7865240
  96.9920190  74.2760250  63.0118490  96.9549110  74.5402510  64.5020470
 106.2844290  84.6521130  65.8328510 105.8074850  85.4593320  65.6401120
 105.6006080  83.9999460  65.9854720  97.2877110  80.8170950  68.8213210
  96.3905640  81.0410920  69.0686610  97.3129980  80.9405890  67.8724610
 104.3282330  77.6664070  54.7354470 104.7675610  76.8286500  54.5892290
 105.0410750  78.2993470  54.8218610  96.1148330  77.6884270  67.3970580
  95.9756100  78.5607070  67.7657980  95.2329690  77.3457080  67.2518520
 102.4377710  82.6060140  58.7035710 102.8773620  83.3484470  58.2891100
 102.3764600  82.8486710  59.6274670  97.9128680  83.6305970  69.6055730
  97.8844110  84.0348920  68.7384160  97.7493650  82.7016330  69.4427330
 107.9099470  68.9206880  53.0495510 107.5972130  69.0133710  53.9494580
 108.6711940  69.4987910  52.9992940  94.4281610  76.2866680  57.5072850
  94.3079210  77.0128770  56.8954120  94.1182500  75.5169590  57.0300760
 109.8643500  84.4133070  70.9019900 110.3403220  84.8915960  71.5808980
 110.4850660  84.3450560  70.1765400  92.0666980  79.4581820  63.3141490
  92.1447400  79.5930590  62.3697210  92.6808660  78.7497710  63.5069610
  93.3114610  81.1582010  59.7247670  92.9042690  81.2996600  58.8701270
  94.2027620  80.8742170  59.5218880 109.2676750  81.6045920  68.0619910
 109.3939810  81.3657800  67.1437090 109.3098130  80.7730460  68.5341990
 103.1293490  85.3073920  66.6314720 103.6438160  85.2181930  67.4337150
 102.2862570  85.6533620  66.9242630 105.1047890  85.5929260  56.0598720
 104.9449030  85.3032200  56.9580550 104.9394600  84.8169390  55.5243950
  97.5836270  85.3727790  57.8370340  97.4078750  84.4563330  57.6238140
  96.7292010  85.7315080  58.0768140 104.8074020  83.1016820  54.6196720
 104.1139180  83.0994110  53.9599000 105.5496880  82.6776140  54.1890890
 104.3723950  84.7279530  58.6945210 104.8280900  83.9468910  59.0083830
 104.7116470  85.4386350  59.2386390 109.1200760  73.6578380  69.0269650
 108.5045030  74.1658050  68.4985110 108.7997180  72.7576710  68.9695590
  92.1226500  80.4995990  65.8535950  92.2857540  80.0301350  65.0355320
  92.5878950  79.9919550  66.5184790  96.8945270  69.6301750  60.8896520
  96.4513420  70.4111290  60.5581040  97.4530260  69.9531640  61.5967460
 101.1815080  72.4970270  66.4931840 100.7194450  72.7053290  67.3051780
 100.7793190  71.6829620  66.1902510 106.1819590  73.7179220  67.6228500
 105.3313180  73.4184970  67.9437570 106.0221380  73.9621230  66.7112320
 103.2769300  75.2180970  69.7227290 103.6022710  74.3844720  69.3829520
 104.0649630  75.7409490  69.8705620 100.0104090  69.2512450  55.7702350
  99.3858270  69.2472320  56.4955660  99.9234210  68.3843410  55.3738320
  98.9321170  70.1749080  62.7486120  99.2293500  71.0811910  62.6678140
  99.4806730  69.6867860  62.1345690  96.6859490  74.7535320  58.6177770
  96.4600410  74.5372490  59.5224390  95.9052020  75.1863780  58.2723740
 103.9157250  74.7598690  57.2168420 103.3166140  75.4834490  57.0332040
 104.4636860  74.6975470  56.4344870  99.1258700  75.6520900  69.2838040
  99.0302300  74.7115630  69.1338440  99.9690680  75.8735970  68.8886110
 102.5222120  73.3962230  59.2471700 102.9151690  73.7134430  58.4340390
 102.8838970  72.5174110  59.3616220  94.2569240  72.0634570  67.4371820
  93.8632630  72.9109780  67.6444600  93.5687640  71.4260940  67.6280460
 100.8314290  72.1469540  70.5068560 100.1412610  71.9541740  71.1414650
 101.5746590  72.4304180  71.0392860  91.5586290  69.9863030  61.4701900
  91.2699340  70.5565890  62.1826880  92.3032050  69.5067480  61.8333130
  91.7456520  73.9283150  52.6804620  91.6631190  74.8713910  52.8219610
  91.3939580  73.7858060  51.8016970 103.1077260  75.9867980  63.3422480
 102.3758380  76.4954790  63.6912580 102.7101600  75.1697960  63.0411260
  99.5454650  72.6622180  61.7474970  99.5490710  72.2212130  60.8979510
 100.4405770  72.9839510  61.8546790  95.3957030  72.5448670  60.7069180
  95.0557080  73.0223900  61.4636230  94.6334350  72.0913790  60.3470280
  99.6074800  73.6634260  54.7381730  99.7287620  73.6220740  55.6867550
  99.2223310  74.5258410  54.5828460 103.5703170  71.4401660  62.7545420
 103.5875910  71.8910310  63.5987270 103.3218750  70.5407300  62.9678860
  98.6196300  75.9735400  54.1365030  98.0513200  75.5253650  53.5100940
  99.3285300  76.3328180  53.6030180 106.9973920  68.8533840  68.5931800
 107.3219690  68.1223500  69.1189780 107.0330430  68.5347480  67.6912790
  99.8462620  76.7223960  63.4940380 100.2132750  76.2482530  64.2401720
  99.6567680  77.5965530  63.8348720  92.7103110  71.4667650  59.6233850
  92.4250030  71.1023320  60.4612470  92.6481970  70.7348110  59.0096990
  97.6361990  75.7632600  65.8124590  97.3319060  76.6424580  66.0374950
  98.5908450  75.8232390  65.8482030  96.1643780  79.9693590  56.4091440
  95.3906040  79.4291210  56.2490160  96.8938410  79.4500200  56.0709200
 106.9231760  78.9658950  62.2017830 107.6430880  79.4614240  61.8113940
 106.7213580  78.2876840  61.5571700 102.3841700  70.3596910  56.3447220
 101.5706310  69.8610080  56.2692530 102.1903650  71.1995160  55.9283570
 102.3050560  79.0368010  68.0886830 102.2387870  78.1163680  67.8344420
 101.6755700  79.1343450  68.8031470 105.0990090  74.7316560  54.6409380
 105.9869710  75.0433790  54.4660720 105.0695180  73.8588810  54.2489960
  96.2081180  79.6373970  60.0470250  96.7259850  78.8342230  59.9927140
  95.7565200  79.5753110  60.8887080 101.0950680  80.9040250  55.3197550
 101.4366380  81.6482480  54.8240870 100.2663390  81.2171370  55.6822380
 102.2367290  81.8588580  67.8390630 102.2511830  80.9269540  67.6209540
 101.5292390  81.9448340  68.4780400 107.3704360  76.0428400  54.1089240
 107.2868080  76.4742620  53.2585680 108.0898550  76.5026750  54.5416060
 108.4478500  78.4995920  67.1859210 107.7226690  79.0924700  66.9888600
 108.9753960  78.4919460  66.3872580 108.3991610  82.8970660  56.8371370
 107.7567770  82.2426280  57.1115090 108.0122270  83.3025750  56.0612040
 103.9778090  80.2256090  60.6843060 104.3301910  79.6284220  60.0244430
 103.0940420  79.9000320  60.8551310 100.0641370  80.9853780  58.0913470
 100.7512500  81.5322990  58.4721060  99.2773790  81.5294510  58.1263080
  92.2033770  76.6026600  53.5830550  93.0728620  76.8851400  53.8666470
  91.7124090  77.4162470  53.4679360  99.3668580  77.9899810  57.7038830
  99.8231360  78.8005060  57.9299020  99.0156790  77.6722950  58.5357320
 101.6701190  83.5006150  64.9331130 102.3143410  83.7065530  65.6104550
 102.0330630  82.7394550  64.4801980  95.2680360  68.3337460  58.1761350
  95.1394990  68.3255360  59.1246270  94.4442380  68.6720550  57.8252360
 102.9433270  81.5038500  63.6508580 103.5855500  80.8031660  63.7640750
 103.4682620  82.2836940  63.4705470 106.7888990  81.7887120  53.3747720
 106.5626570  81.0717560  53.9672360 106.3985190  81.5399560  52.5369470
 104.7170890  82.3033400  66.8544640 105.0527130  82.8900090  67.5322560
 103.7971230  82.1726110  67.0842430  92.5705020  85.8153980  54.1492180
  92.9302660  86.4143320  53.4949450  92.4297360  86.3613870  54.9227210
  92.2674290  70.0928580  67.6368050  91.5532810  70.2925500  68.2420660
  92.6869330  69.3168150  68.0082850 106.3705240  79.7059060  55.0361880
 106.0826940  80.1671750  55.8239760 107.1657410  79.2456830  55.3046100
  92.5546880  84.0808840  68.6234580  92.6638000  83.1403580  68.4829970
  91.9027440  84.3463590  67.9748310 100.5459470  82.3524730  70.0232700
 100.2256340  81.6333970  70.5678390  99.8717830  83.0279800  70.0968760
  98.5873640  83.1985180  54.9665850  98.5783740  83.9314870  54.3510360
  97.6672000  82.9516760  55.0592810  94.1880280  78.4200070  55.7112610
  93.5808230  79.1598970  55.7207910  94.6629630  78.5099430  54.8850810
 103.7613070  72.5850890  65.3869500 104.1293890  71.7646100  65.7149070
 102.9011270  72.6452780  65.8025150 107.1275100  71.5407830  56.1957060
 106.4988260  71.6453500  55.4815290 106.6327020  71.7604610  56.9850940
 101.5733240  83.2613420  53.6291040 101.6745220  83.0577410  52.6993020
 100.6734980  83.0071700  53.8338820  99.0959130  73.8193780  57.6114940
  98.3875280  74.2880120  58.0528550  99.3803610  73.1615790  58.2460130
 100.7215060  75.2390480  65.6107470 101.2200310  75.7136300  66.2759320
 100.8638010  74.3154000  65.8177500 103.1274560  70.5444440  59.0510730
 103.0042340  70.5630570  58.1020240 104.0759120  70.5923380  59.1709130
 100.2151350  85.7799740  58.3238710 100.4692850  85.7421130  57.4018080
  99.2663830  85.6533070  58.3166960  97.2994150  72.1278860  54.9865650
  98.1484680  72.5649010  54.9205840  96.9325420  72.4399120  55.8137710
 107.9281920  71.4558440  66.4535860 107.4255520  72.1963840  66.7929670
 108.7438580  71.8442440  66.1372650 106.2203930  76.6991620  59.8997220
 105.2794070  76.7141850  60.0744910 106.5348000  75.9127580  60.3457520
  96.1985570  78.3811220  53.4601180  96.9648840  78.2692580  54.0226610
  96.2760260  77.6849190  52.8077950  94.8932330  75.8136290  54.1434070
  94.9735920  74.8663800  54.2551470  95.7852080  76.1443170  54.2494730
 108.2229510  83.8700470  61.5751480 108.3476930  84.6931640  62.0475290
 109.0895070  83.6591200  61.2275630  95.6947040  85.9631680  61.2468610
  96.4309520  85.4147140  61.5177180  96.0787960  86.8287690  61.1074600
  92.5792520  82.0305250  57.1210120  91.6532300  82.2726390  57.1115530
  93.0448950  82.8579510  56.9994870  94.7005320  85.1477750  70.4354190
  95.5018050  85.4689800  70.8489590  94.1857140  84.7873330  71.1574100
  98.8049350  85.1361990  53.0694180  99.5977960  85.4250820  52.6175970
  98.2853700  84.7054160  52.3906660 103.5369950  81.2557620  70.3829600
 102.9308110  81.2789220  69.6425350 103.2324060  80.5240660  70.9196850
 104.9670320  84.9837910  68.9939010 105.9192070  84.8995930  68.9439250
 104.8198540  85.6479620  69.6672800 107.8579520  84.3632120  54.4930920
 107.5721030  83.9497260  53.6785100 107.6599070  85.2919830  54.3731440
  99.3226750  80.3565400  52.9336530  99.2177390  79.7417750  53.6597910
  99.1550970  79.8331290  52.1499540  99.4741070  79.0422200  68.9125760
  98.7086740  79.6107200  68.8280430  99.6557030  78.7498410  68.0193990
 102.5629480  79.4185430  53.5378520 102.0139580  79.8654730  54.1821260
 103.1848740  78.9134680  54.0616190 106.6164420  80.7727530  69.4700780
 107.3573890  81.1103290  68.9668240 105.8537100  80.9419590  68.9170550
  98.2304600  78.3776350  55.4343820  98.6521020  78.2116220  56.2775210
  98.3555440  77.5676580  54.9398960  96.3932020  74.3572900  68.2414800
  95.8628480  73.8663850  67.6138140  97.0620090  74.7857100  67.7072730
 100.7432240  77.4013960  52.6820920 101.2637900  76.6862980  52.3162070
 101.3900640  78.0399830  52.9821430 105.2910080  78.8242360  68.0055990
 105.7051100  78.9787440  68.8546410 104.3561080  78.9497580  68.1681770
 105.7632250  76.1638520  70.0095140 106.3453020  75.4090840  69.9215620
 105.9394020  76.6945960  69.2326620  96.8804320  71.3235270  68.3212090
  96.7861190  70.7056020  67.5962960  96.3001710  72.0501560  68.0942000
  99.6465760  69.8808510  65.3539480  99.1983060  69.9032770  64.5085030
  99.0130960  69.4827530  65.9509780 100.0525310  78.7762840  65.9751920
 100.4713420  79.6195570  65.8028160  99.1333940  78.9134880  65.7458700
 102.3889210  76.5079020  67.3589760 102.5085420  75.9120160  68.0984600
 103.2483210  76.5448710  66.9391060 104.7277110  77.0616210  65.9352270
 104.2012330  77.5858830  65.3317410 105.0708450  77.6943600  66.5662000
  97.1263500  74.4509580  52.3801980  96.9252560  73.5876940  52.7415320
  96.9555550  74.3642940  51.4423580  97.9032730  85.0815850  67.0909650
  97.3653820  85.8061910  66.7718350  98.1566690  84.6046190  66.3006990
  99.1557980  73.0500370  68.6165580  99.7457670  72.7416220  69.3043400
  98.3378220  72.5780120  68.7725480 103.9751410  72.6666180  68.8498600
 103.2866930  72.0047720  68.7848590 104.6957430  72.2204450  69.2947060
 104.6051810  69.2617810  54.9088860 104.8854100  68.4185710  55.2648280
 103.8317540  69.4940920  55.4227610  95.9246300  71.5510200  52.3679860
  96.2272200  71.5577630  51.4599010  96.6640890  71.2008060  52.8647520
 100.7594940  86.3167060  67.3496300 100.6853640  87.2202200  67.6568670
  99.8573780  85.9978960  67.3218370  99.1431230  70.4944820  53.3536060
  98.7953230  69.8168810  52.7738510  99.3444000  70.0334330  54.1679450
 101.3080270  85.4825570  54.9722660 102.2031060  85.8210540  54.9941420
 101.3397900  84.7604980  54.3446940  94.9476430  80.8552620  53.2009660
  95.3851300  81.3982290  53.8567240  95.4324160  80.0299570  53.2106000
  92.1622230  83.6441650  60.6529920  92.4925240  82.7762710  60.4208560
  92.5913230  83.8500170  61.4834880  96.7584150  81.9750660  58.3131890
  96.4579690  81.8515630  59.2135800  96.6521640  81.1159250  57.9047620
  92.6512440  84.5112240  63.3911550  92.2143430  84.6913040  64.2235700
  93.2190120  85.2686860  63.2493270 108.2874620  84.0129240  67.6788860
 107.6876610  84.0721800  66.9352780 108.4168520  83.0734220  67.8085710
 109.5276070  81.7547060  53.0158570 108.6969030  81.8223710  53.4865800
 109.7047900  82.6451180  52.7125430 108.9832530  78.4994540  55.5192770
 109.7451440  79.0691190  55.6252460 108.9986900  77.9321740  56.2901080
  92.4836870  77.0232470  59.7500430  91.8285710  76.7544110  59.1060130
  93.3214820  76.9136950  59.3002410 109.9892500  79.3544640  60.3634700
 110.3601330  78.5711960  59.9570670 110.6294430  80.0433740  60.1852000
 106.9726260  80.7381220  65.7765020 106.1586100  81.1678380  66.0390810
 107.3800460  81.3499630  65.1634070 109.0351700  78.7928910  52.6765290
 109.3100540  79.7007790  52.5484510 108.8462440  78.7291440  53.6127280
 105.4327310  71.8173760  53.9718920 105.8512190  71.6304740  53.1315580
 105.1263370  70.9652810  54.2821850 108.9317040  76.7297900  57.6694720
 108.5560640  75.9625830  57.2376010 108.2020160  77.1120600  58.1569650
  93.5212800  77.4085040  64.2903770  93.8885840  77.3212440  65.1699790
  92.9523620  76.6451590  64.1910630 108.3216660  75.8769420  67.3034240
 108.0902750  75.6482170  66.4032190 108.5821210  76.7968970  67.2579130
 106.7604730  71.1025850  70.0813940 107.6374910  71.1109250  70.4647940
 106.7725570  70.3656690  69.4706290  91.6974950  74.2331400  55.6925760
  90.7939030  74.4961600  55.5177420  92.1815570  74.5042570  54.9125720
 108.2068000  74.9555390  60.9701960 108.7305480  74.4618040  60.3392130
 108.7927420  75.0905750  61.7149530 108.3857720  75.0395260  64.4921510
 107.4360430  75.0058800  64.6066500 108.5670730  75.9495370  64.2571280
  94.2402160  73.2896940  53.6020140  94.9493860  72.8680160  53.1167420
  93.5242100  73.3572170  52.9703490  93.8876320  69.3436270  52.6422790
  94.6104450  69.8845210  52.9604010  94.1600840  69.0699690  51.7664330
 107.6967970  74.2128740  56.9094370 108.1927090  73.9799610  57.6943250
 107.4984040  73.3740580  56.4932010  93.5768510  68.5942460  62.5445410
  94.2244700  68.0439840  62.1040570  93.9970350  68.8485610  63.3661220
 109.1255130  72.8489690  59.4432050 109.0154410  72.6945730  60.3814320
 109.8862720  72.3210630  59.2007460 107.4720850  68.7883820  65.9015050
 108.1093070  69.4017960  66.2674240 107.6195740  68.8244480  64.9564280
 110.0145400  70.6797610  52.6838190 110.9394710  70.5478790  52.4756480
 109.9921190  70.7590430  53.6374640 110.0883890  71.4508270  55.3094900
 109.2935390  71.3853390  55.8387810 110.2927170  72.3858910  55.2980250
 107.0302310  85.4899820  59.3033290 107.6261380  85.1684390  58.6267710
 107.2880460  85.0171640  60.0946560  93.3300510  68.7498130  65.2870730
  92.9815330  69.2061950  66.0528910  92.9988210  67.8555260  65.3693160
  94.9364880  81.9217730  69.4523920  94.8934510  81.5510640  70.3338380
  95.0675890  82.8595300  69.5925740  98.6370910  83.4777320  65.0533640
  98.3962270  83.7451880  64.1664160  99.5773550  83.6483050  65.1084500
 100.8425330  69.9410010  68.8090150 100.7814220  70.5331840  69.5585560
 101.7825710  69.8335970  68.6640410 103.4799890  69.5980070  68.4482440
 104.0940300  69.9159360  67.7863520 104.0249450  69.1128660  69.0678300
 109.8975070  85.4971700  65.8544280 109.4033350  85.8940570  65.1371410
 109.2888360  84.8720910  66.2481560  94.0021150  68.2774330  68.5621500
  94.5504140  68.0962380  67.7987610  94.0676460  67.4868440  69.0977810
  94.7752910  84.8679980  66.5721700  94.1813230  84.7364680  67.3111740
  94.7676750  84.0318120  66.1063800 104.2207930  68.1612210  64.7751730
 103.3467770  68.4947320  64.5724660 104.1118680  67.6885390  65.6003600
 105.1279910  70.3683080  66.1593450 104.7993270  69.5534840  65.7795180
 106.0762210  70.3252890  66.0359140 107.5814520  86.1395120  63.1331020
 107.1217490  86.8910930  62.7589040 106.9526980  85.4201590  63.0745820
  94.4065140  82.2338360  65.5229740  93.6799200  81.6143650  65.4555690
  94.4674290  82.6278970  64.6527820  98.0110240  84.4483360  62.3079150
  98.5275260  83.8370720  61.7827410  98.6607620  84.9512140  62.7990160
 100.7505740  85.3391850  63.1348130 101.0383550  85.0846150  62.2581140
 101.2628960  84.7869210  63.7253700 101.9682750  69.0782050  63.7144640
 101.1854540  69.5527550  63.9941400 101.6745680  68.1736880  63.6057820
 106.5203820  69.7805150  61.7593730 106.9611910  69.7250250  60.9115330
 106.2511410  70.6963160  61.8303910 108.3842390  69.4120390  59.7702550
 108.3230790  68.4681610  59.6233570 109.1634420  69.5200480  60.3156010
  92.6895140  85.5512750  58.7326500  92.5217180  84.9183430  59.4308390
  91.8229650  85.7572150  58.3820690  93.3123160  69.3829530  56.2358360
  94.0702520  69.4958410  55.6622390  92.8500330  70.2198730  56.1901790
  99.8536970  71.4968800  59.2260670  99.0411480  71.1225690  58.8856550
 100.3578610  70.7413880  59.5281860 104.3561950  68.1611250  60.4643740
 104.9591320  68.7331460  60.9392260 103.6154940  68.7250690  60.2417640
 107.4996550  68.5632810  55.7384020 107.6947180  69.4616260  56.0051450
 106.7126420  68.3319890  56.2316970  94.2957840  84.2445980  56.1776640
  93.7705460  84.6254010  55.4738600  94.2202420  84.8696750  56.8986350
  95.6848310  69.9093580  54.7760330  96.2141070  69.1223380  54.6468280
  96.3176630  70.5884770  55.0095860  97.8786150  69.6468720  57.8305720
  97.2488890  68.9456030  57.9975850  97.3391290  70.4072850  57.6138880
 100.8178100  86.2607950  70.5016330 101.7445410  86.0252220  70.5452290
 100.8028530  87.0879950  70.0202360 109.0523160  85.8033520  57.4990580
 109.2275350  85.1171260  56.8551500 108.3544730  86.3280570  57.1067250
  98.0041710  68.9252700  70.2658210  97.7225980  69.4286300  69.5019030
  98.3861410  68.1274450  69.9000340  96.8950810  86.1928360  55.0525890
  97.6269630  85.9087640  54.5049780  97.1544480  85.9541640  55.9425270
  96.0565600  82.3093090  55.0572220  95.4274480  82.7778190  55.6058050
  96.1713430  81.4642310  55.4918410 104.6057170  68.3406280  70.8438680
 104.4922620  68.6600890  71.7390200 105.4226910  68.7418790  70.5475960
 107.3855660  85.4877810  70.3257370 108.1780980  84.9927040  70.1183330
 107.6788810  86.1667950  70.9332980 103.5115320  76.3598750  41.2073420
 103.4309370  75.4453360  40.9365130 103.0979740  76.8565820  40.5013130
 101.6433360  78.1377770  43.0882690 100.8675460  77.6578210  43.3781260
 102.2946290  77.4583420  42.9138850  95.6599190  78.4497580  43.9658450
  94.8284070  78.1946290  44.3654960  96.2680170  78.5208350  44.7016370
 105.6640790  82.5437960  41.8681820 105.2022320  81.7725200  42.1968990
 106.4766340  82.5704030  42.3734270  95.6400450  82.4837670  44.1616470
  95.9428490  81.5935410  43.9826690  96.3844040  83.0407890  43.9338720
  94.0691140  73.4099470  37.7500840  93.1807840  73.7515440  37.6480720
  94.3532330  73.2099790  36.8581670  92.0324150  76.0105120  43.6340540
  92.6040260  75.2427320  43.6344180  92.0325690  76.3093880  42.7247150
 101.8904100  84.8295970  41.4885810 101.2715540  85.2853470  40.9180250
 102.7455880  84.9847430  41.0875510 101.0842350  80.8134960  43.0952850
 101.0150630  79.8724900  42.9341980 101.8462210  80.9036370  43.6675420
  93.2749020  71.4189480  45.4209470  93.0951860  70.5215230  45.7012230
  92.8729100  71.9661350  46.0956420 102.1147520  73.6205340  43.3221780
 102.4912340  72.7477220  43.2095450 102.0167030  73.9564040  42.4312220
  96.2452530  71.9930970  38.7839220  96.3519280  72.8934700  39.0907980
  95.3344890  71.9448940  38.4933870 105.8971640  71.1155780  40.2550120
 106.7181260  70.6252350  40.2975600 105.9305720  71.7053440  41.0081960
  93.8935690  73.9149980  44.0291810  94.5745800  74.1788350  44.6479210
  93.5783740  73.0750850  44.3629820  98.0860260  74.9617340  43.1164400
  98.5938480  75.4598310  43.7569420  98.6173500  74.1852540  42.9403760
 110.1871190  73.1322530  46.8193750 109.4823360  73.5204240  46.3008860
 110.4529110  73.8272820  47.4214680  96.3696360  69.6015900  47.3827820
  96.3714800  70.1188290  46.5773720  95.5400670  69.1246080  47.3597750
 102.7567450  79.7135210  38.8817720 102.1384720  80.1784660  38.3180440
 103.2690700  80.4062690  39.2987230  97.6199210  79.2411080  45.5601320
  97.2868590  79.8680000  46.2022390  97.7965890  79.7672960  44.7802990
 106.1333120  73.0556160  43.0277660 105.4288690  73.3441050  43.6080770
 106.4945280  73.8656270  42.6677220  96.0511690  71.3125860  45.3898270
  96.3928500  72.1567910  45.0952140  95.1127500  71.4609600  45.5063610
  96.8318310  81.2091880  47.3750500  97.4492310  81.8842960  47.0934950
  95.9711430  81.6179860  47.2838000  92.1250650  80.3991740  36.2557350
  91.7478630  80.8878840  35.5242250  92.3823720  81.0717020  36.8863880
 107.7495900  82.6731290  45.2905140 107.0659420  83.3430400  45.2821810
 108.2890190  82.8711940  44.5250000 109.2020040  72.5010950  43.4186870
 108.2544950  72.5349930  43.5502300 109.5270030  73.3149900  43.8036230
  99.7339580  68.8008130  41.7142860 100.0414560  68.2455020  40.9978360
  98.8040280  68.9352590  41.5315850 105.2854640  84.5175420  44.0050320
 105.2981800  84.1137710  43.1372580 104.7329860  85.2922710  43.9011750
 106.5800060  81.2391640  39.0940490 106.4696390  80.2965970  39.2189910
 106.5768310  81.6007280  39.9803250 104.6840080  79.4205260  45.3332930
 105.1008870  79.2065370  44.4986390 105.4079900  79.6778050  45.9041550
 102.1220340  76.8656960  38.4502980 101.1949620  76.7994340  38.6791450
 102.2745160  77.8037090  38.3358220 102.1089420  73.1373960  35.4470140
 101.1693090  73.2987920  35.5322600 102.4272680  73.8559640  34.9006130
 108.6302180  77.8192480  45.4249170 107.8020810  77.8885570  44.9499300
 109.2252660  78.4046790  44.9565000 106.1517630  78.4277260  38.9538230
 105.5330050  78.0896810  38.3064530 106.1342080  77.7837020  39.6617420
 105.5944190  74.6061800  46.3704040 105.1815370  75.4315510  46.6244030
 104.8620140  74.0206840  46.1780400  97.7276980  77.3921700  41.2322710
  97.3233980  76.6798950  40.7368610  97.8140100  77.0474940  42.1210750
  98.1958680  81.0789260  43.3961920  97.8986970  80.4734730  42.7169700
  99.1458500  81.1166570  43.2851280  96.4405600  74.1664910  45.0121750
  96.9920190  74.2760250  44.2375000  96.9549110  74.5402510  45.7276980
 106.2844290  84.6521130  47.0585020 105.8074850  85.4593320  46.8657630
 105.6006080  83.9999460  47.2111230  97.2877110  80.8170950  50.0469720
  96.3905640  81.0410920  50.2943120  97.3129980  80.9405890  49.0981120
 104.3282330  77.6664070  35.9610980 104.7675610  76.8286500  35.8148800
 105.0410750  78.2993470  36.0475120  96.1148330  77.6884270  48.6227090
  95.9756100  78.5607070  48.9914490  95.2329690  77.3457080  48.4775030
 102.4377710  82.6060140  39.9292220 102.8773620  83.3484470  39.5147610
 102.3764600  82.8486710  40.8531180  97.9128680  83.6305970  50.8312240
  97.8844110  84.0348920  49.9640670  97.7493650  82.7016330  50.6683840
 107.9099470  68.9206880  34.2752020 107.5972130  69.0133710  35.1751090
 108.6711940  69.4987910  34.2249450  94.4281610  76.2866680  38.7329360
  94.3079210  77.0128770  38.1210630  94.1182500  75.5169590  38.2557270
 109.8643500  84.4133070  52.1276410 110.3403220  84.8915960  52.8065490
 110.4850660  84.3450560  51.4021910  92.0666980  79.4581820  44.5398000
  92.1447400  79.5930590  43.5953720  92.6808660  78.7497710  44.7326120
  93.3114610  81.1582010  40.9504180  92.9042690  81.2996600  40.0957780
  94.2027620  80.8742170  40.7475390 109.2676750  81.6045920  49.2876420
 109.3939810  81.3657800  48.3693600 109.3098130  80.7730460  49.7598500
 103.1293490  85.3073920  47.8571230 103.6438160  85.2181930  48.6593660
 102.2862570  85.6533620  48.1499140 105.1047890  85.5929260  37.2855230
 104.9449030  85.3032200  38.1837060 104.9394600  84.8169390  36.7500460
  97.5836270  85.3727790  39.0626850  97.4078750  84.4563330  38.8494650
  96.7292010  85.7315080  39.3024650 104.8074020  83.1016820  35.8453230
 104.1139180  83.0994110  35.1855510 105.5496880  82.6776140  35.4147400
 104.3723950  84.7279530  39.9201720 104.8280900  83.9468910  40.2340340
 104.7116470  85.4386350  40.4642900 109.1200760  73.6578380  50.2526160
 108.5045030  74.1658050  49.7241620 108.7997180  72.7576710  50.1952100
  92.1226500  80.4995990  47.0792460  92.2857540  80.0301350  46.2611830
  92.5878950  79.9919550  47.7441300  96.8945270  69.6301750  42.1153030
  96.4513420  70.4111290  41.7837550  97.4530260  69.9531640  42.8223970
 101.1815080  72.4970270  47.7188350 100.7194450  72.7053290  48.5308290
 100.7793190  71.6829620  47.4159020 106.1819590  73.7179220  48.8485010
 105.3313180  73.4184970  49.1694080 106.0221380  73.9621230  47.9368830
 103.2769300  75.2180970  50.9483800 103.6022710  74.3844720  50.6086030
 104.0649630  75.7409490  51.0962130 100.0104090  69.2512450  36.9958860
  99.3858270  69.2472320  37.7212170  99.9234210  68.3843410  36.5994830
  98.9321170  70.1749080  43.9742630  99.2293500  71.0811910  43.8934650
  99.4806730  69.6867860  43.3602200  96.6859490  74.7535320  39.8434280
  96.4600410  74.5372490  40.7480900  95.9052020  75.1863780  39.4980250
 103.9157250  74.7598690  38.4424930 103.3166140  75.4834490  38.2588550
 104.4636860  74.6975470  37.6601380  99.1258700  75.6520900  50.5094550
  99.0302300  74.7115630  50.3594950  99.9690680  75.8735970  50.1142620
 102.5222120  73.3962230  40.4728210 102.9151690  73.7134430  39.6596900
 102.8838970  72.5174110  40.5872730  94.2569240  72.0634570  48.6628330
  93.8632630  72.9109780  48.8701110  93.5687640  71.4260940  48.8536970
 100.8314290  72.1469540  51.7325070 100.1412610  71.9541740  52.3671160
 101.5746590  72.4304180  52.2649370  91.5586290  69.9863030  42.6958410
  91.2699340  70.5565890  43.4083390  92.3032050  69.5067480  43.0589640
  91.7456520  73.9283150  33.9061130  91.6631190  74.8713910  34.0476120
  91.3939580  73.7858060  33.0273480 103.1077260  75.9867980  44.5678990
 102.3758380  76.4954790  44.9169090 102.7101600  75.1697960  44.2667770
  99.5454650  72.6622180  42.9731480  99.5490710  72.2212130  42.1236020
 100.4405770  72.9839510  43.0803300  95.3957030  72.5448670  41.9325690
  95.0557080  73.0223900  42.6892740  94.6334350  72.0913790  41.5726790
  99.6074800  73.6634260  35.9638240  99.7287620  73.6220740  36.9124060
  99.2223310  74.5258410  35.8084970 103.5703170  71.4401660  43.9801930
 103.5875910  71.8910310  44.8243780 103.3218750  70.5407300  44.1935370
  98.6196300  75.9735400  35.3621540  98.0513200  75.5253650  34.7357450
  99.3285300  76.3328180  34.8286690 106.9973920  68.8533840  49.8188310
 107.3219690  68.1223500  50.3446290 107.0330430  68.5347480  48.9169300
  93.6965480  79.8747420  49.2388270  93.3120270  79.2341090  49.8371230
  94.0077670  80.5783540  49.8083000  99.8462620  76.7223960  44.7196890
 100.2132750  76.2482530  45.4658230  99.6567680  77.5965530  45.0605230
  92.7103110  71.4667650  40.8490360  92.4250030  71.1023320  41.6868980
  92.6481970  70.7348110  40.2353500  97.6361990  75.7632600  47.0381100
  97.3319060  76.6424580  47.2631460  98.5908450  75.8232390  47.0738540
  96.1643780  79.9693590  37.6347950  95.3906040  79.4291210  37.4746670
  96.8938410  79.4500200  37.2965710 106.9231760  78.9658950  43.4274340
 107.6430880  79.4614240  43.0370450 106.7213580  78.2876840  42.7828210
 102.3841700  70.3596910  37.5703730 101.5706310  69.8610080  37.4949040
 102.1903650  71.1995160  37.1540080 102.3050560  79.0368010  49.3143340
 102.2387870  78.1163680  49.0600930 101.6755700  79.1343450  50.0287980
 105.0990090  74.7316560  35.8665890 105.9869710  75.0433790  35.6917230
 105.0695180  73.8588810  35.4746470  96.2081180  79.6373970  41.2726760
  96.7259850  78.8342230  41.2183650  95.7565200  79.5753110  42.1143590
 101.0950680  80.9040250  36.5454060 101.4366380  81.6482480  36.0497380
 100.2663390  81.2171370  36.9078890  93.6925720  76.6035340  48.1852460
  93.3340660  77.2689190  48.7725800  93.3980280  75.7718890  48.5565080
  96.8938840  77.0619580  51.0692010  96.5938980  77.2076760  50.1719830
  97.6650080  76.5024870  50.9765400 102.2367290  81.8588580  49.0647140
 102.2511830  80.9269540  48.8466050 101.5292390  81.9448340  49.7036910
 107.3704360  76.0428400  35.3345750 107.2868080  76.4742620  34.4842190
 108.0898550  76.5026750  35.7672570 108.4478500  78.4995920  48.4115720
 107.7226690  79.0924700  48.2145110 108.9753960  78.4919460  47.6129090
 108.3991610  82.8970660  38.0627880 107.7567770  82.2426280  38.3371600
 108.0122270  83.3025750  37.2868550 103.9778090  80.2256090  41.9099570
 104.3301910  79.6284220  41.2500940 103.0940420  79.9000320  42.0807820
 100.0641370  80.9853780  39.3169980 100.7512500  81.5322990  39.6977570
  99.2773790  81.5294510  39.3519590  92.2033770  76.6026600  34.8087060
  93.0728620  76.8851400  35.0922980  91.7124090  77.4162470  34.6935870
  99.3668580  77.9899810  38.9295340  99.8231360  78.8005060  39.1555530
  99.0156790  77.6722950  39.7613830 101.6701190  83.5006150  46.1587640
 102.3143410  83.7065530  46.8361060 102.0330630  82.7394550  45.7058490
  95.2680360  68.3337460  39.4017860  95.1394990  68.3255360  40.3502780
  94.4442380  68.6720550  39.0508870 102.9433270  81.5038500  44.8765090
 103.5855500  80.8031660  44.9897260 103.4682620  82.2836940  44.6961980
 106.7888990  81.7887120  34.6004230 106.5626570  81.0717560  35.1928870
 106.3985190  81.5399560  33.7625980 104.7170890  82.3033400  48.0801150
 105.0527130  82.8900090  48.7579070 103.7971230  82.1726110  48.3098940
  92.5705020  85.8153980  35.3748690  92.9302660  86.4143320  34.7205960
  92.4297360  86.3613870  36.1483720  92.2674290  70.0928580  48.8624560
  91.5532810  70.2925500  49.4677170  92.6869330  69.3168150  49.2339360
 106.3705240  79.7059060  36.2618390 106.0826940  80.1671750  37.0496270
 107.1657410  79.2456830  36.5302610  92.5546880  84.0808840  49.8491090
  92.6638000  83.1403580  49.7086480  91.9027440  84.3463590  49.2004820
 100.5459470  82.3524730  51.2489210 100.2256340  81.6333970  51.7934900
  99.8717830  83.0279800  51.3225270  98.5873640  83.1985180  36.1922360
  98.5783740  83.9314870  35.5766870  97.6672000  82.9516760  36.2849320
  94.1880280  78.4200070  36.9369120  93.5808230  79.1598970  36.9464420
  94.6629630  78.5099430  36.1107320 103.7613070  72.5850890  46.6126010
 104.1293890  71.7646100  46.9405580 102.9011270  72.6452780  47.0281660
 107.1275100  71.5407830  37.4213570 106.4988260  71.6453500  36.7071800
 106.6327020  71.7604610  38.2107450 101.5733240  83.2613420  34.8547550
 101.6745220  83.0577410  33.9249530 100.6734980  83.0071700  35.0595330
  99.0959130  73.8193780  38.8371450  98.3875280  74.2880120  39.2785060
  99.3803610  73.1615790  39.4716640 100.7215060  75.2390480  46.8363980
 101.2200310  75.7136300  47.5015830 100.8638010  74.3154000  47.0434010
 103.1274560  70.5444440  40.2767240 103.0042340  70.5630570  39.3276750
 104.0759120  70.5923380  40.3965640 100.2151350  85.7799740  39.5495220
 100.4692850  85.7421130  38.6274590  99.2663830  85.6533070  39.5423470
  97.2994150  72.1278860  36.2122160  98.1484680  72.5649010  36.1462350
  96.9325420  72.4399120  37.0394220 107.9281920  71.4558440  47.6792370
 107.4255520  72.1963840  48.0186180 108.7438580  71.8442440  47.3629160
 106.2203930  76.6991620  41.1253730 105.2794070  76.7141850  41.3001420
 106.5348000  75.9127580  41.5714030  96.1985570  78.3811220  34.6857690
  96.9648840  78.2692580  35.2483120  96.2760260  77.6849190  34.0334460
  94.8932330  75.8136290  35.3690580  94.9735920  74.8663800  35.4807980
  95.7852080  76.1443170  35.4751240 108.2229510  83.8700470  42.8007990
 108.3476930  84.6931640  43.2731800 109.0895070  83.6591200  42.4532140
  95.6947040  85.9631680  42.4725120  96.4309520  85.4147140  42.7433690
  96.0787960  86.8287690  42.3331110  92.5792520  82.0305250  38.3466630
  91.6532300  82.2726390  38.3372040  93.0448950  82.8579510  38.2251380
  94.7005320  85.1477750  51.6610700  95.5018050  85.4689800  52.0746100
  94.1857140  84.7873330  52.3830610  98.8049350  85.1361990  34.2950690
  99.5977960  85.4250820  33.8432480  98.2853700  84.7054160  33.6163170
 103.5369950  81.2557620  51.6086110 102.9308110  81.2789220  50.8681860
 103.2324060  80.5240660  52.1453360 104.9670320  84.9837910  50.2195520
 105.9192070  84.8995930  50.1695760 104.8198540  85.6479620  50.8929310
 107.8579520  84.3632120  35.7187430 107.5721030  83.9497260  34.9041610
 107.6599070  85.2919830  35.5987950  92.4203130  77.6351210  50.6046750
  92.9242150  77.0558490  51.1762980  91.6810550  77.9191440  51.1423120
  99.3226750  80.3565400  34.1593040  99.2177390  79.7417750  34.8854420
  99.1550970  79.8331290  33.3756050  99.4741070  79.0422200  50.1382270
  98.7086740  79.6107200  50.0536940  99.6557030  78.7498410  49.2450500
 102.5629480  79.4185430  34.7635030 102.0139580  79.8654730  35.4077770
 103.1848740  78.9134680  35.2872700 106.6164420  80.7727530  50.6957290
 107.3573890  81.1103290  50.1924750 105.8537100  80.9419590  50.1427060
  94.4526210  75.7780800  51.4996820  94.4931550  75.4794670  52.4082050
  95.3071710  76.1788410  51.3404340  98.2304600  78.3776350  36.6600330
  98.6521020  78.2116220  37.5031720  98.3555440  77.5676580  36.1655470
  96.3932020  74.3572900  49.4671310  95.8628480  73.8663850  48.8394650
  97.0620090  74.7857100  48.9329240 100.7432240  77.4013960  33.9077430
 101.2637900  76.6862980  33.5418580 101.3900640  78.0399830  34.2077940
 105.2910080  78.8242360  49.2312500 105.7051100  78.9787440  50.0802920
 104.3561080  78.9497580  49.3938280 105.7632250  76.1638520  51.2351650
 106.3453020  75.4090840  51.1472130 105.9394020  76.6945960  50.4583130
  96.8804320  71.3235270  49.5468600  96.7861190  70.7056020  48.8219470
  96.3001710  72.0501560  49.3198510  99.6465760  69.8808510  46.5795990
  99.1983060  69.9032770  45.7341540  99.0130960  69.4827530  47.1766290
 100.0525310  78.7762840  47.2008430 100.4713420  79.6195570  47.0284670
  99.1333940  78.9134880  46.9715210 102.3889210  76.5079020  48.5846270
 102.5085420  75.9120160  49.3241110 103.2483210  76.5448710  48.1647570
 104.7277110  77.0616210  47.1608780 104.2012330  77.5858830  46.5573920
 105.0708450  77.6943600  47.7918510  97.1263500  74.4509580  33.6058490
  96.9252560  73.5876940  33.9671830  96.9555550  74.3642940  32.6680090
  97.9032730  85.0815850  48.3166160  97.3653820  85.8061910  47.9974860
  98.1566690  84.6046190  47.5263500  99.1557980  73.0500370  49.8422090
  99.7457670  72.7416220  50.5299910  98.3378220  72.5780120  49.9981990
 103.9751410  72.6666180  50.0755110 103.2866930  72.0047720  50.0105100
 104.6957430  72.2204450  50.5203570 104.6051810  69.2617810  36.1345370
 104.8854100  68.4185710  36.4904790 103.8317540  69.4940920  36.6484120
  95.9246300  71.5510200  33.5936370  96.2272200  71.5577630  32.6855520
  96.6640890  71.2008060  34.0904030 100.7594940  86.3167060  48.5752810
 100.6853640  87.2202200  48.8825180  99.8573780  85.9978960  48.5474880
  99.1431230  70.4944820  34.5792570  98.7953230  69.8168810  33.9995020
  99.3444000  70.0334330  35.3935960 101.3080270  85.4825570  36.1979170
 102.2031060  85.8210540  36.2197930 101.3397900  84.7604980  35.5703450
  94.9476430  80.8552620  34.4266170  95.3851300  81.3982290  35.0823750
  95.4324160  80.0299570  34.4362510  92.1622230  83.6441650  41.8786430
  92.4925240  82.7762710  41.6465070  92.5913230  83.8500170  42.7091390
  96.7584150  81.9750660  39.5388400  96.4579690  81.8515630  40.4392310
  96.6521640  81.1159250  39.1304130  92.6512440  84.5112240  44.6168060
  92.2143430  84.6913040  45.4492210  93.2190120  85.2686860  44.4749780
 108.2874620  84.0129240  48.9045370 107.6876610  84.0721800  48.1609290
 108.4168520  83.0734220  49.0342220 109.5276070  81.7547060  34.2415080
 108.6969030  81.8223710  34.7122310 109.7047900  82.6451180  33.9381940
 108.9832530  78.4994540  36.7449280 109.7451440  79.0691190  36.8508970
 108.9986900  77.9321740  37.5157590  92.4836870  77.0232470  40.9756940
  91.8285710  76.7544110  40.3316640  93.3214820  76.9136950  40.5258920
 109.9892500  79.3544640  41.5891210 110.3601330  78.5711960  41.1827180
 110.6294430  80.0433740  41.4108510 106.9726260  80.7381220  47.0021530
 106.1586100  81.1678380  47.2647320 107.3800460  81.3499630  46.3890580
 109.0351700  78.7928910  33.9021800 109.3100540  79.7007790  33.7741020
 108.8462440  78.7291440  34.8383790 105.4327310  71.8173760  35.1975430
 105.8512190  71.6304740  34.3572090 105.1263370  70.9652810  35.5078360
 108.9317040  76.7297900  38.8951230 108.5560640  75.9625830  38.4632520
 108.2020160  77.1120600  39.3826160  93.5212800  77.4085040  45.5160280
  93.8885840  77.3212440  46.3956300  92.9523620  76.6451590  45.4167140
 108.3216660  75.8769420  48.5290750 108.0902750  75.6482170  47.6288700
 108.5821210  76.7968970  48.4835640  93.0728800  74.3194130  49.4218700
  92.1784850  74.2860890  49.7612410  93.6126350  74.5180920  50.1869950
 106.7604730  71.1025850  51.3070450 107.6374910  71.1109250  51.6904450
 106.7725570  70.3656690  50.6962800  91.6974950  74.2331400  36.9182270
  90.7939030  74.4961600  36.7433930  92.1815570  74.5042570  36.1382230
 108.2068000  74.9555390  42.1958470 108.7305480  74.4618040  41.5648640
 108.7927420  75.0905750  42.9406040 108.3857720  75.0395260  45.7178020
 107.4360430  75.0058800  45.8323010 108.5670730  75.9495370  45.4827790
  94.2402160  73.2896940  34.8276650  94.9493860  72.8680160  34.3423930
  93.5242100  73.3572170  34.1960000  93.8876320  69.3436270  33.8679300
  94.6104450  69.8845210  34.1860520  94.1600840  69.0699690  32.9920840
 107.6967970  74.2128740  38.1350880 108.1927090  73.9799610  38.9199760
 107.4984040  73.3740580  37.7188520  93.5768510  68.5942460  43.7701920
  94.2244700  68.0439840  43.3297080  93.9970350  68.8485610  44.5917730
 109.1255130  72.8489690  40.6688560 109.0154410  72.6945730  41.6070830
 109.8862720  72.3210630  40.4263970 107.4720850  68.7883820  47.1271560
 108.1093070  69.4017960  47.4930750 107.6195740  68.8244480  46.1820790
 110.0145400  70.6797610  33.9094700 110.9394710  70.5478790  33.7012990
 109.9921190  70.7590430  34.8631150 110.0883890  71.4508270  36.5351410
 109.2935390  71.3853390  37.0644320 110.2927170  72.3858910  36.5236760
 107.0302310  85.4899820  40.5289800 107.6261380  85.1684390  39.8524220
 107.2880460  85.0171640  41.3203070  93.3300510  68.7498130  46.5127240
  92.9815330  69.2061950  47.2785420  92.9988210  67.8555260  46.5949670
  94.9364880  81.9217730  50.6780430  94.8934510  81.5510640  51.5594890
  95.0675890  82.8595300  50.8182250  98.6370910  83.4777320  46.2790150
  98.3962270  83.7451880  45.3920670  99.5773550  83.6483050  46.3341010
 100.8425330  69.9410010  50.0346660 100.7814220  70.5331840  50.7842070
 101.7825710  69.8335970  49.8896920 103.4799890  69.5980070  49.6738950
 104.0940300  69.9159360  49.0120030 104.0249450  69.1128660  50.2934810
 109.8975070  85.4971700  47.0800790 109.4033350  85.8940570  46.3627920
 109.2888360  84.8720910  47.4738070  94.0021150  68.2774330  49.7878010
  94.5504140  68.0962380  49.0244120  94.0676460  67.4868440  50.3234320
  94.7752910  84.8679980  47.7978210  94.1813230  84.7364680  48.5368250
  94.7676750  84.0318120  47.3320310 104.2207930  68.1612210  46.0008240
 103.3467770  68.4947320  45.7981170 104.1118680  67.6885390  46.8260110
 105.1279910  70.3683080  47.3849960 104.7993270  69.5534840  47.0051690
 106.0762210  70.3252890  47.2615650 107.5814520  86.1395120  44.3587530
 107.1217490  86.8910930  43.9845550 106.9526980  85.4201590  44.3002330
  94.4065140  82.2338360  46.7486250  93.6799200  81.6143650  46.6812200
  94.4674290  82.6278970  45.8784330  98.0110240  84.4483360  43.5335660
  98.5275260  83.8370720  43.0083920  98.6607620  84.9512140  44.0246670
 100.7505740  85.3391850  44.3604640 101.0383550  85.0846150  43.4837650
 101.2628960  84.7869210  44.9510210 101.9682750  69.0782050  44.9401150
 101.1854540  69.5527550  45.2197910 101.6745680  68.1736880  44.8314330
 106.5203820  69.7805150  42.9850240 106.9611910  69.7250250  42.1371840
 106.2511410  70.6963160  43.0560420 108.3842390  69.4120390  40.9959060
 108.3230790  68.4681610  40.8490080 109.1634420  69.5200480  41.5412520
  92.6895140  85.5512750  39.9583010  92.5217180  84.9183430  40.6564900
  91.8229650  85.7572150  39.6077200  93.3123160  69.3829530  37.4614870
  94.0702520  69.4958410  36.8878900  92.8500330  70.2198730  37.4158300
  99.8536970  71.4968800  40.4517180  99.0411480  71.1225690  40.1113060
 100.3578610  70.7413880  40.7538370 104.3561950  68.1611250  41.6900250
 104.9591320  68.7331460  42.1648770 103.6154940  68.7250690  41.4674150
 107.4996550  68.5632810  36.9640530 107.6947180  69.4616260  37.2307960
 106.7126420  68.3319890  37.4573480  94.2957840  84.2445980  37.4033150
  93.7705460  84.6254010  36.6995110  94.2202420  84.8696750  38.1242860
  95.6848310  69.9093580  36.0016840  96.2141070  69.1223380  35.8724790
  96.3176630  70.5884770  36.2352370  97.8786150  69.6468720  39.0562230
  97.2488890  68.9456030  39.2232360  97.3391290  70.4072850  38.8395390
 100.8178100  86.2607950  51.7272840 101.7445410  86.0252220  51.7708800
 100.8028530  87.0879950  51.2458870 109.0523160  85.8033520  38.7247090
 109.2275350  85.1171260  38.0808010 108.3544730  86.3280570  38.3323760
  98.0041710  68.9252700  51.4914720  97.7225980  69.4286300  50.7275540
  98.3861410  68.1274450  51.1256850  96.8950810  86.1928360  36.2782400
  97.6269630  85.9087640  35.7306290  97.1544480  85.9541640  37.1681780
  96.0565600  82.3093090  36.2828730  95.4274480  82.7778190  36.8314560
  96.1713430  81.4642310  36.7174920 104.6057170  68.3406280  52.0695190
 104.4922620  68.6600890  52.9646710 105.4226910  68.7418790  51.7732470
 107.3855660  85.4877810  51.5513880 108.1780980  84.9927040  51.3439840
 107.6788810  86.1667950  52.1589490 103.5115320  76.3598750  22.4329930
 103.4309370  75.4453360  22.1621640 103.0979740  76.8565820  21.7269640
 101.6433360  78.1377770  24.3139200 100.8675460  77.6578210  24.6037770
 102.2946290  77.4583420  24.1395360  95.6599190  78.4497580  25.1914960
  94.8284070  78.1946290  25.5911470  96.2680170  78.5208350  25.9272880
 105.6640790  82.5437960  23.0938330 105.2022320  81.7725200  23.4225500
 106.4766340  82.5704030  23.5990780  95.6400450  82.4837670  25.3872980
  95.9428490  81.5935410  25.2083200  96.3844040  83.0407890  25.1595230
  94.0691140  73.4099470  18.9757350  93.1807840  73.7515440  18.8737230
  94.3532330  73.2099790  18.0838180  92.0324150  76.0105120  24.8597050
  92.6040260  75.2427320  24.8600690  92.0325690  76.3093880  23.9503660
 101.8904100  84.8295970  22.7142320 101.2715540  85.2853470  22.1436760
 102.7455880  84.9847430  22.3132020 101.0842350  80.8134960  24.3209360
 101.0150630  79.8724900  24.1598490 101.8462210  80.9036370  24.8931930
  93.2749020  71.4189480  26.6465980  93.0951860  70.5215230  26.9268740
  92.8729100  71.9661350  27.3212930 102.1147520  73.6205340  24.5478290
 102.4912340  72.7477220  24.4351960 102.0167030  73.9564040  23.6568730
  96.2452530  71.9930970  20.0095730  96.3519280  72.8934700  20.3164490
  95.3344890  71.9448940  19.7190380 105.8971640  71.1155780  21.4806630
 106.7181260  70.6252350  21.5232110 105.9305720  71.7053440  22.2338470
  93.8935690  73.9149980  25.2548320  94.5745800  74.1788350  25.8735720
  93.5783740  73.0750850  25.5886330  98.0860260  74.9617340  24.3420910
  98.5938480  75.4598310  24.9825930  98.6173500  74.1852540  24.1660270
 110.1871190  73.1322530  28.0450260 109.4823360  73.5204240  27.5265370
 110.4529110  73.8272820  28.6471190  96.3696360  69.6015900  28.6084330
  96.3714800  70.1188290  27.8030230  95.5400670  69.1246080  28.5854260
 102.7567450  79.7135210  20.1074230 102.1384720  80.1784660  19.5436950
 103.2690700  80.4062690  20.5243740  97.6199210  79.2411080  26.7857830
  97.2868590  79.8680000  27.4278900  97.7965890  79.7672960  26.0059500
 106.1333120  73.0556160  24.2534170 105.4288690  73.3441050  24.8337280
 106.4945280  73.8656270  23.8933730  96.0511690  71.3125860  26.6154780
  96.3928500  72.1567910  26.3208650  95.1127500  71.4609600  26.7320120
  96.8318310  81.2091880  28.6007010  97.4492310  81.8842960  28.3191460
  95.9711430  81.6179860  28.5094510  92.1250650  80.3991740  17.4813860
  91.7478630  80.8878840  16.7498760  92.3823720  81.0717020  18.1120390
 107.7495900  82.6731290  26.5161650 107.0659420  83.3430400  26.5078320
 108.2890190  82.8711940  25.7506510 109.2020040  72.5010950  24.6443380
 108.2544950  72.5349930  24.7758810 109.5270030  73.3149900  25.0292740
  99.7339580  68.8008130  22.9399370 100.0414560  68.2455020  22.2234870
  98.8040280  68.9352590  22.7572360 105.2854640  84.5175420  25.2306830
 105.2981800  84.1137710  24.3629090 104.7329860  85.2922710  25.1268260
 106.5800060  81.2391640  20.3197000 106.4696390  80.2965970  20.4446420
 106.5768310  81.6007280  21.2059760 104.6840080  79.4205260  26.5589440
 105.1008870  79.2065370  25.7242900 105.4079900  79.6778050  27.1298060
 102.1220340  76.8656960  19.6759490 101.1949620  76.7994340  19.9047960
 102.2745160  77.8037090  19.5614730 102.1089420  73.1373960  16.6726650
 101.1693090  73.2987920  16.7579110 102.4272680  73.8559640  16.1262640
 108.6302180  77.8192480  26.6505680 107.8020810  77.8885570  26.1755810
 109.2252660  78.4046790  26.1821510 106.1517630  78.4277260  20.1794740
 105.5330050  78.0896810  19.5321040 106.1342080  77.7837020  20.8873930
 105.5944190  74.6061800  27.5960550 105.1815370  75.4315510  27.8500540
 104.8620140  74.0206840  27.4036910  97.7276980  77.3921700  22.4579220
  97.3233980  76.6798950  21.9625120  97.8140100  77.0474940  23.3467260
  98.1958680  81.0789260  24.6218430  97.8986970  80.4734730  23.9426210
  99.1458500  81.1166570  24.5107790  96.4405600  74.1664910  26.2378260
  96.9920190  74.2760250  25.4631510  96.9549110  74.5402510  26.9533490
 106.2844290  84.6521130  28.2841530 105.8074850  85.4593320  28.0914140
 105.6006080  83.9999460  28.4367740  97.2877110  80.8170950  31.2726230
  96.3905640  81.0410920  31.5199630  97.3129980  80.9405890  30.3237630
 104.3282330  77.6664070  17.1867490 104.7675610  76.8286500  17.0405310
 105.0410750  78.2993470  17.2731630  96.1148330  77.6884270  29.8483600
  95.9756100  78.5607070  30.2171000  95.2329690  77.3457080  29.7031540
 102.4377710  82.6060140  21.1548730 102.8773620  83.3484470  20.7404120
 102.3764600  82.8486710  22.0787690  97.9128680  83.6305970  32.0568750
  97.8844110  84.0348920  31.1897180  97.7493650  82.7016330  31.8940350
 107.9099470  68.9206880  15.5008530 107.5972130  69.0133710  16.4007600
 108.6711940  69.4987910  15.4505960  94.4281610  76.2866680  19.9585870
  94.3079210  77.0128770  19.3467140  94.1182500  75.5169590  19.4813780
 109.8643500  84.4133070  33.3532920 110.3403220  84.8915960  34.0322000
 110.4850660  84.3450560  32.6278420  92.0666980  79.4581820  25.7654510
  92.1447400  79.5930590  24.8210230  92.6808660  78.7497710  25.9582630
  93.3114610  81.1582010  22.1760690  92.9042690  81.2996600  21.3214290
  94.2027620  80.8742170  21.9731900 109.2676750  81.6045920  30.5132930
 109.3939810  81.3657800  29.5950110 109.3098130  80.7730460  30.9855010
 103.1293490  85.3073920  29.0827740 103.6438160  85.2181930  29.8850170
 102.2862570  85.6533620  29.3755650 105.1047890  85.5929260  18.5111740
 104.9449030  85.3032200  19.4093570 104.9394600  84.8169390  17.9756970
  97.5836270  85.3727790  20.2883360  97.4078750  84.4563330  20.0751160
  96.7292010  85.7315080  20.5281160 104.8074020  83.1016820  17.0709740
 104.1139180  83.0994110  16.4112020 105.5496880  82.6776140  16.6403910
 104.3723950  84.7279530  21.1458230 104.8280900  83.9468910  21.4596850
 104.7116470  85.4386350  21.6899410 109.1200760  73.6578380  31.4782670
 108.5045030  74.1658050  30.9498130 108.7997180  72.7576710  31.4208610
  92.1226500  80.4995990  28.3048970  92.2857540  80.0301350  27.4868340
  92.5878950  79.9919550  28.9697810  96.8945270  69.6301750  23.3409540
  96.4513420  70.4111290  23.0094060  97.4530260  69.9531640  24.0480480
 101.1815080  72.4970270  28.9444860 100.7194450  72.7053290  29.7564800
 100.7793190  71.6829620  28.6415530 106.1819590  73.7179220  30.0741520
 105.3313180  73.4184970  30.3950590 106.0221380  73.9621230  29.1625340
 103.2769300  75.2180970  32.1740310 103.6022710  74.3844720  31.8342540
 104.0649630  75.7409490  32.3218640 100.0104090  69.2512450  18.2215370
  99.3858270  69.2472320  18.9468680  99.9234210  68.3843410  17.8251340
  98.9321170  70.1749080  25.1999140  99.2293500  71.0811910  25.1191160
  99.4806730  69.6867860  24.5858710  96.6859490  74.7535320  21.0690790
  96.4600410  74.5372490  21.9737410  95.9052020  75.1863780  20.7236760
 103.9157250  74.7598690  19.6681440 103.3166140  75.4834490  19.4845060
 104.4636860  74.6975470  18.8857890  99.1258700  75.6520900  31.7351060
  99.0302300  74.7115630  31.5851460  99.9690680  75.8735970  31.3399130
 102.5222120  73.3962230  21.6984720 102.9151690  73.7134430  20.8853410
 102.8838970  72.5174110  21.8129240  94.2569240  72.0634570  29.8884840
  93.8632630  72.9109780  30.0957620  93.5687640  71.4260940  30.0793480
 100.8314290  72.1469540  32.9581580 100.1412610  71.9541740  33.5927670
 101.5746590  72.4304180  33.4905880  91.5586290  69.9863030  23.9214920
  91.2699340  70.5565890  24.6339900  92.3032050  69.5067480  24.2846150
  91.7456520  73.9283150  15.1317640  91.6631190  74.8713910  15.2732630
  91.3939580  73.7858060  14.2529990 103.1077260  75.9867980  25.7935500
 102.3758380  76.4954790  26.1425600 102.7101600  75.1697960  25.4924280
  99.5454650  72.6622180  24.1987990  99.5490710  72.2212130  23.3492530
 100.4405770  72.9839510  24.3059810  95.3957030  72.5448670  23.1582200
  95.0557080  73.0223900  23.9149250  94.6334350  72.0913790  22.7983300
  99.6074800  73.6634260  17.1894750  99.7287620  73.6220740  18.1380570
  99.2223310  74.5258410  17.0341480 103.5703170  71.4401660  25.2058440
 103.5875910  71.8910310  26.0500290 103.3218750  70.5407300  25.4191880
  98.6196300  75.9735400  16.5878050  98.0513200  75.5253650  15.9613960
  99.3285300  76.3328180  16.0543200 106.9973920  68.8533840  31.0444820
 107.3219690  68.1223500  31.5702800 107.0330430  68.5347480  30.1425810
  93.6965480  79.8747420  30.4644780  93.3120270  79.2341090  31.0627740
  94.0077670  80.5783540  31.0339510  99.8462620  76.7223960  25.9453400
 100.2132750  76.2482530  26.6914740  99.6567680  77.5965530  26.2861740
  92.7103110  71.4667650  22.0746870  92.4250030  71.1023320  22.9125490
  92.6481970  70.7348110  21.4610010  97.6361990  75.7632600  28.2637610
  97.3319060  76.6424580  28.4887970  98.5908450  75.8232390  28.2995050
  96.1643780  79.9693590  18.8604460  95.3906040  79.4291210  18.7003180
  96.8938410  79.4500200  18.5222220 106.9231760  78.9658950  24.6530850
 107.6430880  79.4614240  24.2626960 106.7213580  78.2876840  24.0084720
 102.3841700  70.3596910  18.7960240 101.5706310  69.8610080  18.7205550
 102.1903650  71.1995160  18.3796590 102.3050560  79.0368010  30.5399850
 102.2387870  78.1163680  30.2857440 101.6755700  79.1343450  31.2544490
 105.0990090  74.7316560  17.0922400 105.9869710  75.0433790  16.9173740
 105.0695180  73.8588810  16.7002980  96.2081180  79.6373970  22.4983270
  96.7259850  78.8342230  22.4440160  95.7565200  79.5753110  23.3400100
 101.0950680  80.9040250  17.7710570 101.4366380  81.6482480  17.2753890
 100.2663390  81.2171370  18.1335400  93.6925720  76.6035340  29.4108970
  93.3340660  77.2689190  29.9982310  93.3980280  75.7718890  29.7821590
  96.8938840  77.0619580  32.2948520  96.5938980  77.2076760  31.3976340
  97.6650080  76.5024870  32.2021910 102.2367290  81.8588580  30.2903650
 102.2511830  80.9269540  30.0722560 101.5292390  81.9448340  30.9293420
 107.3704360  76.0428400  16.5602260 107.2868080  76.4742620  15.7098700
 108.0898550  76.5026750  16.9929080 108.4478500  78.4995920  29.6372230
 107.7226690  79.0924700  29.4401620 108.9753960  78.4919460  28.8385600
 108.3991610  82.8970660  19.2884390 107.7567770  82.2426280  19.5628110
 108.0122270  83.3025750  18.5125060 103.9778090  80.2256090  23.1356080
 104.3301910  79.6284220  22.4757450 103.0940420  79.9000320  23.3064330
 100.0641370  80.9853780  20.5426490 100.7512500  81.5322990  20.9234080
  99.2773790  81.5294510  20.5776100  92.2033770  76.6026600  16.0343570
  93.0728620  76.8851400  16.3179490  91.7124090  77.4162470  15.9192380
  99.3668580  77.9899810  20.1551850  99.8231360  78.8005060  20.3812040
  99.0156790  77.6722950  20.9870340 101.6701190  83.5006150  27.3844150
 102.3143410  83.7065530  28.0617570 102.0330630  82.7394550  26.9315000
  95.2680360  68.3337460  20.6274370  95.1394990  68.3255360  21.5759290
  94.4442380  68.6720550  20.2765380 102.9433270  81.5038500  26.1021600
 103.5855500  80.8031660  26.2153770 103.4682620  82.2836940  25.9218490
 106.7888990  81.7887120  15.8260740 106.5626570  81.0717560  16.4185380
 106.3985190  81.5399560  14.9882490 104.7170890  82.3033400  29.3057660
 105.0527130  82.8900090  29.9835580 103.7971230  82.1726110  29.5355450
  92.5705020  85.8153980  16.6005200  92.9302660  86.4143320  15.9462470
  92.4297360  86.3613870  17.3740230  92.2674290  70.0928580  30.0881070
  91.5532810  70.2925500  30.6933680  92.6869330  69.3168150  30.4595870
 106.3705240  79.7059060  17.4874900 106.0826940  80.1671750  18.2752780
 107.1657410  79.2456830  17.7559120  92.5546880  84.0808840  31.0747600
  92.6638000  83.1403580  30.9342990  91.9027440  84.3463590  30.4261330
 100.5459470  82.3524730  32.4745720 100.2256340  81.6333970  33.0191410
  99.8717830  83.0279800  32.5481780  98.5873640  83.1985180  17.4178870
  98.5783740  83.9314870  16.8023380  97.6672000  82.9516760  17.5105830
  94.1880280  78.4200070  18.1625630  93.5808230  79.1598970  18.1720930
  94.6629630  78.5099430  17.3363830 103.7613070  72.5850890  27.8382520
 104.1293890  71.7646100  28.1662090 102.9011270  72.6452780  28.2538170
 107.1275100  71.5407830  18.6470080 106.4988260  71.6453500  17.9328310
 106.6327020  71.7604610  19.4363960 101.5733240  83.2613420  16.0804060
 101.6745220  83.0577410  15.1506040 100.6734980  83.0071700  16.2851840
  99.0959130  73.8193780  20.0627960  98.3875280  74.2880120  20.5041570
  99.3803610  73.1615790  20.6973150 100.7215060  75.2390480  28.0620490
 101.2200310  75.7136300  28.7272340 100.8638010  74.3154000  28.2690520
 103.1274560  70.5444440  21.5023750 103.0042340  70.5630570  20.5533260
 104.0759120  70.5923380  21.6222150 100.2151350  85.7799740  20.7751730
 100.4692850  85.7421130  19.8531100  99.2663830  85.6533070  20.7679980
  97.2994150  72.1278860  17.4378670  98.1484680  72.5649010  17.3718860
  96.9325420  72.4399120  18.2650730 107.9281920  71.4558440  28.9048880
 107.4255520  72.1963840  29.2442690 108.7438580  71.8442440  28.5885670
 106.2203930  76.6991620  22.3510240 105.2794070  76.7141850  22.5257930
 106.5348000  75.9127580  22.7970540  96.1985570  78.3811220  15.9114200
  96.9648840  78.2692580  16.4739630  96.2760260  77.6849190  15.2590970
  94.8932330  75.8136290  16.5947090  94.9735920  74.8663800  16.7064490
  95.7852080  76.1443170  16.7007750 108.2229510  83.8700470  24.0264500
 108.3476930  84.6931640  24.4988310 109.0895070  83.6591200  23.6788650
  95.6947040  85.9631680  23.6981630  96.4309520  85.4147140  23.9690200
  96.0787960  86.8287690  23.5587620  92.5792520  82.0305250  19.5723140
  91.6532300  82.2726390  19.5628550  93.0448950  82.8579510  19.4507890
  94.7005320  85.1477750  32.8867210  95.5018050  85.4689800  33.3002610
  94.1857140  84.7873330  33.6087120  98.8049350  85.1361990  15.5207200
  99.5977960  85.4250820  15.0688990  98.2853700  84.7054160  14.8419680
 103.5369950  81.2557620  32.8342620 102.9308110  81.2789220  32.0938370
 103.2324060  80.5240660  33.3709870 104.9670320  84.9837910  31.4452030
 105.9192070  84.8995930  31.3952270 104.8198540  85.6479620  32.1185820
 107.8579520  84.3632120  16.9443940 107.5721030  83.9497260  16.1298120
 107.6599070  85.2919830  16.8244460  92.4203130  77.6351210  31.8303260
  92.9242150  77.0558490  32.4019490  91.6810550  77.9191440  32.3679630
  99.3226750  80.3565400  15.3849550  99.2177390  79.7417750  16.1110930
  99.1550970  79.8331290  14.6012560  99.4741070  79.0422200  31.3638780
  98.7086740  79.6107200  31.2793450  99.6557030  78.7498410  30.4707010
 102.5629480  79.4185430  15.9891540 102.0139580  79.8654730  16.6334280
 103.1848740  78.9134680  16.5129210 106.6164420  80.7727530  31.9213800
 107.3573890  81.1103290  31.4181260 105.8537100  80.9419590  31.3683570
  94.4526210  75.7780800  32.7253330  94.4931550  75.4794670  33.6338560
  95.3071710  76.1788410  32.5660850  98.2304600  78.3776350  17.8856840
  98.6521020  78.2116220  18.7288230  98.3555440  77.5676580  17.3911980
  96.3932020  74.3572900  30.6927820  95.8628480  73.8663850  30.0651160
  97.0620090  74.7857100  30.1585750 100.7432240  77.4013960  15.1333940
 101.2637900  76.6862980  14.7675090 101.3900640  78.0399830  15.4334450
 105.2910080  78.8242360  30.4569010 105.7051100  78.9787440  31.3059430
 104.3561080  78.9497580  30.6194790 105.7632250  76.1638520  32.4608160
 106.3453020  75.4090840  32.3728640 105.9394020  76.6945960  31.6839640
  96.8804320  71.3235270  30.7725110  96.7861190  70.7056020  30.0475980
  96.3001710  72.0501560  30.5455020  99.6465760  69.8808510  27.8052500
  99.1983060  69.9032770  26.9598050  99.0130960  69.4827530  28.4022800
 100.0525310  78.7762840  28.4264940 100.4713420  79.6195570  28.2541180
  99.1333940  78.9134880  28.1971720 102.3889210  76.5079020  29.8102780
 102.5085420  75.9120160  30.5497620 103.2483210  76.5448710  29.3904080
 104.7277110  77.0616210  28.3865290 104.2012330  77.5858830  27.7830430
 105.0708450  77.6943600  29.0175020  97.1263500  74.4509580  14.8315000
  96.9252560  73.5876940  15.1928340  96.9555550  74.3642940  13.8936600
  97.9032730  85.0815850  29.5422670  97.3653820  85.8061910  29.2231370
  98.1566690  84.6046190  28.7520010  99.1557980  73.0500370  31.0678600
  99.7457670  72.7416220  31.7556420  98.3378220  72.5780120  31.2238500
 103.9751410  72.6666180  31.3011620 103.2866930  72.0047720  31.2361610
 104.6957430  72.2204450  31.7460080 104.6051810  69.2617810  17.3601880
 104.8854100  68.4185710  17.7161300 103.8317540  69.4940920  17.8740630
  95.9246300  71.5510200  14.8192880  96.2272200  71.5577630  13.9112030
  96.6640890  71.2008060  15.3160540 100.7594940  86.3167060  29.8009320
 100.6853640  87.2202200  30.1081690  99.8573780  85.9978960  29.7731390
  99.1431230  70.4944820  15.8049080  98.7953230  69.8168810  15.2251530
  99.3444000  70.0334330  16.6192470 101.3080270  85.4825570  17.4235680
 102.2031060  85.8210540  17.4454440 101.3397900  84.7604980  16.7959960
  94.9476430  80.8552620  15.6522680  95.3851300  81.3982290  16.3080260
  95.4324160  80.0299570  15.6619020  92.1622230  83.6441650  23.1042940
  92.4925240  82.7762710  22.8721580  92.5913230  83.8500170  23.9347900
  96.7584150  81.9750660  20.7644910  96.4579690  81.8515630  21.6648820
  96.6521640  81.1159250  20.3560640  92.6512440  84.5112240  25.8424570
  92.2143430  84.6913040  26.6748720  93.2190120  85.2686860  25.7006290
 108.2874620  84.0129240  30.1301880 107.6876610  84.0721800  29.3865800
 108.4168520  83.0734220  30.2598730 109.5276070  81.7547060  15.4671590
 108.6969030  81.8223710  15.9378820 109.7047900  82.6451180  15.1638450
 108.9832530  78.4994540  17.9705790 109.7451440  79.0691190  18.0765480
 108.9986900  77.9321740  18.7414100  92.4836870  77.0232470  22.2013450
  91.8285710  76.7544110  21.5573150  93.3214820  76.9136950  21.7515430
 109.9892500  79.3544640  22.8147720 110.3601330  78.5711960  22.4083690
 110.6294430  80.0433740  22.6365020 106.9726260  80.7381220  28.2278040
 106.1586100  81.1678380  28.4903830 107.3800460  81.3499630  27.6147090
 109.0351700  78.7928910  15.1278310 109.3100540  79.7007790  14.9997530
 108.8462440  78.7291440  16.0640300 105.4327310  71.8173760  16.4231940
 105.8512190  71.6304740  15.5828600 105.1263370  70.9652810  16.7334870
 108.9317040  76.7297900  20.1207740 108.5560640  75.9625830  19.6889030
 108.2020160  77.1120600  20.6082670  93.5212800  77.4085040  26.7416790
  93.8885840  77.3212440  27.6212810  92.9523620  76.6451590  26.6423650
 108.3216660  75.8769420  29.7547260 108.0902750  75.6482170  28.8545210
 108.5821210  76.7968970  29.7092150  93.0728800  74.3194130  30.6475210
  92.1784850  74.2860890  30.9868920  93.6126350  74.5180920  31.4126460
 106.7604730  71.1025850  32.5326960 107.6374910  71.1109250  32.9160960
 106.7725570  70.3656690  31.9219310  91.6974950  74.2331400  18.1438780
  90.7939030  74.4961600  17.9690440  92.1815570  74.5042570  17.3638740
 108.2068000  74.9555390  23.4214980 108.7305480  74.4618040  22.7905150
 108.7927420  75.0905750  24.1662550 108.3857720  75.0395260  26.9434530
 107.4360430  75.0058800  27.0579520 108.5670730  75.9495370  26.7084300
  94.2402160  73.2896940  16.0533160  94.9493860  72.8680160  15.5680440
  93.5242100  73.3572170  15.4216510  93.8876320  69.3436270  15.0935810
  94.6104450  69.8845210  15.4117030  94.1600840  69.0699690  14.2177350
 107.6967970  74.2128740  19.3607390 108.1927090  73.9799610  20.1456270
 107.4984040  73.3740580  18.9445030  93.5768510  68.5942460  24.9958430
  94.2244700  68.0439840  24.5553590  93.9970350  68.8485610  25.8174240
 109.1255130  72.8489690  21.8945070 109.0154410  72.6945730  22.8327340
 109.8862720  72.3210630  21.6520480 107.4720850  68.7883820  28.3528070
 108.1093070  69.4017960  28.7187260 107.6195740  68.8244480  27.4077300
 110.0145400  70.6797610  15.1351210 110.9394710  70.5478790  14.9269500
 109.9921190  70.7590430  16.0887660 110.0883890  71.4508270  17.7607920
 109.2935390  71.3853390  18.2900830 110.2927170  72.3858910  17.7493270
 107.0302310  85.4899820  21.7546310 107.6261380  85.1684390  21.0780730
 107.2880460  85.0171640  22.5459580  93.3300510  68.7498130  27.7383750
  92.9815330  69.2061950  28.5041930  92.9988210  67.8555260  27.8206180
  94.9364880  81.9217730  31.9036940  94.8934510  81.5510640  32.7851400
  95.0675890  82.8595300  32.0438760  98.6370910  83.4777320  27.5046660
  98.3962270  83.7451880  26.6177180  99.5773550  83.6483050  27.5597520
 100.8425330  69.9410010  31.2603170 100.7814220  70.5331840  32.0098580
 101.7825710  69.8335970  31.1153430 103.4799890  69.5980070  30.8995460
 104.0940300  69.9159360  30.2376540 104.0249450  69.1128660  31.5191320
 109.8975070  85.4971700  28.3057300 109.4033350  85.8940570  27.5884430
 109.2888360  84.8720910  28.6994580  94.0021150  68.2774330  31.0134520
  94.5504140  68.0962380  30.2500630  94.0676460  67.4868440  31.5490830
  94.7752910  84.8679980  29.0234720  94.1813230  84.7364680  29.7624760
  94.7676750  84.0318120  28.5576820 104.2207930  68.1612210  27.2264750
 103.3467770  68.4947320  27.0237680 104.1118680  67.6885390  28.0516620
 105.1279910  70.3683080  28.6106470 104.7993270  69.5534840  28.2308200
 106.0762210  70.3252890  28.4872160 107.5814520  86.1395120  25.5844040
 107.1217490  86.8910930  25.2102060 106.9526980  85.4201590  25.5258840
  94.4065140  82.2338360  27.9742760  93.6799200  81.6143650  27.9068710
  94.4674290  82.6278970  27.1040840  98.0110240  84.4483360  24.7592170
  98.5275260  83.8370720  24.2340430  98.6607620  84.9512140  25.2503180
 100.7505740  85.3391850  25.5861150 101.0383550  85.0846150  24.7094160
 101.2628960  84.7869210  26.1766720 101.9682750  69.0782050  26.1657660
 101.1854540  69.5527550  26.4454420 101.6745680  68.1736880  26.0570840
 106.5203820  69.7805150  24.2106750 106.9611910  69.7250250  23.3628350
 106.2511410  70.6963160  24.2816930 108.3842390  69.4120390  22.2215570
 108.3230790  68.4681610  22.0746590 109.1634420  69.5200480  22.7669030
  92.6895140  85.5512750  21.1839520  92.5217180  84.9183430  21.8821410
  91.8229650  85.7572150  20.8333710  93.3123160  69.3829530  18.6871380
  94.0702520  69.4958410  18.1135410  92.8500330  70.2198730  18.6414810
  99.8536970  71.4968800  21.6773690  99.0411480  71.1225690  21.3369570
 100.3578610  70.7413880  21.9794880 104.3561950  68.1611250  22.9156760
 104.9591320  68.7331460  23.3905280 103.6154940  68.7250690  22.6930660
 107.4996550  68.5632810  18.1897040 107.6947180  69.4616260  18.4564470
 106.7126420  68.3319890  18.6829990  94.2957840  84.2445980  18.6289660
  93.7705460  84.6254010  17.9251620  94.2202420  84.8696750  19.3499370
  95.6848310  69.9093580  17.2273350  96.2141070  69.1223380  17.0981300
  96.3176630  70.5884770  17.4608880  97.8786150  69.6468720  20.2818740
  97.2488890  68.9456030  20.4488870  97.3391290  70.4072850  20.0651900
 100.8178100  86.2607950  32.9529350 101.7445410  86.0252220  32.9965310
 100.8028530  87.0879950  32.4715380 109.0523160  85.8033520  19.9503600
 109.2275350  85.1171260  19.3064520 108.3544730  86.3280570  19.5580270
  98.0041710  68.9252700  32.7171230  97.7225980  69.4286300  31.9532050
  98.3861410  68.1274450  32.3513360  96.8950810  86.1928360  17.5038910
  97.6269630  85.9087640  16.9562800  97.1544480  85.9541640  18.3938290
  96.0565600  82.3093090  17.5085240  95.4274480  82.7778190  18.0571070
  96.1713430  81.4642310  17.9431430 104.6057170  68.3406280  33.2951700
 104.4922620  68.6600890  34.1903220 105.4226910  68.7418790  32.9988980
 107.3855660  85.4877810  32.7770390 108.1780980  84.9927040  32.5696350
 107.6788810  86.1667950  33.3846000 103.5115320  76.3598750   3.6586440
 103.4309370  75.4453360   3.3878150 103.0979740  76.8565820   2.9526150
 101.6433360  78.1377770   5.5395710 100.8675460  77.6578210   5.8294280
 102.2946290  77.4583420   5.3651870  95.6599190  78.4497580   6.4171470
  94.8284070  78.1946290   6.8167980  96.2680170  78.5208350   7.1529390
 105.6640790  82.5437960   4.3194840 105.2022320  81.7725200   4.6482010
 106.4766340  82.5704030   4.8247290  95.6400450  82.4837670   6.6129490
  95.9428490  81.5935410   6.4339710  96.3844040  83.0407890   6.3851740
  92.0324150  76.0105120   6.0853560  92.6040260  75.2427320   6.0857200
  92.0325690  76.3093880   5.1760170 101.8904100  84.8295970   3.9398830
 101.2715540  85.2853470   3.3693270 102.7455880  84.9847430   3.5388530
 101.0842350  80.8134960   5.5465870 101.0150630  79.8724900   5.3855000
 101.8462210  80.9036370   6.1188440  93.2749020  71.4189480   7.8722490
  93.0951860  70.5215230   8.1525250  92.8729100  71.9661350   8.5469440
 102.1147520  73.6205340   5.7734800 102.4912340  72.7477220   5.6608470
 102.0167030  73.9564040   4.8825240 105.8971640  71.1155780   2.7063140
 106.7181260  70.6252350   2.7488620 105.9305720  71.7053440   3.4594980
  93.8935690  73.9149980   6.4804830  94.5745800  74.1788350   7.0992230
  93.5783740  73.0750850   6.8142840  98.0860260  74.9617340   5.5677420
  98.5938480  75.4598310   6.2082440  98.6173500  74.1852540   5.3916780
 110.1871190  73.1322530   9.2706770 109.4823360  73.5204240   8.7521880
 110.4529110  73.8272820   9.8727700  96.3696360  69.6015900   9.8340840
  96.3714800  70.1188290   9.0286740  95.5400670  69.1246080   9.8110770
  97.6199210  79.2411080   8.0114340  97.2868590  79.8680000   8.6535410
  97.7965890  79.7672960   7.2316010 106.1333120  73.0556160   5.4790680
 105.4288690  73.3441050   6.0593790 106.4945280  73.8656270   5.1190240
  96.0511690  71.3125860   7.8411290  96.3928500  72.1567910   7.5465160
  95.1127500  71.4609600   7.9576630  96.8318310  81.2091880   9.8263520
  97.4492310  81.8842960   9.5447970  95.9711430  81.6179860   9.7351020
 107.7495900  82.6731290   7.7418160 107.0659420  83.3430400   7.7334830
 108.2890190  82.8711940   6.9763020 109.2020040  72.5010950   5.8699890
 108.2544950  72.5349930   6.0015320 109.5270030  73.3149900   6.2549250
  99.7339580  68.8008130   4.1655880 100.0414560  68.2455020   3.4491380
  98.8040280  68.9352590   3.9828870 105.2854640  84.5175420   6.4563340
 105.2981800  84.1137710   5.5885600 104.7329860  85.2922710   6.3524770
 104.6840080  79.4205260   7.7845950 105.1008870  79.2065370   6.9499410
 105.4079900  79.6778050   8.3554570 108.6302180  77.8192480   7.8762190
 107.8020810  77.8885570   7.4012320 109.2252660  78.4046790   7.4078020
 105.5944190  74.6061800   8.8217060 105.1815370  75.4315510   9.0757050
 104.8620140  74.0206840   8.6293420  97.7276980  77.3921700   3.6835730
  97.3233980  76.6798950   3.1881630  97.8140100  77.0474940   4.5723770
  98.1958680  81.0789260   5.8474940  97.8986970  80.4734730   5.1682720
  99.1458500  81.1166570   5.7364300  96.4405600  74.1664910   7.4634770
  96.9920190  74.2760250   6.6888020  96.9549110  74.5402510   8.1790000
 106.2844290  84.6521130   9.5098040 105.8074850  85.4593320   9.3170650
 105.6006080  83.9999460   9.6624250  97.2877110  80.8170950  12.4982740
  96.3905640  81.0410920  12.7456140  97.3129980  80.9405890  11.5494140
  96.1148330  77.6884270  11.0740110  95.9756100  78.5607070  11.4427510
  95.2329690  77.3457080  10.9288050 102.4377710  82.6060140   2.3805240
 102.8773620  83.3484470   1.9660630 102.3764600  82.8486710   3.3044200
  97.9128680  83.6305970  13.2825260  97.8844110  84.0348920  12.4153690
  97.7493650  82.7016330  13.1196860 109.8643500  84.4133070  14.5789430
 110.3403220  84.8915960  15.2578510 110.4850660  84.3450560  13.8534930
  92.0666980  79.4581820   6.9911020  92.1447400  79.5930590   6.0466740
  92.6808660  78.7497710   7.1839140  93.3114610  81.1582010   3.4017200
  92.9042690  81.2996600   2.5470800  94.2027620  80.8742170   3.1988410
 109.2676750  81.6045920  11.7389440 109.3939810  81.3657800  10.8206620
 109.3098130  80.7730460  12.2111520 103.1293490  85.3073920  10.3084250
 103.6438160  85.2181930  11.1106680 102.2862570  85.6533620  10.6012160
 104.3723950  84.7279530   2.3714740 104.8280900  83.9468910   2.6853360
 104.7116470  85.4386350   2.9155920 109.1200760  73.6578380  12.7039180
 108.5045030  74.1658050  12.1754640 108.7997180  72.7576710  12.6465120
  92.1226500  80.4995990   9.5305480  92.2857540  80.0301350   8.7124850
  92.5878950  79.9919550  10.1954320  96.8945270  69.6301750   4.5666050
  96.4513420  70.4111290   4.2350570  97.4530260  69.9531640   5.2736990
 101.1815080  72.4970270  10.1701370 100.7194450  72.7053290  10.9821310
 100.7793190  71.6829620   9.8672040 106.1819590  73.7179220  11.2998030
 105.3313180  73.4184970  11.6207100 106.0221380  73.9621230  10.3881850
 103.2769300  75.2180970  13.3996820 103.6022710  74.3844720  13.0599050
 104.0649630  75.7409490  13.5475150  98.9321170  70.1749080   6.4255650
  99.2293500  71.0811910   6.3447670  99.4806730  69.6867860   5.8115220
  96.6859490  74.7535320   2.2947300  96.4600410  74.5372490   3.1993920
  95.9052020  75.1863780   1.9493270  99.1258700  75.6520900  12.9607570
  99.0302300  74.7115630  12.8107970  99.9690680  75.8735970  12.5655640
 102.5222120  73.3962230   2.9241230 102.9151690  73.7134430   2.1109920
 102.8838970  72.5174110   3.0385750  94.2569240  72.0634570  11.1141350
  93.8632630  72.9109780  11.3214130  93.5687640  71.4260940  11.3049990
 100.8314290  72.1469540  14.1838090 100.1412610  71.9541740  14.8184180
 101.5746590  72.4304180  14.7162390  91.5586290  69.9863030   5.1471430
  91.2699340  70.5565890   5.8596410  92.3032050  69.5067480   5.5102660
 103.1077260  75.9867980   7.0192010 102.3758380  76.4954790   7.3682110
 102.7101600  75.1697960   6.7180790  99.5454650  72.6622180   5.4244500
  99.5490710  72.2212130   4.5749040 100.4405770  72.9839510   5.5316320
  95.3957030  72.5448670   4.3838710  95.0557080  73.0223900   5.1405760
  94.6334350  72.0913790   4.0239810 103.5703170  71.4401660   6.4314950
 103.5875910  71.8910310   7.2756800 103.3218750  70.5407300   6.6448390
 106.9973920  68.8533840  12.2701330 107.3219690  68.1223500  12.7959310
 107.0330430  68.5347480  11.3682320  93.6965480  79.8747420  11.6901290
  93.3120270  79.2341090  12.2884250  94.0077670  80.5783540  12.2596020
  99.8462620  76.7223960   7.1709910 100.2132750  76.2482530   7.9171250
  99.6567680  77.5965530   7.5118250  92.7103110  71.4667650   3.3003380
  92.4250030  71.1023320   4.1382000  92.6481970  70.7348110   2.6866520
  97.6361990  75.7632600   9.4894120  97.3319060  76.6424580   9.7144480
  98.5908450  75.8232390   9.5251560 106.9231760  78.9658950   5.8787360
 107.6430880  79.4614240   5.4883470 106.7213580  78.2876840   5.2341230
 102.3050560  79.0368010  11.7656360 102.2387870  78.1163680  11.5113950
 101.6755700  79.1343450  12.4801000  96.2081180  79.6373970   3.7239780
  96.7259850  78.8342230   3.6696670  95.7565200  79.5753110   4.5656610
  93.6925720  76.6035340  10.6365480  93.3340660  77.2689190  11.2238820
  93.3980280  75.7718890  11.0078100  96.8938840  77.0619580  13.5205030
  96.5938980  77.2076760  12.6232850  97.6650080  76.5024870  13.4278420
 102.2367290  81.8588580  11.5160160 102.2511830  80.9269540  11.2979070
 101.5292390  81.9448340  12.1549930 108.4478500  78.4995920  10.8628740
 107.7226690  79.0924700  10.6658130 108.9753960  78.4919460  10.0642110
 103.9778090  80.2256090   4.3612590 104.3301910  79.6284220   3.7013960
 103.0940420  79.9000320   4.5320840 100.0641370  80.9853780   1.7683000
 100.7512500  81.5322990   2.1490590  99.2773790  81.5294510   1.8032610
 101.6701190  83.5006150   8.6100660 102.3143410  83.7065530   9.2874080
 102.0330630  82.7394550   8.1571510 102.9433270  81.5038500   7.3278110
 103.5855500  80.8031660   7.4410280 103.4682620  82.2836940   7.1475000
 104.7170890  82.3033400  10.5314170 105.0527130  82.8900090  11.2092090
 103.7971230  82.1726110  10.7611960  92.2674290  70.0928580  11.3137580
  91.5532810  70.2925500  11.9190190  92.6869330  69.3168150  11.6852380
  92.5546880  84.0808840  12.3004110  92.6638000  83.1403580  12.1599500
  91.9027440  84.3463590  11.6517840 100.5459470  82.3524730  13.7002230
 100.2256340  81.6333970  14.2447920  99.8717830  83.0279800  13.7738290
 103.7613070  72.5850890   9.0639030 104.1293890  71.7646100   9.3918600
 102.9011270  72.6452780   9.4794680 100.7215060  75.2390480   9.2877000
 101.2200310  75.7136300   9.9528850 100.8638010  74.3154000   9.4947030
 103.1274560  70.5444440   2.7280260 103.0042340  70.5630570   1.7789770
 104.0759120  70.5923380   2.8478660 107.9281920  71.4558440  10.1305390
 107.4255520  72.1963840  10.4699200 108.7438580  71.8442440   9.8142180
 106.2203930  76.6991620   3.5766750 105.2794070  76.7141850   3.7514440
 106.5348000  75.9127580   4.0227050 108.2229510  83.8700470   5.2521010
 108.3476930  84.6931640   5.7244820 109.0895070  83.6591200   4.9045160
  95.6947040  85.9631680   4.9238140  96.4309520  85.4147140   5.1946710
  96.0787960  86.8287690   4.7844130  94.7005320  85.1477750  14.1123720
  95.5018050  85.4689800  14.5259120  94.1857140  84.7873330  14.8343630
 103.5369950  81.2557620  14.0599130 102.9308110  81.2789220  13.3194880
 103.2324060  80.5240660  14.5966380 104.9670320  84.9837910  12.6708540
 105.9192070  84.8995930  12.6208780 104.8198540  85.6479620  13.3442330
  92.4203130  77.6351210  13.0559770  92.9242150  77.0558490  13.6276000
  91.6810550  77.9191440  13.5936140  99.4741070  79.0422200  12.5895290
  98.7086740  79.6107200  12.5049960  99.6557030  78.7498410  11.6963520
 106.6164420  80.7727530  13.1470310 107.3573890  81.1103290  12.6437770
 105.8537100  80.9419590  12.5940080  94.4526210  75.7780800  13.9509840
  94.4931550  75.4794670  14.8595070  95.3071710  76.1788410  13.7917360
  96.3932020  74.3572900  11.9184330  95.8628480  73.8663850  11.2907670
  97.0620090  74.7857100  11.3842260 105.2910080  78.8242360  11.6825520
 105.7051100  78.9787440  12.5315940 104.3561080  78.9497580  11.8451300
 105.7632250  76.1638520  13.6864670 106.3453020  75.4090840  13.5985150
 105.9394020  76.6945960  12.9096150  96.8804320  71.3235270  11.9981620
  96.7861190  70.7056020  11.2732490  96.3001710  72.0501560  11.7711530
  99.6465760  69.8808510   9.0309010  99.1983060  69.9032770   8.1854560
  99.0130960  69.4827530   9.6279310 100.0525310  78.7762840   9.6521450
 100.4713420  79.6195570   9.4797690  99.1333940  78.9134880   9.4228230
 102.3889210  76.5079020  11.0359290 102.5085420  75.9120160  11.7754130
 103.2483210  76.5448710  10.6160590 104.7277110  77.0616210   9.6121800
 104.2012330  77.5858830   9.0086940 105.0708450  77.6943600  10.2431530
  97.9032730  85.0815850  10.7679180  97.3653820  85.8061910  10.4487880
  98.1566690  84.6046190   9.9776520  99.1557980  73.0500370  12.2935110
  99.7457670  72.7416220  12.9812930  98.3378220  72.5780120  12.4495010
 103.9751410  72.6666180  12.5268130 103.2866930  72.0047720  12.4618120
 104.6957430  72.2204450  12.9716590 100.7594940  86.3167060  11.0265830
 100.6853640  87.2202200  11.3338200  99.8573780  85.9978960  10.9987900
  92.1622230  83.6441650   4.3299450  92.4925240  82.7762710   4.0978090
  92.5913230  83.8500170   5.1604410  92.6512440  84.5112240   7.0681080
  92.2143430  84.6913040   7.9005230  93.2190120  85.2686860   6.9262800
 108.2874620  84.0129240  11.3558390 107.6876610  84.0721800  10.6122310
 108.4168520  83.0734220  11.4855240  92.4836870  77.0232470   3.4269960
  91.8285710  76.7544110   2.7829660  93.3214820  76.9136950   2.9771940
 109.9892500  79.3544640   4.0404230 110.3601330  78.5711960   3.6340200
 110.6294430  80.0433740   3.8621530 106.9726260  80.7381220   9.4534550
 106.1586100  81.1678380   9.7160340 107.3800460  81.3499630   8.8403600
  93.5212800  77.4085040   7.9673300  93.8885840  77.3212440   8.8469320
  92.9523620  76.6451590   7.8680160 108.3216660  75.8769420  10.9803770
 108.0902750  75.6482170  10.0801720 108.5821210  76.7968970  10.9348660
  93.0728800  74.3194130  11.8731720  92.1784850  74.2860890  12.2125430
  93.6126350  74.5180920  12.6382970 106.7604730  71.1025850  13.7583470
 107.6374910  71.1109250  14.1417470 106.7725570  70.3656690  13.1475820
 108.2068000  74.9555390   4.6471490 108.7305480  74.4618040   4.0161660
 108.7927420  75.0905750   5.3919060 108.3857720  75.0395260   8.1691040
 107.4360430  75.0058800   8.2836030 108.5670730  75.9495370   7.9340810
  93.5768510  68.5942460   6.2214940  94.2244700  68.0439840   5.7810100
  93.9970350  68.8485610   7.0430750 109.1255130  72.8489690   3.1201580
 109.0154410  72.6945730   4.0583850 109.8862720  72.3210630   2.8776990
 107.4720850  68.7883820   9.5784580 108.1093070  69.4017960   9.9443770
 107.6195740  68.8244480   8.6333810 107.0302310  85.4899820   2.9802820
 107.6261380  85.1684390   2.3037240 107.2880460  85.0171640   3.7716090
  93.3300510  68.7498130   8.9640260  92.9815330  69.2061950   9.7298440
  92.9988210  67.8555260   9.0462690  94.9364880  81.9217730  13.1293450
  94.8934510  81.5510640  14.0107910  95.0675890  82.8595300  13.2695270
  98.6370910  83.4777320   8.7303170  98.3962270  83.7451880   7.8433690
  99.5773550  83.6483050   8.7854030 100.8425330  69.9410010  12.4859680
 100.7814220  70.5331840  13.2355090 101.7825710  69.8335970  12.3409940
 103.4799890  69.5980070  12.1251970 104.0940300  69.9159360  11.4633050
 104.0249450  69.1128660  12.7447830 109.8975070  85.4971700   9.5313810
 109.4033350  85.8940570   8.8140940 109.2888360  84.8720910   9.9251090
  94.0021150  68.2774330  12.2391030  94.5504140  68.0962380  11.4757140
  94.0676460  67.4868440  12.7747340  94.7752910  84.8679980  10.2491230
  94.1813230  84.7364680  10.9881270  94.7676750  84.0318120   9.7833330
 104.2207930  68.1612210   8.4521260 103.3467770  68.4947320   8.2494190
 104.1118680  67.6885390   9.2773130 105.1279910  70.3683080   9.8362980
 104.7993270  69.5534840   9.4564710 106.0762210  70.3252890   9.7128670
 107.5814520  86.1395120   6.8100550 107.1217490  86.8910930   6.4358570
 106.9526980  85.4201590   6.7515350  94.4065140  82.2338360   9.1999270
  93.6799200  81.6143650   9.1325220  94.4674290  82.6278970   8.3297350
  98.0110240  84.4483360   5.9848680  98.5275260  83.8370720   5.4596940
  98.6607620  84.9512140   6.4759690 100.7505740  85.3391850   6.8117660
 101.0383550  85.0846150   5.9350670 101.2628960  84.7869210   7.4023230
 101.9682750  69.0782050   7.3914170 101.1854540  69.5527550   7.6710930
 101.6745680  68.1736880   7.2827350 106.5203820  69.7805150   5.4363260
 106.9611910  69.7250250   4.5884860 106.2511410  70.6963160   5.5073440
 108.3842390  69.4120390   3.4472080 108.3230790  68.4681610   3.3003100
 109.1634420  69.5200480   3.9925540  92.6895140  85.5512750   2.4096030
  92.5217180  84.9183430   3.1077920  91.8229650  85.7572150   2.0590220
  99.8536970  71.4968800   2.9030200  99.0411480  71.1225690   2.5626080
 100.3578610  70.7413880   3.2051390 104.3561950  68.1611250   4.1413270
 104.9591320  68.7331460   4.6161790 103.6154940  68.7250690   3.9187170
 100.8178100  86.2607950  14.1785860 101.7445410  86.0252220  14.2221820
 100.8028530  87.0879950  13.6971890  98.0041710  68.9252700  13.9427740
  97.7225980  69.4286300  13.1788560  98.3861410  68.1274450  13.5769870
 104.6057170  68.3406280  14.5208210 104.4922620  68.6600890  15.4159730
 105.4226910  68.7418790  14.2245490 107.3855660  85.4877810  14.0026900
 108.1780980  84.9927040  13.7952860 107.6788810  86.1667950  14.6102510
 103.5115320  57.5855260  97.5303890 103.4309370  56.6709870  97.2595600
 103.0979740  58.0822330  96.8243600 101.6433360  59.3634280  99.4113160
 100.8675460  58.8834720  99.7011730 102.2946290  58.6839930  99.2369320
  95.6599190  59.6754090 100.2888920  94.8284070  59.4202800 100.6885430
  96.2680170  59.7464860 101.0246840 105.6640790  63.7694470  98.1912290
 105.2022320  62.9981710  98.5199460 106.4766340  63.7960540  98.6964740
  95.6400450  63.7094180 100.4846940  95.9428490  62.8191920 100.3057160
  96.3844040  64.2664400 100.2569190  94.0691140  54.6355980  94.0731310
  93.1807840  54.9771950  93.9711190  94.3532330  54.4356300  93.1812140
  92.0324150  57.2361630  99.9571010  92.6040260  56.4683830  99.9574650
  92.0325690  57.5350390  99.0477620 101.8904100  66.0552480  97.8116280
 101.2715540  66.5109980  97.2410720 102.7455880  66.2103940  97.4105980
 101.0842350  62.0391470  99.4183320 101.0150630  61.0981410  99.2572450
 101.8462210  62.1292880  99.9905890  93.2749020  52.6445990 101.7439940
  93.0951860  51.7471740 102.0242700  92.8729100  53.1917860 102.4186890
 102.1147520  54.8461850  99.6452250 102.4912340  53.9733730  99.5325920
 102.0167030  55.1820550  98.7542690  96.2452530  53.2187480  95.1069690
  96.3519280  54.1191210  95.4138450  95.3344890  53.1705450  94.8164340
 105.8971640  52.3412290  96.5780590 106.7181260  51.8508860  96.6206070
 105.9305720  52.9309950  97.3312430  93.8935690  55.1406490 100.3522280
  94.5745800  55.4044860 100.9709680  93.5783740  54.3007360 100.6860290
  98.0860260  56.1873850  99.4394870  98.5938480  56.6854820 100.0799890
  98.6173500  55.4109050  99.2634230 102.7567450  60.9391720  95.2048190
 102.1384720  61.4041170  94.6410910 103.2690700  61.6319200  95.6217700
  97.6199210  60.4667590 101.8831790  97.2868590  61.0936510 102.5252860
  97.7965890  60.9929470 101.1033460 106.1333120  54.2812670  99.3508130
 105.4288690  54.5697560  99.9311240 106.4945280  55.0912780  98.9907690
  96.0511690  52.5382370 101.7128740  96.3928500  53.3824420 101.4182610
  95.1127500  52.6866110 101.8294080  92.1250650  61.6248250  92.5787820
  91.7478630  62.1135350  91.8472720  92.3823720  62.2973530  93.2094350
 107.7495900  63.8987800 101.6135610 107.0659420  64.5686910 101.6052280
 108.2890190  64.0968450 100.8480470 109.2020040  53.7267460  99.7417340
 108.2544950  53.7606440  99.8732770 109.5270030  54.5406410 100.1266700
  99.7339580  50.0264640  98.0373330 100.0414560  49.4711530  97.3208830
  98.8040280  50.1609100  97.8546320 105.2854640  65.7431930 100.3280790
 105.2981800  65.3394220  99.4603050 104.7329860  66.5179220 100.2242220
 106.5800060  62.4648150  95.4170960 106.4696390  61.5222480  95.5420380
 106.5768310  62.8263790  96.3033720 104.6840080  60.6461770 101.6563400
 105.1008870  60.4321880 100.8216860 105.4079900  60.9034560 102.2272020
 102.1220340  58.0913470  94.7733450 101.1949620  58.0250850  95.0021920
 102.2745160  59.0293600  94.6588690 102.1089420  54.3630470  91.7700610
 101.1693090  54.5244430  91.8553070 102.4272680  55.0816150  91.2236600
 108.6302180  59.0448990 101.7479640 107.8020810  59.1142080 101.2729770
 109.2252660  59.6303300 101.2795470 106.1517630  59.6533770  95.2768700
 105.5330050  59.3153320  94.6295000 106.1342080  59.0093530  95.9847890
  97.7276980  58.6178210  97.5553180  97.3233980  57.9055460  97.0599080
  97.8140100  58.2731450  98.4441220  98.1958680  62.3045770  99.7192390
  97.8986970  61.6991240  99.0400170  99.1458500  62.3423080  99.6081750
  96.4405600  55.3921420 101.3352220  96.9920190  55.5016760 100.5605470
  96.9549110  55.7659020 102.0507450 104.3282330  58.8920580  92.2841450
 104.7675610  58.0543010  92.1379270 105.0410750  59.5249980  92.3705590
 102.4377710  63.8316650  96.2522690 102.8773620  64.5740980  95.8378080
 102.3764600  64.0743220  97.1761650 107.9099470  50.1463390  90.5982490
 107.5972130  50.2390220  91.4981560 108.6711940  50.7244420  90.5479920
  94.4281610  57.5123190  95.0559830  94.3079210  58.2385280  94.4441100
  94.1182500  56.7426100  94.5787740  92.0666980  60.6838330 100.8628470
  92.1447400  60.8187100  99.9184190  92.6808660  59.9754220 101.0556590
  93.3114610  62.3838520  97.2734650  92.9042690  62.5253110  96.4188250
  94.2027620  62.0998680  97.0705860 105.1047890  66.8185770  93.6085700
 104.9449030  66.5288710  94.5067530 104.9394600  66.0425900  93.0730930
  97.5836270  66.5984300  95.3857320  97.4078750  65.6819840  95.1725120
  96.7292010  66.9571590  95.6255120 104.8074020  64.3273330  92.1683700
 104.1139180  64.3250620  91.5085980 105.5496880  63.9032650  91.7377870
 104.3723950  65.9536040  96.2432190 104.8280900  65.1725420  96.5570810
 104.7116470  66.6642860  96.7873370  96.8945270  50.8558260  98.4383500
  96.4513420  51.6367800  98.1068020  97.4530260  51.1788150  99.1454440
 100.0104090  50.4768960  93.3189330  99.3858270  50.4728830  94.0442640
  99.9234210  49.6099920  92.9225300  98.9321170  51.4005590 100.2973100
  99.2293500  52.3068420 100.2165120  99.4806730  50.9124370  99.6832670
  96.6859490  55.9791830  96.1664750  96.4600410  55.7629000  97.0711370
  95.9052020  56.4120290  95.8210720 103.9157250  55.9855200  94.7655400
 103.3166140  56.7091000  94.5819020 104.4636860  55.9231980  93.9831850
 102.5222120  54.6218740  96.7958680 102.9151690  54.9390940  95.9827370
 102.8838970  53.7430620  96.9103200  91.5586290  51.2119540  99.0188880
  91.2699340  51.7822400  99.7313860  92.3032050  50.7323990  99.3820110
  91.7456520  55.1539660  90.2291600  91.6631190  56.0970420  90.3706590
  91.3939580  55.0114570  89.3503950 103.1077260  57.2124490 100.8909460
 102.3758380  57.7211300 101.2399560 102.7101600  56.3954470 100.5898240
  99.5454650  53.8878690  99.2961950  99.5490710  53.4468640  98.4466490
 100.4405770  54.2096020  99.4033770  95.3957030  53.7705180  98.2556160
  95.0557080  54.2480410  99.0123210  94.6334350  53.3170300  97.8957260
  99.6074800  54.8890770  92.2868710  99.7287620  54.8477250  93.2354530
  99.2223310  55.7514920  92.1315440 103.5703170  52.6658170 100.3032400
 103.5875910  53.1166820 101.1474250 103.3218750  51.7663810 100.5165840
  98.6196300  57.1991910  91.6852010  98.0513200  56.7510160  91.0587920
  99.3285300  57.5584690  91.1517160  99.8462620  57.9480470 101.0427360
 100.2132750  57.4739040 101.7888700  99.6567680  58.8222040 101.3835700
  92.7103110  52.6924160  97.1720830  92.4250030  52.3279830  98.0099450
  92.6481970  51.9604620  96.5583970  96.1643780  61.1950100  93.9578420
  95.3906040  60.6547720  93.7977140  96.8938410  60.6756710  93.6196180
 106.9231760  60.1915460  99.7504810 107.6430880  60.6870750  99.3600920
 106.7213580  59.5133350  99.1058680 102.3841700  51.5853420  93.8934200
 101.5706310  51.0866590  93.8179510 102.1903650  52.4251670  93.4770550
 105.0990090  55.9573070  92.1896360 105.9869710  56.2690300  92.0147700
 105.0695180  55.0845320  91.7976940  96.2081180  60.8630480  97.5957230
  96.7259850  60.0598740  97.5414120  95.7565200  60.8009620  98.4374060
 101.0950680  62.1296760  92.8684530 101.4366380  62.8738990  92.3727850
 100.2663390  62.4427880  93.2309360 107.3704360  57.2684910  91.6576220
 107.2868080  57.6999130  90.8072660 108.0898550  57.7283260  92.0903040
 108.3991610  64.1227170  94.3858350 107.7567770  63.4682790  94.6602070
 108.0122270  64.5282260  93.6099020 103.9778090  61.4512600  98.2330040
 104.3301910  60.8540730  97.5731410 103.0940420  61.1256830  98.4038290
 100.0641370  62.2110290  95.6400450 100.7512500  62.7579500  96.0208040
  99.2773790  62.7551020  95.6750060  92.2033770  57.8283110  91.1317530
  93.0728620  58.1107910  91.4153450  91.7124090  58.6418980  91.0166340
  99.3668580  59.2156320  95.2525810  99.8231360  60.0261570  95.4786000
  99.0156790  58.8979460  96.0844300  95.2680360  49.5593970  95.7248330
  95.1394990  49.5511870  96.6733250  94.4442380  49.8977060  95.3739340
 102.9433270  62.7295010 101.1995560 103.5855500  62.0288170 101.3127730
 103.4682620  63.5093450 101.0192450 106.7888990  63.0143630  90.9234700
 106.5626570  62.2974070  91.5159340 106.3985190  62.7656070  90.0856450
  92.5705020  67.0410490  91.6979160  92.9302660  67.6399830  91.0436430
  92.4297360  67.5870380  92.4714190 106.3705240  60.9315570  92.5848860
 106.0826940  61.3928260  93.3726740 107.1657410  60.4713340  92.8533080
  98.5873640  64.4241690  92.5152830  98.5783740  65.1571380  91.8997340
  97.6672000  64.1773270  92.6079790  94.1880280  59.6456580  93.2599590
  93.5808230  60.3855480  93.2694890  94.6629630  59.7355940  92.4337790
 107.1275100  52.7664340  93.7444040 106.4988260  52.8710010  93.0302270
 106.6327020  52.9861120  94.5337920 101.5733240  64.4869930  91.1778020
 101.6745220  64.2833920  90.2480000 100.6734980  64.2328210  91.3825800
  99.0959130  55.0450290  95.1601920  98.3875280  55.5136630  95.6015530
  99.3803610  54.3872300  95.7947110 103.1274560  51.7700950  96.5997710
 103.0042340  51.7887080  95.6507220 104.0759120  51.8179890  96.7196110
 100.2151350  67.0056250  95.8725690 100.4692850  66.9677640  94.9505060
  99.2663830  66.8789580  95.8653940  97.2994150  53.3535370  92.5352630
  98.1484680  53.7905520  92.4692820  96.9325420  53.6655630  93.3624690
 106.2203930  57.9248130  97.4484200 105.2794070  57.9398360  97.6231890
 106.5348000  57.1384090  97.8944500  96.1985570  59.6067730  91.0088160
  96.9648840  59.4949090  91.5713590  96.2760260  58.9105700  90.3564930
  94.8932330  57.0392800  91.6921050  94.9735920  56.0920310  91.8038450
  95.7852080  57.3699680  91.7981710 108.2229510  65.0956980  99.1238460
 108.3476930  65.9188150  99.5962270 109.0895070  64.8847710  98.7762610
  95.6947040  67.1888190  98.7955590  96.4309520  66.6403650  99.0664160
  96.0787960  68.0544200  98.6561580  92.5792520  63.2561760  94.6697100
  91.6532300  63.4982900  94.6602510  93.0448950  64.0836020  94.5481850
  98.8049350  66.3618500  90.6181160  99.5977960  66.6507330  90.1662950
  98.2853700  65.9310670  89.9393640 107.8579520  65.5888630  92.0417900
 107.5721030  65.1753770  91.2272080 107.6599070  66.5176340  91.9218420
  99.3226750  61.5821910  90.4823510  99.2177390  60.9674260  91.2084890
  99.1550970  61.0587800  89.6986520 102.5629480  60.6441940  91.0865500
 102.0139580  61.0911240  91.7308240 103.1848740  60.1391190  91.6103170
  98.2304600  59.6032860  92.9830800  98.6521020  59.4372730  93.8262190
  98.3555440  58.7933090  92.4885940 100.7432240  58.6270470  90.2307900
 101.2637900  57.9119490  89.8649050 101.3900640  59.2656340  90.5308410
  97.1263500  55.6766090  89.9288960  96.9252560  54.8133450  90.2902300
  96.9555550  55.5899450  88.9910560 104.6051810  50.4874320  92.4575840
 104.8854100  49.6442220  92.8135260 103.8317540  50.7197430  92.9714590
  95.9246300  52.7766710  89.9166840  96.2272200  52.7834140  89.0085990
  96.6640890  52.4264570  90.4134500  99.1431230  51.7201330  90.9023040
  98.7953230  51.0425320  90.3225490  99.3444000  51.2590840  91.7166430
 101.3080270  66.7082080  92.5209640 102.2031060  67.0467050  92.5428400
 101.3397900  65.9861490  91.8933920  94.9476430  62.0809130  90.7496640
  95.3851300  62.6238800  91.4054220  95.4324160  61.2556080  90.7592980
  92.1622230  64.8698160  98.2016900  92.4925240  64.0019220  97.9695540
  92.5913230  65.0756680  99.0321860  96.7584150  63.2007170  95.8618870
  96.4579690  63.0772140  96.7622780  96.6521640  62.3415760  95.4534600
  92.6512440  65.7368750 100.9398530  92.2143430  65.9169550 101.7722680
  93.2190120  66.4943370 100.7980250 109.5276070  62.9803570  90.5645550
 108.6969030  63.0480220  91.0352780 109.7047900  63.8707690  90.2612410
 108.9832530  59.7251050  93.0679750 109.7451440  60.2947700  93.1739440
 108.9986900  59.1578250  93.8388060  92.4836870  58.2488980  97.2987410
  91.8285710  57.9800620  96.6547110  93.3214820  58.1393460  96.8489390
 109.9892500  60.5801150  97.9121680 110.3601330  59.7968470  97.5057650
 110.6294430  61.2690250  97.7338980 109.0351700  60.0185420  90.2252270
 109.3100540  60.9264300  90.0971490 108.8462440  59.9547950  91.1614260
 105.4327310  53.0430270  91.5205900 105.8512190  52.8561250  90.6802560
 105.1263370  52.1909320  91.8308830 108.9317040  57.9554410  95.2181700
 108.5560640  57.1882340  94.7862990 108.2020160  58.3377110  95.7056630
  93.5212800  58.6341550 101.8390750  93.8885840  58.5468950 102.7186770
  92.9523620  57.8708100 101.7397610  91.6974950  55.4587910  93.2412740
  90.7939030  55.7218110  93.0664400  92.1815570  55.7299080  92.4612700
 108.2068000  56.1811900  98.5188940 108.7305480  55.6874550  97.8879110
 108.7927420  56.3162260  99.2636510 108.3857720  56.2651770 102.0408490
 107.4360430  56.2315310 102.1553480 108.5670730  57.1751880 101.8058260
  94.2402160  54.5153450  91.1507120  94.9493860  54.0936670  90.6654400
  93.5242100  54.5828680  90.5190470  93.8876320  50.5692780  90.1909770
  94.6104450  51.1101720  90.5090990  94.1600840  50.2956200  89.3151310
 107.6967970  55.4385250  94.4581350 108.1927090  55.2056120  95.2430230
 107.4984040  54.5997090  94.0418990  93.5768510  49.8198970 100.0932390
  94.2244700  49.2696350  99.6527550  93.9970350  50.0742120 100.9148200
 109.1255130  54.0746200  96.9919030 109.0154410  53.9202240  97.9301300
 109.8862720  53.5467140  96.7494440 110.0145400  51.9054120  90.2325170
 110.9394710  51.7735300  90.0243460 109.9921190  51.9846940  91.1861620
 110.0883890  52.6764780  92.8581880 109.2935390  52.6109900  93.3874790
 110.2927170  53.6115420  92.8467230 107.0302310  66.7156330  96.8520270
 107.6261380  66.3940900  96.1754690 107.2880460  66.2428150  97.6433540
  98.6370910  64.7033830 102.6020620  98.3962270  64.9708390 101.7151140
  99.5773550  64.8739560 102.6571480 107.5814520  67.3651630 100.6818000
 107.1217490  68.1167440 100.3076020 106.9526980  66.6458100 100.6232800
  98.0110240  65.6739870  99.8566130  98.5275260  65.0627230  99.3314390
  98.6607620  66.1768650 100.3477140 100.7505740  66.5648360 100.6835110
 101.0383550  66.3102660  99.8068120 101.2628960  66.0125720 101.2740680
 101.9682750  50.3038560 101.2631620 101.1854540  50.7784060 101.5428380
 101.6745680  49.3993390 101.1544800 106.5203820  51.0061660  99.3080710
 106.9611910  50.9506760  98.4602310 106.2511410  51.9219670  99.3790890
 108.3842390  50.6376900  97.3189530 108.3230790  49.6938120  97.1720550
 109.1634420  50.7456990  97.8642990  92.6895140  66.7769260  96.2813480
  92.5217180  66.1439940  96.9795370  91.8229650  66.9828660  95.9307670
  93.3123160  50.6086040  93.7845340  94.0702520  50.7214920  93.2109370
  92.8500330  51.4455240  93.7388770  99.8536970  52.7225310  96.7747650
  99.0411480  52.3482200  96.4343530 100.3578610  51.9670390  97.0768840
 104.3561950  49.3867760  98.0130720 104.9591320  49.9587970  98.4879240
 103.6154940  49.9507200  97.7904620 107.4996550  49.7889320  93.2871000
 107.6947180  50.6872770  93.5538430 106.7126420  49.5576400  93.7803950
  94.2957840  65.4702490  93.7263620  93.7705460  65.8510520  93.0225580
  94.2202420  66.0953260  94.4473330  95.6848310  51.1350090  92.3247310
  96.2141070  50.3479890  92.1955260  96.3176630  51.8141280  92.5582840
  97.8786150  50.8725230  95.3792700  97.2488890  50.1712540  95.5462830
  97.3391290  51.6329360  95.1625860 109.0523160  67.0290030  95.0477560
 109.2275350  66.3427770  94.4038480 108.3544730  67.5537080  94.6554230
  96.8950810  67.4184870  92.6012870  97.6269630  67.1344150  92.0536760
  97.1544480  67.1798150  93.4912250  96.0565600  63.5349600  92.6059200
  95.4274480  64.0034700  93.1545030  96.1713430  62.6898820  93.0405390
 103.5115320  57.5855260  78.7560400 103.4309370  56.6709870  78.4852110
 103.0979740  58.0822330  78.0500110 101.6433360  59.3634280  80.6369670
 100.8675460  58.8834720  80.9268240 102.2946290  58.6839930  80.4625830
  95.6599190  59.6754090  81.5145430  94.8284070  59.4202800  81.9141940
  96.2680170  59.7464860  82.2503350 105.6640790  63.7694470  79.4168800
 105.2022320  62.9981710  79.7455970 106.4766340  63.7960540  79.9221250
  95.6400450  63.7094180  81.7103450  95.9428490  62.8191920  81.5313670
  96.3844040  64.2664400  81.4825700  94.0691140  54.6355980  75.2987820
  93.1807840  54.9771950  75.1967700  94.3532330  54.4356300  74.4068650
  92.0324150  57.2361630  81.1827520  92.6040260  56.4683830  81.1831160
  92.0325690  57.5350390  80.2734130 101.8904100  66.0552480  79.0372790
 101.2715540  66.5109980  78.4667230 102.7455880  66.2103940  78.6362490
 101.0842350  62.0391470  80.6439830 101.0150630  61.0981410  80.4828960
 101.8462210  62.1292880  81.2162400  93.2749020  52.6445990  82.9696450
  93.0951860  51.7471740  83.2499210  92.8729100  53.1917860  83.6443400
 102.1147520  54.8461850  80.8708760 102.4912340  53.9733730  80.7582430
 102.0167030  55.1820550  79.9799200  96.2452530  53.2187480  76.3326200
  96.3519280  54.1191210  76.6394960  95.3344890  53.1705450  76.0420850
 105.8971640  52.3412290  77.8037100 106.7181260  51.8508860  77.8462580
 105.9305720  52.9309950  78.5568940  93.8935690  55.1406490  81.5778790
  94.5745800  55.4044860  82.1966190  93.5783740  54.3007360  81.9116800
  98.0860260  56.1873850  80.6651380  98.5938480  56.6854820  81.3056400
  98.6173500  55.4109050  80.4890740 110.1871190  54.3579040  84.3680730
 109.4823360  54.7460750  83.8495840 110.4529110  55.0529330  84.9701660
  96.3696360  50.8272410  84.9314800  96.3714800  51.3444800  84.1260700
  95.5400670  50.3502590  84.9084730 102.7567450  60.9391720  76.4304700
 102.1384720  61.4041170  75.8667420 103.2690700  61.6319200  76.8474210
  97.6199210  60.4667590  83.1088300  97.2868590  61.0936510  83.7509370
  97.7965890  60.9929470  82.3289970 106.1333120  54.2812670  80.5764640
 105.4288690  54.5697560  81.1567750 106.4945280  55.0912780  80.2164200
  96.0511690  52.5382370  82.9385250  96.3928500  53.3824420  82.6439120
  95.1127500  52.6866110  83.0550590  96.8318310  62.4348390  84.9237480
  97.4492310  63.1099470  84.6421930  95.9711430  62.8436370  84.8324980
  92.1250650  61.6248250  73.8044330  91.7478630  62.1135350  73.0729230
  92.3823720  62.2973530  74.4350860 107.7495900  63.8987800  82.8392120
 107.0659420  64.5686910  82.8308790 108.2890190  64.0968450  82.0736980
 109.2020040  53.7267460  80.9673850 108.2544950  53.7606440  81.0989280
 109.5270030  54.5406410  81.3523210  99.7339580  50.0264640  79.2629840
 100.0414560  49.4711530  78.5465340  98.8040280  50.1609100  79.0802830
 105.2854640  65.7431930  81.5537300 105.2981800  65.3394220  80.6859560
 104.7329860  66.5179220  81.4498730 106.5800060  62.4648150  76.6427470
 106.4696390  61.5222480  76.7676890 106.5768310  62.8263790  77.5290230
 104.6840080  60.6461770  82.8819910 105.1008870  60.4321880  82.0473370
 105.4079900  60.9034560  83.4528530 102.1220340  58.0913470  75.9989960
 101.1949620  58.0250850  76.2278430 102.2745160  59.0293600  75.8845200
 102.1089420  54.3630470  72.9957120 101.1693090  54.5244430  73.0809580
 102.4272680  55.0816150  72.4493110 108.6302180  59.0448990  82.9736150
 107.8020810  59.1142080  82.4986280 109.2252660  59.6303300  82.5051980
 106.1517630  59.6533770  76.5025210 105.5330050  59.3153320  75.8551510
 106.1342080  59.0093530  77.2104400 105.5944190  55.8318310  83.9191020
 105.1815370  56.6572020  84.1731010 104.8620140  55.2463350  83.7267380
  97.7276980  58.6178210  78.7809690  97.3233980  57.9055460  78.2855590
  97.8140100  58.2731450  79.6697730  98.1958680  62.3045770  80.9448900
  97.8986970  61.6991240  80.2656680  99.1458500  62.3423080  80.8338260
  96.4405600  55.3921420  82.5608730  96.9920190  55.5016760  81.7861980
  96.9549110  55.7659020  83.2763960 106.2844290  65.8777640  84.6072000
 105.8074850  66.6849830  84.4144610 105.6006080  65.2255970  84.7598210
  97.2877110  62.0427460  87.5956700  96.3905640  62.2667430  87.8430100
  97.3129980  62.1662400  86.6468100 104.3282330  58.8920580  73.5097960
 104.7675610  58.0543010  73.3635780 105.0410750  59.5249980  73.5962100
  96.1148330  58.9140780  86.1714070  95.9756100  59.7863580  86.5401470
  95.2329690  58.5713590  86.0262010 102.4377710  63.8316650  77.4779200
 102.8773620  64.5740980  77.0634590 102.3764600  64.0743220  78.4018160
  97.9128680  64.8562480  88.3799220  97.8844110  65.2605430  87.5127650
  97.7493650  63.9272840  88.2170820 107.9099470  50.1463390  71.8239000
 107.5972130  50.2390220  72.7238070 108.6711940  50.7244420  71.7736430
  94.4281610  57.5123190  76.2816340  94.3079210  58.2385280  75.6697610
  94.1182500  56.7426100  75.8044250 109.8643500  65.6389580  89.6763390
 110.3403220  66.1172470  90.3552470 110.4850660  65.5707070  88.9508890
  92.0666980  60.6838330  82.0884980  92.1447400  60.8187100  81.1440700
  92.6808660  59.9754220  82.2813100  93.3114610  62.3838520  78.4991160
  92.9042690  62.5253110  77.6444760  94.2027620  62.0998680  78.2962370
 109.2676750  62.8302430  86.8363400 109.3939810  62.5914310  85.9180580
 109.3098130  61.9986970  87.3085480 103.1293490  66.5330430  85.4058210
 103.6438160  66.4438440  86.2080640 102.2862570  66.8790130  85.6986120
 105.1047890  66.8185770  74.8342210 104.9449030  66.5288710  75.7324040
 104.9394600  66.0425900  74.2987440  97.5836270  66.5984300  76.6113830
  97.4078750  65.6819840  76.3981630  96.7292010  66.9571590  76.8511630
 104.8074020  64.3273330  73.3940210 104.1139180  64.3250620  72.7342490
 105.5496880  63.9032650  72.9634380 104.3723950  65.9536040  77.4688700
 104.8280900  65.1725420  77.7827320 104.7116470  66.6642860  78.0129880
 109.1200760  54.8834890  87.8013140 108.5045030  55.3914560  87.2728600
 108.7997180  53.9833220  87.7439080  92.1226500  61.7252500  84.6279440
  92.2857540  61.2557860  83.8098810  92.5878950  61.2176060  85.2928280
  96.8945270  50.8558260  79.6640010  96.4513420  51.6367800  79.3324530
  97.4530260  51.1788150  80.3710950 101.1815080  53.7226780  85.2675330
 100.7194450  53.9309800  86.0795270 100.7793190  52.9086130  84.9646000
 106.1819590  54.9435730  86.3971990 105.3313180  54.6441480  86.7181060
 106.0221380  55.1877740  85.4855810 103.2769300  56.4437480  88.4970780
 103.6022710  55.6101230  88.1573010 104.0649630  56.9666000  88.6449110
 100.0104090  50.4768960  74.5445840  99.3858270  50.4728830  75.2699150
  99.9234210  49.6099920  74.1481810  98.9321170  51.4005590  81.5229610
  99.2293500  52.3068420  81.4421630  99.4806730  50.9124370  80.9089180
  96.6859490  55.9791830  77.3921260  96.4600410  55.7629000  78.2967880
  95.9052020  56.4120290  77.0467230 103.9157250  55.9855200  75.9911910
 103.3166140  56.7091000  75.8075530 104.4636860  55.9231980  75.2088360
  99.1258700  56.8777410  88.0581530  99.0302300  55.9372140  87.9081930
  99.9690680  57.0992480  87.6629600 102.5222120  54.6218740  78.0215190
 102.9151690  54.9390940  77.2083880 102.8838970  53.7430620  78.1359710
  94.2569240  53.2891080  86.2115310  93.8632630  54.1366290  86.4188090
  93.5687640  52.6517450  86.4023950 100.8314290  53.3726050  89.2812050
 100.1412610  53.1798250  89.9158140 101.5746590  53.6560690  89.8136350
  91.5586290  51.2119540  80.2445390  91.2699340  51.7822400  80.9570370
  92.3032050  50.7323990  80.6076620  91.7456520  55.1539660  71.4548110
  91.6631190  56.0970420  71.5963100  91.3939580  55.0114570  70.5760460
 103.1077260  57.2124490  82.1165970 102.3758380  57.7211300  82.4656070
 102.7101600  56.3954470  81.8154750  99.5454650  53.8878690  80.5218460
  99.5490710  53.4468640  79.6723000 100.4405770  54.2096020  80.6290280
  95.3957030  53.7705180  79.4812670  95.0557080  54.2480410  80.2379720
  94.6334350  53.3170300  79.1213770  99.6074800  54.8890770  73.5125220
  99.7287620  54.8477250  74.4611040  99.2223310  55.7514920  73.3571950
 103.5703170  52.6658170  81.5288910 103.5875910  53.1166820  82.3730760
 103.3218750  51.7663810  81.7422350  98.6196300  57.1991910  72.9108520
  98.0513200  56.7510160  72.2844430  99.3285300  57.5584690  72.3773670
 106.9973920  50.0790350  87.3675290 107.3219690  49.3480010  87.8933270
 107.0330430  49.7603990  86.4656280  93.6965480  61.1003930  86.7875250
  93.3120270  60.4597600  87.3858210  94.0077670  61.8040050  87.3569980
  99.8462620  57.9480470  82.2683870 100.2132750  57.4739040  83.0145210
  99.6567680  58.8222040  82.6092210  92.7103110  52.6924160  78.3977340
  92.4250030  52.3279830  79.2355960  92.6481970  51.9604620  77.7840480
  97.6361990  56.9889110  84.5868080  97.3319060  57.8681090  84.8118440
  98.5908450  57.0488900  84.6225520  96.1643780  61.1950100  75.1834930
  95.3906040  60.6547720  75.0233650  96.8938410  60.6756710  74.8452690
 106.9231760  60.1915460  80.9761320 107.6430880  60.6870750  80.5857430
 106.7213580  59.5133350  80.3315190 102.3841700  51.5853420  75.1190710
 101.5706310  51.0866590  75.0436020 102.1903650  52.4251670  74.7027060
 102.3050560  60.2624520  86.8630320 102.2387870  59.3420190  86.6087910
 101.6755700  60.3599960  87.5774960 105.0990090  55.9573070  73.4152870
 105.9869710  56.2690300  73.2404210 105.0695180  55.0845320  73.0233450
  96.2081180  60.8630480  78.8213740  96.7259850  60.0598740  78.7670630
  95.7565200  60.8009620  79.6630570 101.0950680  62.1296760  74.0941040
 101.4366380  62.8738990  73.5984360 100.2663390  62.4427880  74.4565870
  93.6925720  57.8291850  85.7339440  93.3340660  58.4945700  86.3212780
  93.3980280  56.9975400  86.1052060  96.8938840  58.2876090  88.6178990
  96.5938980  58.4333270  87.7206810  97.6650080  57.7281380  88.5252380
 102.2367290  63.0845090  86.6134120 102.2511830  62.1526050  86.3953030
 101.5292390  63.1704850  87.2523890 107.3704360  57.2684910  72.8832730
 107.2868080  57.6999130  72.0329170 108.0898550  57.7283260  73.3159550
 108.4478500  59.7252430  85.9602700 107.7226690  60.3181210  85.7632090
 108.9753960  59.7175970  85.1616070 108.3991610  64.1227170  75.6114860
 107.7567770  63.4682790  75.8858580 108.0122270  64.5282260  74.8355530
 103.9778090  61.4512600  79.4586550 104.3301910  60.8540730  78.7987920
 103.0940420  61.1256830  79.6294800 100.0641370  62.2110290  76.8656960
 100.7512500  62.7579500  77.2464550  99.2773790  62.7551020  76.9006570
  92.2033770  57.8283110  72.3574040  93.0728620  58.1107910  72.6409960
  91.7124090  58.6418980  72.2422850  99.3668580  59.2156320  76.4782320
  99.8231360  60.0261570  76.7042510  99.0156790  58.8979460  77.3100810
 101.6701190  64.7262660  83.7074620 102.3143410  64.9322040  84.3848040
 102.0330630  63.9651060  83.2545470  95.2680360  49.5593970  76.9504840
  95.1394990  49.5511870  77.8989760  94.4442380  49.8977060  76.5995850
 102.9433270  62.7295010  82.4252070 103.5855500  62.0288170  82.5384240
 103.4682620  63.5093450  82.2448960 106.7888990  63.0143630  72.1491210
 106.5626570  62.2974070  72.7415850 106.3985190  62.7656070  71.3112960
 104.7170890  63.5289910  85.6288130 105.0527130  64.1156600  86.3066050
 103.7971230  63.3982620  85.8585920  92.5705020  67.0410490  72.9235670
  92.9302660  67.6399830  72.2692940  92.4297360  67.5870380  73.6970700
  92.2674290  51.3185090  86.4111540  91.5532810  51.5182010  87.0164150
  92.6869330  50.5424660  86.7826340 106.3705240  60.9315570  73.8105370
 106.0826940  61.3928260  74.5983250 107.1657410  60.4713340  74.0789590
  92.5546880  65.3065350  87.3978070  92.6638000  64.3660090  87.2573460
  91.9027440  65.5720100  86.7491800 100.5459470  63.5781240  88.7976190
 100.2256340  62.8590480  89.3421880  99.8717830  64.2536310  88.8712250
  98.5873640  64.4241690  73.7409340  98.5783740  65.1571380  73.1253850
  97.6672000  64.1773270  73.8336300  94.1880280  59.6456580  74.4856100
  93.5808230  60.3855480  74.4951400  94.6629630  59.7355940  73.6594300
 103.7613070  53.8107400  84.1612990 104.1293890  52.9902610  84.4892560
 102.9011270  53.8709290  84.5768640 107.1275100  52.7664340  74.9700550
 106.4988260  52.8710010  74.2558780 106.6327020  52.9861120  75.7594430
 101.5733240  64.4869930  72.4034530 101.6745220  64.2833920  71.4736510
 100.6734980  64.2328210  72.6082310  99.0959130  55.0450290  76.3858430
  98.3875280  55.5136630  76.8272040  99.3803610  54.3872300  77.0203620
 100.7215060  56.4646990  84.3850960 101.2200310  56.9392810  85.0502810
 100.8638010  55.5410510  84.5920990 103.1274560  51.7700950  77.8254220
 103.0042340  51.7887080  76.8763730 104.0759120  51.8179890  77.9452620
 100.2151350  67.0056250  77.0982200 100.4692850  66.9677640  76.1761570
  99.2663830  66.8789580  77.0910450  97.2994150  53.3535370  73.7609140
  98.1484680  53.7905520  73.6949330  96.9325420  53.6655630  74.5881200
 107.9281920  52.6814950  85.2279350 107.4255520  53.4220350  85.5673160
 108.7438580  53.0698950  84.9116140 106.2203930  57.9248130  78.6740710
 105.2794070  57.9398360  78.8488400 106.5348000  57.1384090  79.1201010
  96.1985570  59.6067730  72.2344670  96.9648840  59.4949090  72.7970100
  96.2760260  58.9105700  71.5821440  94.8932330  57.0392800  72.9177560
  94.9735920  56.0920310  73.0294960  95.7852080  57.3699680  73.0238220
 108.2229510  65.0956980  80.3494970 108.3476930  65.9188150  80.8218780
 109.0895070  64.8847710  80.0019120  95.6947040  67.1888190  80.0212100
  96.4309520  66.6403650  80.2920670  96.0787960  68.0544200  79.8818090
  92.5792520  63.2561760  75.8953610  91.6532300  63.4982900  75.8859020
  93.0448950  64.0836020  75.7738360  94.7005320  66.3734260  89.2097680
  95.5018050  66.6946310  89.6233080  94.1857140  66.0129840  89.9317590
  98.8049350  66.3618500  71.8437670  99.5977960  66.6507330  71.3919460
  98.2853700  65.9310670  71.1650150 103.5369950  62.4814130  89.1573090
 102.9308110  62.5045730  88.4168840 103.2324060  61.7497170  89.6940340
 104.9670320  66.2094420  87.7682500 105.9192070  66.1252440  87.7182740
 104.8198540  66.8736130  88.4416290 107.8579520  65.5888630  73.2674410
 107.5721030  65.1753770  72.4528590 107.6599070  66.5176340  73.1474930
  92.4203130  58.8607720  88.1533730  92.9242150  58.2815000  88.7249960
  91.6810550  59.1447950  88.6910100  99.3226750  61.5821910  71.7080020
  99.2177390  60.9674260  72.4341400  99.1550970  61.0587800  70.9243030
  99.4741070  60.2678710  87.6869250  98.7086740  60.8363710  87.6023920
  99.6557030  59.9754920  86.7937480 102.5629480  60.6441940  72.3122010
 102.0139580  61.0911240  72.9564750 103.1848740  60.1391190  72.8359680
 106.6164420  61.9984040  88.2444270 107.3573890  62.3359800  87.7411730
 105.8537100  62.1676100  87.6914040  94.4526210  57.0037310  89.0483800
  94.4931550  56.7051180  89.9569030  95.3071710  57.4044920  88.8891320
  98.2304600  59.6032860  74.2087310  98.6521020  59.4372730  75.0518700
  98.3555440  58.7933090  73.7142450  96.3932020  55.5829410  87.0158290
  95.8628480  55.0920360  86.3881630  97.0620090  56.0113610  86.4816220
 100.7432240  58.6270470  71.4564410 101.2637900  57.9119490  71.0905560
 101.3900640  59.2656340  71.7564920 105.2910080  60.0498870  86.7799480
 105.7051100  60.2043950  87.6289900 104.3561080  60.1754090  86.9425260
 105.7632250  57.3895030  88.7838630 106.3453020  56.6347350  88.6959110
 105.9394020  57.9202470  88.0070110  96.8804320  52.5491780  87.0955580
  96.7861190  51.9312530  86.3706450  96.3001710  53.2758070  86.8685490
  99.6465760  51.1065020  84.1282970  99.1983060  51.1289280  83.2828520
  99.0130960  50.7084040  84.7253270 100.0525310  60.0019350  84.7495410
 100.4713420  60.8452080  84.5771650  99.1333940  60.1391390  84.5202190
 102.3889210  57.7335530  86.1333250 102.5085420  57.1376670  86.8728090
 103.2483210  57.7705220  85.7134550 104.7277110  58.2872720  84.7095760
 104.2012330  58.8115340  84.1060900 105.0708450  58.9200110  85.3405490
  97.1263500  55.6766090  71.1545470  96.9252560  54.8133450  71.5158810
  96.9555550  55.5899450  70.2167070  97.9032730  66.3072360  85.8653140
  97.3653820  67.0318420  85.5461840  98.1566690  65.8302700  85.0750480
  99.1557980  54.2756880  87.3909070  99.7457670  53.9672730  88.0786890
  98.3378220  53.8036630  87.5468970 103.9751410  53.8922690  87.6242090
 103.2866930  53.2304230  87.5592080 104.6957430  53.4460960  88.0690550
 104.6051810  50.4874320  73.6832350 104.8854100  49.6442220  74.0391770
 103.8317540  50.7197430  74.1971100  95.9246300  52.7766710  71.1423350
  96.2272200  52.7834140  70.2342500  96.6640890  52.4264570  71.6391010
 100.7594940  67.5423570  86.1239790 100.6853640  68.4458710  86.4312160
  99.8573780  67.2235470  86.0961860  99.1431230  51.7201330  72.1279550
  98.7953230  51.0425320  71.5482000  99.3444000  51.2590840  72.9422940
 101.3080270  66.7082080  73.7466150 102.2031060  67.0467050  73.7684910
 101.3397900  65.9861490  73.1190430  94.9476430  62.0809130  71.9753150
  95.3851300  62.6238800  72.6310730  95.4324160  61.2556080  71.9849490
  92.1622230  64.8698160  79.4273410  92.4925240  64.0019220  79.1952050
  92.5913230  65.0756680  80.2578370  96.7584150  63.2007170  77.0875380
  96.4579690  63.0772140  77.9879290  96.6521640  62.3415760  76.6791110
  92.6512440  65.7368750  82.1655040  92.2143430  65.9169550  82.9979190
  93.2190120  66.4943370  82.0236760 108.2874620  65.2385750  86.4532350
 107.6876610  65.2978310  85.7096270 108.4168520  64.2990730  86.5829200
 109.5276070  62.9803570  71.7902060 108.6969030  63.0480220  72.2609290
 109.7047900  63.8707690  71.4868920 108.9832530  59.7251050  74.2936260
 109.7451440  60.2947700  74.3995950 108.9986900  59.1578250  75.0644570
  92.4836870  58.2488980  78.5243920  91.8285710  57.9800620  77.8803620
  93.3214820  58.1393460  78.0745900 109.9892500  60.5801150  79.1378190
 110.3601330  59.7968470  78.7314160 110.6294430  61.2690250  78.9595490
 106.9726260  61.9637730  84.5508510 106.1586100  62.3934890  84.8134300
 107.3800460  62.5756140  83.9377560 109.0351700  60.0185420  71.4508780
 109.3100540  60.9264300  71.3228000 108.8462440  59.9547950  72.3870770
 105.4327310  53.0430270  72.7462410 105.8512190  52.8561250  71.9059070
 105.1263370  52.1909320  73.0565340 108.9317040  57.9554410  76.4438210
 108.5560640  57.1882340  76.0119500 108.2020160  58.3377110  76.9313140
  93.5212800  58.6341550  83.0647260  93.8885840  58.5468950  83.9443280
  92.9523620  57.8708100  82.9654120 108.3216660  57.1025930  86.0777730
 108.0902750  56.8738680  85.1775680 108.5821210  58.0225480  86.0322620
  93.0728800  55.5450640  86.9705680  92.1784850  55.5117400  87.3099390
  93.6126350  55.7437430  87.7356930 106.7604730  52.3282360  88.8557430
 107.6374910  52.3365760  89.2391430 106.7725570  51.5913200  88.2449780
  91.6974950  55.4587910  74.4669250  90.7939030  55.7218110  74.2920910
  92.1815570  55.7299080  73.6869210 108.2068000  56.1811900  79.7445450
 108.7305480  55.6874550  79.1135620 108.7927420  56.3162260  80.4893020
 108.3857720  56.2651770  83.2665000 107.4360430  56.2315310  83.3809990
 108.5670730  57.1751880  83.0314770  94.2402160  54.5153450  72.3763630
  94.9493860  54.0936670  71.8910910  93.5242100  54.5828680  71.7446980
  93.8876320  50.5692780  71.4166280  94.6104450  51.1101720  71.7347500
  94.1600840  50.2956200  70.5407820 107.6967970  55.4385250  75.6837860
 108.1927090  55.2056120  76.4686740 107.4984040  54.5997090  75.2675500
  93.5768510  49.8198970  81.3188900  94.2244700  49.2696350  80.8784060
  93.9970350  50.0742120  82.1404710 109.1255130  54.0746200  78.2175540
 109.0154410  53.9202240  79.1557810 109.8862720  53.5467140  77.9750950
 107.4720850  50.0140330  84.6758540 108.1093070  50.6274470  85.0417730
 107.6195740  50.0500990  83.7307770 110.0145400  51.9054120  71.4581680
 110.9394710  51.7735300  71.2499970 109.9921190  51.9846940  72.4118130
 110.0883890  52.6764780  74.0838390 109.2935390  52.6109900  74.6131300
 110.2927170  53.6115420  74.0723740 107.0302310  66.7156330  78.0776780
 107.6261380  66.3940900  77.4011200 107.2880460  66.2428150  78.8690050
  93.3300510  49.9754640  84.0614220  92.9815330  50.4318460  84.8272400
  92.9988210  49.0811770  84.1436650  94.9364880  63.1474240  88.2267410
  94.8934510  62.7767150  89.1081870  95.0675890  64.0851810  88.3669230
  98.6370910  64.7033830  83.8277130  98.3962270  64.9708390  82.9407650
  99.5773550  64.8739560  83.8827990 100.8425330  51.1666520  87.5833640
 100.7814220  51.7588350  88.3329050 101.7825710  51.0592480  87.4383900
 103.4799890  50.8236580  87.2225930 104.0940300  51.1415870  86.5607010
 104.0249450  50.3385170  87.8421790 109.8975070  66.7228210  84.6287770
 109.4033350  67.1197080  83.9114900 109.2888360  66.0977420  85.0225050
  94.0021150  49.5030840  87.3364990  94.5504140  49.3218890  86.5731100
  94.0676460  48.7124950  87.8721300  94.7752910  66.0936490  85.3465190
  94.1813230  65.9621190  86.0855230  94.7676750  65.2574630  84.8807290
 104.2207930  49.3868720  83.5495220 103.3467770  49.7203830  83.3468150
 104.1118680  48.9141900  84.3747090 105.1279910  51.5939590  84.9336940
 104.7993270  50.7791350  84.5538670 106.0762210  51.5509400  84.8102630
 107.5814520  67.3651630  81.9074510 107.1217490  68.1167440  81.5332530
 106.9526980  66.6458100  81.8489310  94.4065140  63.4594870  84.2973230
  93.6799200  62.8400160  84.2299180  94.4674290  63.8535480  83.4271310
  98.0110240  65.6739870  81.0822640  98.5275260  65.0627230  80.5570900
  98.6607620  66.1768650  81.5733650 100.7505740  66.5648360  81.9091620
 101.0383550  66.3102660  81.0324630 101.2628960  66.0125720  82.4997190
 101.9682750  50.3038560  82.4888130 101.1854540  50.7784060  82.7684890
 101.6745680  49.3993390  82.3801310 106.5203820  51.0061660  80.5337220
 106.9611910  50.9506760  79.6858820 106.2511410  51.9219670  80.6047400
 108.3842390  50.6376900  78.5446040 108.3230790  49.6938120  78.3977060
 109.1634420  50.7456990  79.0899500  92.6895140  66.7769260  77.5069990
  92.5217180  66.1439940  78.2051880  91.8229650  66.9828660  77.1564180
  93.3123160  50.6086040  75.0101850  94.0702520  50.7214920  74.4365880
  92.8500330  51.4455240  74.9645280  99.8536970  52.7225310  78.0004160
  99.0411480  52.3482200  77.6600040 100.3578610  51.9670390  78.3025350
 104.3561950  49.3867760  79.2387230 104.9591320  49.9587970  79.7135750
 103.6154940  49.9507200  79.0161130 107.4996550  49.7889320  74.5127510
 107.6947180  50.6872770  74.7794940 106.7126420  49.5576400  75.0060460
  94.2957840  65.4702490  74.9520130  93.7705460  65.8510520  74.2482090
  94.2202420  66.0953260  75.6729840  95.6848310  51.1350090  73.5503820
  96.2141070  50.3479890  73.4211770  96.3176630  51.8141280  73.7839350
  97.8786150  50.8725230  76.6049210  97.2488890  50.1712540  76.7719340
  97.3391290  51.6329360  76.3882370 100.8178100  67.4864460  89.2759820
 101.7445410  67.2508730  89.3195780 100.8028530  68.3136460  88.7945850
 109.0523160  67.0290030  76.2734070 109.2275350  66.3427770  75.6294990
 108.3544730  67.5537080  75.8810740  98.0041710  50.1509210  89.0401700
  97.7225980  50.6542810  88.2762520  98.3861410  49.3530960  88.6743830
  96.8950810  67.4184870  73.8269380  97.6269630  67.1344150  73.2793270
  97.1544480  67.1798150  74.7168760  96.0565600  63.5349600  73.8315710
  95.4274480  64.0034700  74.3801540  96.1713430  62.6898820  74.2661900
 104.6057170  49.5662790  89.6182170 104.4922620  49.8857400  90.5133690
 105.4226910  49.9675300  89.3219450 107.3855660  66.7134320  89.1000860
 108.1780980  66.2183550  88.8926820 107.6788810  67.3924460  89.7076470
 103.5115320  57.5855260  59.9816910 103.4309370  56.6709870  59.7108620
 103.0979740  58.0822330  59.2756620 101.6433360  59.3634280  61.8626180
 100.8675460  58.8834720  62.1524750 102.2946290  58.6839930  61.6882340
  95.6599190  59.6754090  62.7401940  94.8284070  59.4202800  63.1398450
  96.2680170  59.7464860  63.4759860 105.6640790  63.7694470  60.6425310
 105.2022320  62.9981710  60.9712480 106.4766340  63.7960540  61.1477760
  95.6400450  63.7094180  62.9359960  95.9428490  62.8191920  62.7570180
  96.3844040  64.2664400  62.7082210  94.0691140  54.6355980  56.5244330
  93.1807840  54.9771950  56.4224210  94.3532330  54.4356300  55.6325160
  92.0324150  57.2361630  62.4084030  92.6040260  56.4683830  62.4087670
  92.0325690  57.5350390  61.4990640 101.8904100  66.0552480  60.2629300
 101.2715540  66.5109980  59.6923740 102.7455880  66.2103940  59.8619000
 101.0842350  62.0391470  61.8696340 101.0150630  61.0981410  61.7085470
 101.8462210  62.1292880  62.4418910  93.2749020  52.6445990  64.1952960
  93.0951860  51.7471740  64.4755720  92.8729100  53.1917860  64.8699910
 102.1147520  54.8461850  62.0965270 102.4912340  53.9733730  61.9838940
 102.0167030  55.1820550  61.2055710  96.2452530  53.2187480  57.5582710
  96.3519280  54.1191210  57.8651470  95.3344890  53.1705450  57.2677360
 105.8971640  52.3412290  59.0293610 106.7181260  51.8508860  59.0719090
 105.9305720  52.9309950  59.7825450  93.8935690  55.1406490  62.8035300
  94.5745800  55.4044860  63.4222700  93.5783740  54.3007360  63.1373310
  98.0860260  56.1873850  61.8907890  98.5938480  56.6854820  62.5312910
  98.6173500  55.4109050  61.7147250 110.1871190  54.3579040  65.5937240
 109.4823360  54.7460750  65.0752350 110.4529110  55.0529330  66.1958170
  96.3696360  50.8272410  66.1571310  96.3714800  51.3444800  65.3517210
  95.5400670  50.3502590  66.1341240 102.7567450  60.9391720  57.6561210
 102.1384720  61.4041170  57.0923930 103.2690700  61.6319200  58.0730720
  97.6199210  60.4667590  64.3344810  97.2868590  61.0936510  64.9765880
  97.7965890  60.9929470  63.5546480 106.1333120  54.2812670  61.8021150
 105.4288690  54.5697560  62.3824260 106.4945280  55.0912780  61.4420710
  96.0511690  52.5382370  64.1641760  96.3928500  53.3824420  63.8695630
  95.1127500  52.6866110  64.2807100  96.8318310  62.4348390  66.1493990
  97.4492310  63.1099470  65.8678440  95.9711430  62.8436370  66.0581490
  92.1250650  61.6248250  55.0300840  91.7478630  62.1135350  54.2985740
  92.3823720  62.2973530  55.6607370 107.7495900  63.8987800  64.0648630
 107.0659420  64.5686910  64.0565300 108.2890190  64.0968450  63.2993490
 109.2020040  53.7267460  62.1930360 108.2544950  53.7606440  62.3245790
 109.5270030  54.5406410  62.5779720  99.7339580  50.0264640  60.4886350
 100.0414560  49.4711530  59.7721850  98.8040280  50.1609100  60.3059340
 105.2854640  65.7431930  62.7793810 105.2981800  65.3394220  61.9116070
 104.7329860  66.5179220  62.6755240 106.5800060  62.4648150  57.8683980
 106.4696390  61.5222480  57.9933400 106.5768310  62.8263790  58.7546740
 104.6840080  60.6461770  64.1076420 105.1008870  60.4321880  63.2729880
 105.4079900  60.9034560  64.6785040 102.1220340  58.0913470  57.2246470
 101.1949620  58.0250850  57.4534940 102.2745160  59.0293600  57.1101710
 102.1089420  54.3630470  54.2213630 101.1693090  54.5244430  54.3066090
 102.4272680  55.0816150  53.6749620 108.6302180  59.0448990  64.1992660
 107.8020810  59.1142080  63.7242790 109.2252660  59.6303300  63.7308490
 106.1517630  59.6533770  57.7281720 105.5330050  59.3153320  57.0808020
 106.1342080  59.0093530  58.4360910 105.5944190  55.8318310  65.1447530
 105.1815370  56.6572020  65.3987520 104.8620140  55.2463350  64.9523890
  97.7276980  58.6178210  60.0066200  97.3233980  57.9055460  59.5112100
  97.8140100  58.2731450  60.8954240  98.1958680  62.3045770  62.1705410
  97.8986970  61.6991240  61.4913190  99.1458500  62.3423080  62.0594770
  96.4405600  55.3921420  63.7865240  96.9920190  55.5016760  63.0118490
  96.9549110  55.7659020  64.5020470 106.2844290  65.8777640  65.8328510
 105.8074850  66.6849830  65.6401120 105.6006080  65.2255970  65.9854720
  97.2877110  62.0427460  68.8213210  96.3905640  62.2667430  69.0686610
  97.3129980  62.1662400  67.8724610 104.3282330  58.8920580  54.7354470
 104.7675610  58.0543010  54.5892290 105.0410750  59.5249980  54.8218610
  96.1148330  58.9140780  67.3970580  95.9756100  59.7863580  67.7657980
  95.2329690  58.5713590  67.2518520 102.4377710  63.8316650  58.7035710
 102.8773620  64.5740980  58.2891100 102.3764600  64.0743220  59.6274670
  97.9128680  64.8562480  69.6055730  97.8844110  65.2605430  68.7384160
  97.7493650  63.9272840  69.4427330 107.9099470  50.1463390  53.0495510
 107.5972130  50.2390220  53.9494580 108.6711940  50.7244420  52.9992940
  94.4281610  57.5123190  57.5072850  94.3079210  58.2385280  56.8954120
  94.1182500  56.7426100  57.0300760 109.8643500  65.6389580  70.9019900
 110.3403220  66.1172470  71.5808980 110.4850660  65.5707070  70.1765400
  92.0666980  60.6838330  63.3141490  92.1447400  60.8187100  62.3697210
  92.6808660  59.9754220  63.5069610  93.3114610  62.3838520  59.7247670
  92.9042690  62.5253110  58.8701270  94.2027620  62.0998680  59.5218880
 109.2676750  62.8302430  68.0619910 109.3939810  62.5914310  67.1437090
 109.3098130  61.9986970  68.5341990 103.1293490  66.5330430  66.6314720
 103.6438160  66.4438440  67.4337150 102.2862570  66.8790130  66.9242630
 105.1047890  66.8185770  56.0598720 104.9449030  66.5288710  56.9580550
 104.9394600  66.0425900  55.5243950  97.5836270  66.5984300  57.8370340
  97.4078750  65.6819840  57.6238140  96.7292010  66.9571590  58.0768140
 104.8074020  64.3273330  54.6196720 104.1139180  64.3250620  53.9599000
 105.5496880  63.9032650  54.1890890 104.3723950  65.9536040  58.6945210
 104.8280900  65.1725420  59.0083830 104.7116470  66.6642860  59.2386390
 109.1200760  54.8834890  69.0269650 108.5045030  55.3914560  68.4985110
 108.7997180  53.9833220  68.9695590  92.1226500  61.7252500  65.8535950
  92.2857540  61.2557860  65.0355320  92.5878950  61.2176060  66.5184790
  96.8945270  50.8558260  60.8896520  96.4513420  51.6367800  60.5581040
  97.4530260  51.1788150  61.5967460 101.1815080  53.7226780  66.4931840
 100.7194450  53.9309800  67.3051780 100.7793190  52.9086130  66.1902510
 106.1819590  54.9435730  67.6228500 105.3313180  54.6441480  67.9437570
 106.0221380  55.1877740  66.7112320 103.2769300  56.4437480  69.7227290
 103.6022710  55.6101230  69.3829520 104.0649630  56.9666000  69.8705620
 100.0104090  50.4768960  55.7702350  99.3858270  50.4728830  56.4955660
  99.9234210  49.6099920  55.3738320  98.9321170  51.4005590  62.7486120
  99.2293500  52.3068420  62.6678140  99.4806730  50.9124370  62.1345690
  96.6859490  55.9791830  58.6177770  96.4600410  55.7629000  59.5224390
  95.9052020  56.4120290  58.2723740 103.9157250  55.9855200  57.2168420
 103.3166140  56.7091000  57.0332040 104.4636860  55.9231980  56.4344870
  99.1258700  56.8777410  69.2838040  99.0302300  55.9372140  69.1338440
  99.9690680  57.0992480  68.8886110 102.5222120  54.6218740  59.2471700
 102.9151690  54.9390940  58.4340390 102.8838970  53.7430620  59.3616220
  94.2569240  53.2891080  67.4371820  93.8632630  54.1366290  67.6444600
  93.5687640  52.6517450  67.6280460 100.8314290  53.3726050  70.5068560
 100.1412610  53.1798250  71.1414650 101.5746590  53.6560690  71.0392860
  91.5586290  51.2119540  61.4701900  91.2699340  51.7822400  62.1826880
  92.3032050  50.7323990  61.8333130  91.7456520  55.1539660  52.6804620
  91.6631190  56.0970420  52.8219610  91.3939580  55.0114570  51.8016970
 103.1077260  57.2124490  63.3422480 102.3758380  57.7211300  63.6912580
 102.7101600  56.3954470  63.0411260  99.5454650  53.8878690  61.7474970
  99.5490710  53.4468640  60.8979510 100.4405770  54.2096020  61.8546790
  95.3957030  53.7705180  60.7069180  95.0557080  54.2480410  61.4636230
  94.6334350  53.3170300  60.3470280  99.6074800  54.8890770  54.7381730
  99.7287620  54.8477250  55.6867550  99.2223310  55.7514920  54.5828460
 103.5703170  52.6658170  62.7545420 103.5875910  53.1166820  63.5987270
 103.3218750  51.7663810  62.9678860  98.6196300  57.1991910  54.1365030
  98.0513200  56.7510160  53.5100940  99.3285300  57.5584690  53.6030180
 106.9973920  50.0790350  68.5931800 107.3219690  49.3480010  69.1189780
 107.0330430  49.7603990  67.6912790  93.6965480  61.1003930  68.0131760
  93.3120270  60.4597600  68.6114720  94.0077670  61.8040050  68.5826490
  99.8462620  57.9480470  63.4940380 100.2132750  57.4739040  64.2401720
  99.6567680  58.8222040  63.8348720  92.7103110  52.6924160  59.6233850
  92.4250030  52.3279830  60.4612470  92.6481970  51.9604620  59.0096990
  97.6361990  56.9889110  65.8124590  97.3319060  57.8681090  66.0374950
  98.5908450  57.0488900  65.8482030  96.1643780  61.1950100  56.4091440
  95.3906040  60.6547720  56.2490160  96.8938410  60.6756710  56.0709200
 106.9231760  60.1915460  62.2017830 107.6430880  60.6870750  61.8113940
 106.7213580  59.5133350  61.5571700 102.3841700  51.5853420  56.3447220
 101.5706310  51.0866590  56.2692530 102.1903650  52.4251670  55.9283570
 102.3050560  60.2624520  68.0886830 102.2387870  59.3420190  67.8344420
 101.6755700  60.3599960  68.8031470 105.0990090  55.9573070  54.6409380
 105.9869710  56.2690300  54.4660720 105.0695180  55.0845320  54.2489960
  96.2081180  60.8630480  60.0470250  96.7259850  60.0598740  59.9927140
  95.7565200  60.8009620  60.8887080 101.0950680  62.1296760  55.3197550
 101.4366380  62.8738990  54.8240870 100.2663390  62.4427880  55.6822380
  93.6925720  57.8291850  66.9595950  93.3340660  58.4945700  67.5469290
  93.3980280  56.9975400  67.3308570  96.8938840  58.2876090  69.8435500
  96.5938980  58.4333270  68.9463320  97.6650080  57.7281380  69.7508890
 102.2367290  63.0845090  67.8390630 102.2511830  62.1526050  67.6209540
 101.5292390  63.1704850  68.4780400 107.3704360  57.2684910  54.1089240
 107.2868080  57.6999130  53.2585680 108.0898550  57.7283260  54.5416060
 108.4478500  59.7252430  67.1859210 107.7226690  60.3181210  66.9888600
 108.9753960  59.7175970  66.3872580 108.3991610  64.1227170  56.8371370
 107.7567770  63.4682790  57.1115090 108.0122270  64.5282260  56.0612040
 103.9778090  61.4512600  60.6843060 104.3301910  60.8540730  60.0244430
 103.0940420  61.1256830  60.8551310 100.0641370  62.2110290  58.0913470
 100.7512500  62.7579500  58.4721060  99.2773790  62.7551020  58.1263080
  92.2033770  57.8283110  53.5830550  93.0728620  58.1107910  53.8666470
  91.7124090  58.6418980  53.4679360  99.3668580  59.2156320  57.7038830
  99.8231360  60.0261570  57.9299020  99.0156790  58.8979460  58.5357320
 101.6701190  64.7262660  64.9331130 102.3143410  64.9322040  65.6104550
 102.0330630  63.9651060  64.4801980  95.2680360  49.5593970  58.1761350
  95.1394990  49.5511870  59.1246270  94.4442380  49.8977060  57.8252360
 102.9433270  62.7295010  63.6508580 103.5855500  62.0288170  63.7640750
 103.4682620  63.5093450  63.4705470 106.7888990  63.0143630  53.3747720
 106.5626570  62.2974070  53.9672360 106.3985190  62.7656070  52.5369470
 104.7170890  63.5289910  66.8544640 105.0527130  64.1156600  67.5322560
 103.7971230  63.3982620  67.0842430  92.5705020  67.0410490  54.1492180
  92.9302660  67.6399830  53.4949450  92.4297360  67.5870380  54.9227210
  92.2674290  51.3185090  67.6368050  91.5532810  51.5182010  68.2420660
  92.6869330  50.5424660  68.0082850 106.3705240  60.9315570  55.0361880
 106.0826940  61.3928260  55.8239760 107.1657410  60.4713340  55.3046100
  92.5546880  65.3065350  68.6234580  92.6638000  64.3660090  68.4829970
  91.9027440  65.5720100  67.9748310 100.5459470  63.5781240  70.0232700
 100.2256340  62.8590480  70.5678390  99.8717830  64.2536310  70.0968760
  98.5873640  64.4241690  54.9665850  98.5783740  65.1571380  54.3510360
  97.6672000  64.1773270  55.0592810  94.1880280  59.6456580  55.7112610
  93.5808230  60.3855480  55.7207910  94.6629630  59.7355940  54.8850810
 103.7613070  53.8107400  65.3869500 104.1293890  52.9902610  65.7149070
 102.9011270  53.8709290  65.8025150 107.1275100  52.7664340  56.1957060
 106.4988260  52.8710010  55.4815290 106.6327020  52.9861120  56.9850940
 101.5733240  64.4869930  53.6291040 101.6745220  64.2833920  52.6993020
 100.6734980  64.2328210  53.8338820  99.0959130  55.0450290  57.6114940
  98.3875280  55.5136630  58.0528550  99.3803610  54.3872300  58.2460130
 100.7215060  56.4646990  65.6107470 101.2200310  56.9392810  66.2759320
 100.8638010  55.5410510  65.8177500 103.1274560  51.7700950  59.0510730
 103.0042340  51.7887080  58.1020240 104.0759120  51.8179890  59.1709130
 100.2151350  67.0056250  58.3238710 100.4692850  66.9677640  57.4018080
  99.2663830  66.8789580  58.3166960  97.2994150  53.3535370  54.9865650
  98.1484680  53.7905520  54.9205840  96.9325420  53.6655630  55.8137710
 107.9281920  52.6814950  66.4535860 107.4255520  53.4220350  66.7929670
 108.7438580  53.0698950  66.1372650 106.2203930  57.9248130  59.8997220
 105.2794070  57.9398360  60.0744910 106.5348000  57.1384090  60.3457520
  96.1985570  59.6067730  53.4601180  96.9648840  59.4949090  54.0226610
  96.2760260  58.9105700  52.8077950  94.8932330  57.0392800  54.1434070
  94.9735920  56.0920310  54.2551470  95.7852080  57.3699680  54.2494730
 108.2229510  65.0956980  61.5751480 108.3476930  65.9188150  62.0475290
 109.0895070  64.8847710  61.2275630  95.6947040  67.1888190  61.2468610
  96.4309520  66.6403650  61.5177180  96.0787960  68.0544200  61.1074600
  92.5792520  63.2561760  57.1210120  91.6532300  63.4982900  57.1115530
  93.0448950  64.0836020  56.9994870  94.7005320  66.3734260  70.4354190
  95.5018050  66.6946310  70.8489590  94.1857140  66.0129840  71.1574100
  98.8049350  66.3618500  53.0694180  99.5977960  66.6507330  52.6175970
  98.2853700  65.9310670  52.3906660 103.5369950  62.4814130  70.3829600
 102.9308110  62.5045730  69.6425350 103.2324060  61.7497170  70.9196850
 104.9670320  66.2094420  68.9939010 105.9192070  66.1252440  68.9439250
 104.8198540  66.8736130  69.6672800 107.8579520  65.5888630  54.4930920
 107.5721030  65.1753770  53.6785100 107.6599070  66.5176340  54.3731440
  92.4203130  58.8607720  69.3790240  92.9242150  58.2815000  69.9506470
  91.6810550  59.1447950  69.9166610  99.3226750  61.5821910  52.9336530
  99.2177390  60.9674260  53.6597910  99.1550970  61.0587800  52.1499540
  99.4741070  60.2678710  68.9125760  98.7086740  60.8363710  68.8280430
  99.6557030  59.9754920  68.0193990 102.5629480  60.6441940  53.5378520
 102.0139580  61.0911240  54.1821260 103.1848740  60.1391190  54.0616190
 106.6164420  61.9984040  69.4700780 107.3573890  62.3359800  68.9668240
 105.8537100  62.1676100  68.9170550  94.4526210  57.0037310  70.2740310
  94.4931550  56.7051180  71.1825540  95.3071710  57.4044920  70.1147830
  98.2304600  59.6032860  55.4343820  98.6521020  59.4372730  56.2775210
  98.3555440  58.7933090  54.9398960  96.3932020  55.5829410  68.2414800
  95.8628480  55.0920360  67.6138140  97.0620090  56.0113610  67.7072730
 100.7432240  58.6270470  52.6820920 101.2637900  57.9119490  52.3162070
 101.3900640  59.2656340  52.9821430 105.2910080  60.0498870  68.0055990
 105.7051100  60.2043950  68.8546410 104.3561080  60.1754090  68.1681770
 105.7632250  57.3895030  70.0095140 106.3453020  56.6347350  69.9215620
 105.9394020  57.9202470  69.2326620  96.8804320  52.5491780  68.3212090
  96.7861190  51.9312530  67.5962960  96.3001710  53.2758070  68.0942000
  99.6465760  51.1065020  65.3539480  99.1983060  51.1289280  64.5085030
  99.0130960  50.7084040  65.9509780 100.0525310  60.0019350  65.9751920
 100.4713420  60.8452080  65.8028160  99.1333940  60.1391390  65.7458700
 102.3889210  57.7335530  67.3589760 102.5085420  57.1376670  68.0984600
 103.2483210  57.7705220  66.9391060 104.7277110  58.2872720  65.9352270
 104.2012330  58.8115340  65.3317410 105.0708450  58.9200110  66.5662000
  97.1263500  55.6766090  52.3801980  96.9252560  54.8133450  52.7415320
  96.9555550  55.5899450  51.4423580  97.9032730  66.3072360  67.0909650
  97.3653820  67.0318420  66.7718350  98.1566690  65.8302700  66.3006990
  99.1557980  54.2756880  68.6165580  99.7457670  53.9672730  69.3043400
  98.3378220  53.8036630  68.7725480 103.9751410  53.8922690  68.8498600
 103.2866930  53.2304230  68.7848590 104.6957430  53.4460960  69.2947060
 104.6051810  50.4874320  54.9088860 104.8854100  49.6442220  55.2648280
 103.8317540  50.7197430  55.4227610  95.9246300  52.7766710  52.3679860
  96.2272200  52.7834140  51.4599010  96.6640890  52.4264570  52.8647520
 100.7594940  67.5423570  67.3496300 100.6853640  68.4458710  67.6568670
  99.8573780  67.2235470  67.3218370  99.1431230  51.7201330  53.3536060
  98.7953230  51.0425320  52.7738510  99.3444000  51.2590840  54.1679450
 101.3080270  66.7082080  54.9722660 102.2031060  67.0467050  54.9941420
 101.3397900  65.9861490  54.3446940  94.9476430  62.0809130  53.2009660
  95.3851300  62.6238800  53.8567240  95.4324160  61.2556080  53.2106000
  92.1622230  64.8698160  60.6529920  92.4925240  64.0019220  60.4208560
  92.5913230  65.0756680  61.4834880  96.7584150  63.2007170  58.3131890
  96.4579690  63.0772140  59.2135800  96.6521640  62.3415760  57.9047620
  92.6512440  65.7368750  63.3911550  92.2143430  65.9169550  64.2235700
  93.2190120  66.4943370  63.2493270 108.2874620  65.2385750  67.6788860
 107.6876610  65.2978310  66.9352780 108.4168520  64.2990730  67.8085710
 109.5276070  62.9803570  53.0158570 108.6969030  63.0480220  53.4865800
 109.7047900  63.8707690  52.7125430 108.9832530  59.7251050  55.5192770
 109.7451440  60.2947700  55.6252460 108.9986900  59.1578250  56.2901080
  92.4836870  58.2488980  59.7500430  91.8285710  57.9800620  59.1060130
  93.3214820  58.1393460  59.3002410 109.9892500  60.5801150  60.3634700
 110.3601330  59.7968470  59.9570670 110.6294430  61.2690250  60.1852000
 106.9726260  61.9637730  65.7765020 106.1586100  62.3934890  66.0390810
 107.3800460  62.5756140  65.1634070 109.0351700  60.0185420  52.6765290
 109.3100540  60.9264300  52.5484510 108.8462440  59.9547950  53.6127280
 105.4327310  53.0430270  53.9718920 105.8512190  52.8561250  53.1315580
 105.1263370  52.1909320  54.2821850 108.9317040  57.9554410  57.6694720
 108.5560640  57.1882340  57.2376010 108.2020160  58.3377110  58.1569650
  93.5212800  58.6341550  64.2903770  93.8885840  58.5468950  65.1699790
  92.9523620  57.8708100  64.1910630 108.3216660  57.1025930  67.3034240
 108.0902750  56.8738680  66.4032190 108.5821210  58.0225480  67.2579130
  93.0728800  55.5450640  68.1962190  92.1784850  55.5117400  68.5355900
  93.6126350  55.7437430  68.9613440 106.7604730  52.3282360  70.0813940
 107.6374910  52.3365760  70.4647940 106.7725570  51.5913200  69.4706290
  91.6974950  55.4587910  55.6925760  90.7939030  55.7218110  55.5177420
  92.1815570  55.7299080  54.9125720 108.2068000  56.1811900  60.9701960
 108.7305480  55.6874550  60.3392130 108.7927420  56.3162260  61.7149530
 108.3857720  56.2651770  64.4921510 107.4360430  56.2315310  64.6066500
 108.5670730  57.1751880  64.2571280  94.2402160  54.5153450  53.6020140
  94.9493860  54.0936670  53.1167420  93.5242100  54.5828680  52.9703490
  93.8876320  50.5692780  52.6422790  94.6104450  51.1101720  52.9604010
  94.1600840  50.2956200  51.7664330 107.6967970  55.4385250  56.9094370
 108.1927090  55.2056120  57.6943250 107.4984040  54.5997090  56.4932010
  93.5768510  49.8198970  62.5445410  94.2244700  49.2696350  62.1040570
  93.9970350  50.0742120  63.3661220 109.1255130  54.0746200  59.4432050
 109.0154410  53.9202240  60.3814320 109.8862720  53.5467140  59.2007460
 107.4720850  50.0140330  65.9015050 108.1093070  50.6274470  66.2674240
 107.6195740  50.0500990  64.9564280 110.0145400  51.9054120  52.6838190
 110.9394710  51.7735300  52.4756480 109.9921190  51.9846940  53.6374640
 110.0883890  52.6764780  55.3094900 109.2935390  52.6109900  55.8387810
 110.2927170  53.6115420  55.2980250 107.0302310  66.7156330  59.3033290
 107.6261380  66.3940900  58.6267710 107.2880460  66.2428150  60.0946560
  93.3300510  49.9754640  65.2870730  92.9815330  50.4318460  66.0528910
  92.9988210  49.0811770  65.3693160  94.9364880  63.1474240  69.4523920
  94.8934510  62.7767150  70.3338380  95.0675890  64.0851810  69.5925740
  98.6370910  64.7033830  65.0533640  98.3962270  64.9708390  64.1664160
  99.5773550  64.8739560  65.1084500 100.8425330  51.1666520  68.8090150
 100.7814220  51.7588350  69.5585560 101.7825710  51.0592480  68.6640410
 103.4799890  50.8236580  68.4482440 104.0940300  51.1415870  67.7863520
 104.0249450  50.3385170  69.0678300 109.8975070  66.7228210  65.8544280
 109.4033350  67.1197080  65.1371410 109.2888360  66.0977420  66.2481560
  94.0021150  49.5030840  68.5621500  94.5504140  49.3218890  67.7987610
  94.0676460  48.7124950  69.0977810  94.7752910  66.0936490  66.5721700
  94.1813230  65.9621190  67.3111740  94.7676750  65.2574630  66.1063800
 104.2207930  49.3868720  64.7751730 103.3467770  49.7203830  64.5724660
 104.1118680  48.9141900  65.6003600 105.1279910  51.5939590  66.1593450
 104.7993270  50.7791350  65.7795180 106.0762210  51.5509400  66.0359140
 107.5814520  67.3651630  63.1331020 107.1217490  68.1167440  62.7589040
 106.9526980  66.6458100  63.0745820  94.4065140  63.4594870  65.5229740
  93.6799200  62.8400160  65.4555690  94.4674290  63.8535480  64.6527820
  98.0110240  65.6739870  62.3079150  98.5275260  65.0627230  61.7827410
  98.6607620  66.1768650  62.7990160 100.7505740  66.5648360  63.1348130
 101.0383550  66.3102660  62.2581140 101.2628960  66.0125720  63.7253700
 101.9682750  50.3038560  63.7144640 101.1854540  50.7784060  63.9941400
 101.6745680  49.3993390  63.6057820 106.5203820  51.0061660  61.7593730
 106.9611910  50.9506760  60.9115330 106.2511410  51.9219670  61.8303910
 108.3842390  50.6376900  59.7702550 108.3230790  49.6938120  59.6233570
 109.1634420  50.7456990  60.3156010  92.6895140  66.7769260  58.7326500
  92.5217180  66.1439940  59.4308390  91.8229650  66.9828660  58.3820690
  93.3123160  50.6086040  56.2358360  94.0702520  50.7214920  55.6622390
  92.8500330  51.4455240  56.1901790  99.8536970  52.7225310  59.2260670
  99.0411480  52.3482200  58.8856550 100.3578610  51.9670390  59.5281860
 104.3561950  49.3867760  60.4643740 104.9591320  49.9587970  60.9392260
 103.6154940  49.9507200  60.2417640 107.4996550  49.7889320  55.7384020
 107.6947180  50.6872770  56.0051450 106.7126420  49.5576400  56.2316970
  94.2957840  65.4702490  56.1776640  93.7705460  65.8510520  55.4738600
  94.2202420  66.0953260  56.8986350  95.6848310  51.1350090  54.7760330
  96.2141070  50.3479890  54.6468280  96.3176630  51.8141280  55.0095860
  97.8786150  50.8725230  57.8305720  97.2488890  50.1712540  57.9975850
  97.3391290  51.6329360  57.6138880 100.8178100  67.4864460  70.5016330
 101.7445410  67.2508730  70.5452290 100.8028530  68.3136460  70.0202360
 109.0523160  67.0290030  57.4990580 109.2275350  66.3427770  56.8551500
 108.3544730  67.5537080  57.1067250  98.0041710  50.1509210  70.2658210
  97.7225980  50.6542810  69.5019030  98.3861410  49.3530960  69.9000340
  96.8950810  67.4184870  55.0525890  97.6269630  67.1344150  54.5049780
  97.1544480  67.1798150  55.9425270  96.0565600  63.5349600  55.0572220
  95.4274480  64.0034700  55.6058050  96.1713430  62.6898820  55.4918410
 104.6057170  49.5662790  70.8438680 104.4922620  49.8857400  71.7390200
 105.4226910  49.9675300  70.5475960 107.3855660  66.7134320  70.3257370
 108.1780980  66.2183550  70.1183330 107.6788810  67.3924460  70.9332980
 103.5115320  57.5855260  41.2073420 103.4309370  56.6709870  40.9365130
 103.0979740  58.0822330  40.5013130 101.6433360  59.3634280  43.0882690
 100.8675460  58.8834720  43.3781260 102.2946290  58.6839930  42.9138850
  95.6599190  59.6754090  43.9658450  94.8284070  59.4202800  44.3654960
  96.2680170  59.7464860  44.7016370 105.6640790  63.7694470  41.8681820
 105.2022320  62.9981710  42.1968990 106.4766340  63.7960540  42.3734270
  95.6400450  63.7094180  44.1616470  95.9428490  62.8191920  43.9826690
  96.3844040  64.2664400  43.9338720  94.0691140  54.6355980  37.7500840
  93.1807840  54.9771950  37.6480720  94.3532330  54.4356300  36.8581670
  92.0324150  57.2361630  43.6340540  92.6040260  56.4683830  43.6344180
  92.0325690  57.5350390  42.7247150 101.8904100  66.0552480  41.4885810
 101.2715540  66.5109980  40.9180250 102.7455880  66.2103940  41.0875510
 101.0842350  62.0391470  43.0952850 101.0150630  61.0981410  42.9341980
 101.8462210  62.1292880  43.6675420  93.2749020  52.6445990  45.4209470
  93.0951860  51.7471740  45.7012230  92.8729100  53.1917860  46.0956420
 102.1147520  54.8461850  43.3221780 102.4912340  53.9733730  43.2095450
 102.0167030  55.1820550  42.4312220  96.2452530  53.2187480  38.7839220
  96.3519280  54.1191210  39.0907980  95.3344890  53.1705450  38.4933870
 105.8971640  52.3412290  40.2550120 106.7181260  51.8508860  40.2975600
 105.9305720  52.9309950  41.0081960  93.8935690  55.1406490  44.0291810
  94.5745800  55.4044860  44.6479210  93.5783740  54.3007360  44.3629820
  98.0860260  56.1873850  43.1164400  98.5938480  56.6854820  43.7569420
  98.6173500  55.4109050  42.9403760 110.1871190  54.3579040  46.8193750
 109.4823360  54.7460750  46.3008860 110.4529110  55.0529330  47.4214680
  96.3696360  50.8272410  47.3827820  96.3714800  51.3444800  46.5773720
  95.5400670  50.3502590  47.3597750 102.7567450  60.9391720  38.8817720
 102.1384720  61.4041170  38.3180440 103.2690700  61.6319200  39.2987230
  97.6199210  60.4667590  45.5601320  97.2868590  61.0936510  46.2022390
  97.7965890  60.9929470  44.7802990 106.1333120  54.2812670  43.0277660
 105.4288690  54.5697560  43.6080770 106.4945280  55.0912780  42.6677220
  96.0511690  52.5382370  45.3898270  96.3928500  53.3824420  45.0952140
  95.1127500  52.6866110  45.5063610  96.8318310  62.4348390  47.3750500
  97.4492310  63.1099470  47.0934950  95.9711430  62.8436370  47.2838000
  92.1250650  61.6248250  36.2557350  91.7478630  62.1135350  35.5242250
  92.3823720  62.2973530  36.8863880 107.7495900  63.8987800  45.2905140
 107.0659420  64.5686910  45.2821810 108.2890190  64.0968450  44.5250000
 109.2020040  53.7267460  43.4186870 108.2544950  53.7606440  43.5502300
 109.5270030  54.5406410  43.8036230  99.7339580  50.0264640  41.7142860
 100.0414560  49.4711530  40.9978360  98.8040280  50.1609100  41.5315850
 105.2854640  65.7431930  44.0050320 105.2981800  65.3394220  43.1372580
 104.7329860  66.5179220  43.9011750 106.5800060  62.4648150  39.0940490
 106.4696390  61.5222480  39.2189910 106.5768310  62.8263790  39.9803250
 104.6840080  60.6461770  45.3332930 105.1008870  60.4321880  44.4986390
 105.4079900  60.9034560  45.9041550 102.1220340  58.0913470  38.4502980
 101.1949620  58.0250850  38.6791450 102.2745160  59.0293600  38.3358220
 102.1089420  54.3630470  35.4470140 101.1693090  54.5244430  35.5322600
 102.4272680  55.0816150  34.9006130 108.6302180  59.0448990  45.4249170
 107.8020810  59.1142080  44.9499300 109.2252660  59.6303300  44.9565000
 106.1517630  59.6533770  38.9538230 105.5330050  59.3153320  38.3064530
 106.1342080  59.0093530  39.6617420 105.5944190  55.8318310  46.3704040
 105.1815370  56.6572020  46.6244030 104.8620140  55.2463350  46.1780400
  97.7276980  58.6178210  41.2322710  97.3233980  57.9055460  40.7368610
  97.8140100  58.2731450  42.1210750  98.1958680  62.3045770  43.3961920
  97.8986970  61.6991240  42.7169700  99.1458500  62.3423080  43.2851280
  96.4405600  55.3921420  45.0121750  96.9920190  55.5016760  44.2375000
  96.9549110  55.7659020  45.7276980 106.2844290  65.8777640  47.0585020
 105.8074850  66.6849830  46.8657630 105.6006080  65.2255970  47.2111230
  97.2877110  62.0427460  50.0469720  96.3905640  62.2667430  50.2943120
  97.3129980  62.1662400  49.0981120 104.3282330  58.8920580  35.9610980
 104.7675610  58.0543010  35.8148800 105.0410750  59.5249980  36.0475120
  96.1148330  58.9140780  48.6227090  95.9756100  59.7863580  48.9914490
  95.2329690  58.5713590  48.4775030 102.4377710  63.8316650  39.9292220
 102.8773620  64.5740980  39.5147610 102.3764600  64.0743220  40.8531180
  97.9128680  64.8562480  50.8312240  97.8844110  65.2605430  49.9640670
  97.7493650  63.9272840  50.6683840 107.9099470  50.1463390  34.2752020
 107.5972130  50.2390220  35.1751090 108.6711940  50.7244420  34.2249450
  94.4281610  57.5123190  38.7329360  94.3079210  58.2385280  38.1210630
  94.1182500  56.7426100  38.2557270 109.8643500  65.6389580  52.1276410
 110.3403220  66.1172470  52.8065490 110.4850660  65.5707070  51.4021910
  92.0666980  60.6838330  44.5398000  92.1447400  60.8187100  43.5953720
  92.6808660  59.9754220  44.7326120  93.3114610  62.3838520  40.9504180
  92.9042690  62.5253110  40.0957780  94.2027620  62.0998680  40.7475390
 109.2676750  62.8302430  49.2876420 109.3939810  62.5914310  48.3693600
 109.3098130  61.9986970  49.7598500 103.1293490  66.5330430  47.8571230
 103.6438160  66.4438440  48.6593660 102.2862570  66.8790130  48.1499140
 105.1047890  66.8185770  37.2855230 104.9449030  66.5288710  38.1837060
 104.9394600  66.0425900  36.7500460  97.5836270  66.5984300  39.0626850
  97.4078750  65.6819840  38.8494650  96.7292010  66.9571590  39.3024650
 104.8074020  64.3273330  35.8453230 104.1139180  64.3250620  35.1855510
 105.5496880  63.9032650  35.4147400 104.3723950  65.9536040  39.9201720
 104.8280900  65.1725420  40.2340340 104.7116470  66.6642860  40.4642900
 109.1200760  54.8834890  50.2526160 108.5045030  55.3914560  49.7241620
 108.7997180  53.9833220  50.1952100  92.1226500  61.7252500  47.0792460
  92.2857540  61.2557860  46.2611830  92.5878950  61.2176060  47.7441300
  96.8945270  50.8558260  42.1153030  96.4513420  51.6367800  41.7837550
  97.4530260  51.1788150  42.8223970 101.1815080  53.7226780  47.7188350
 100.7194450  53.9309800  48.5308290 100.7793190  52.9086130  47.4159020
 106.1819590  54.9435730  48.8485010 105.3313180  54.6441480  49.1694080
 106.0221380  55.1877740  47.9368830 103.2769300  56.4437480  50.9483800
 103.6022710  55.6101230  50.6086030 104.0649630  56.9666000  51.0962130
 100.0104090  50.4768960  36.9958860  99.3858270  50.4728830  37.7212170
  99.9234210  49.6099920  36.5994830  98.9321170  51.4005590  43.9742630
  99.2293500  52.3068420  43.8934650  99.4806730  50.9124370  43.3602200
  96.6859490  55.9791830  39.8434280  96.4600410  55.7629000  40.7480900
  95.9052020  56.4120290  39.4980250 103.9157250  55.9855200  38.4424930
 103.3166140  56.7091000  38.2588550 104.4636860  55.9231980  37.6601380
  99.1258700  56.8777410  50.5094550  99.0302300  55.9372140  50.3594950
  99.9690680  57.0992480  50.1142620 102.5222120  54.6218740  40.4728210
 102.9151690  54.9390940  39.6596900 102.8838970  53.7430620  40.5872730
  94.2569240  53.2891080  48.6628330  93.8632630  54.1366290  48.8701110
  93.5687640  52.6517450  48.8536970 100.8314290  53.3726050  51.7325070
 100.1412610  53.1798250  52.3671160 101.5746590  53.6560690  52.2649370
  91.5586290  51.2119540  42.6958410  91.2699340  51.7822400  43.4083390
  92.3032050  50.7323990  43.0589640  91.7456520  55.1539660  33.9061130
  91.6631190  56.0970420  34.0476120  91.3939580  55.0114570  33.0273480
 103.1077260  57.2124490  44.5678990 102.3758380  57.7211300  44.9169090
 102.7101600  56.3954470  44.2667770  99.5454650  53.8878690  42.9731480
  99.5490710  53.4468640  42.1236020 100.4405770  54.2096020  43.0803300
  95.3957030  53.7705180  41.9325690  95.0557080  54.2480410  42.6892740
  94.6334350  53.3170300  41.5726790  99.6074800  54.8890770  35.9638240
  99.7287620  54.8477250  36.9124060  99.2223310  55.7514920  35.8084970
 103.5703170  52.6658170  43.9801930 103.5875910  53.1166820  44.8243780
 103.3218750  51.7663810  44.1935370  98.6196300  57.1991910  35.3621540
  98.0513200  56.7510160  34.7357450  99.3285300  57.5584690  34.8286690
 106.9973920  50.0790350  49.8188310 107.3219690  49.3480010  50.3446290
 107.0330430  49.7603990  48.9169300  93.6965480  61.1003930  49.2388270
  93.3120270  60.4597600  49.8371230  94.0077670  61.8040050  49.8083000
  99.8462620  57.9480470  44.7196890 100.2132750  57.4739040  45.4658230
  99.6567680  58.8222040  45.0605230  92.7103110  52.6924160  40.8490360
  92.4250030  52.3279830  41.6868980  92.6481970  51.9604620  40.2353500
  97.6361990  56.9889110  47.0381100  97.3319060  57.8681090  47.2631460
  98.5908450  57.0488900  47.0738540  96.1643780  61.1950100  37.6347950
  95.3906040  60.6547720  37.4746670  96.8938410  60.6756710  37.2965710
 106.9231760  60.1915460  43.4274340 107.6430880  60.6870750  43.0370450
 106.7213580  59.5133350  42.7828210 102.3841700  51.5853420  37.5703730
 101.5706310  51.0866590  37.4949040 102.1903650  52.4251670  37.1540080
 102.3050560  60.2624520  49.3143340 102.2387870  59.3420190  49.0600930
 101.6755700  60.3599960  50.0287980 105.0990090  55.9573070  35.8665890
 105.9869710  56.2690300  35.6917230 105.0695180  55.0845320  35.4746470
  96.2081180  60.8630480  41.2726760  96.7259850  60.0598740  41.2183650
  95.7565200  60.8009620  42.1143590 101.0950680  62.1296760  36.5454060
 101.4366380  62.8738990  36.0497380 100.2663390  62.4427880  36.9078890
  93.6925720  57.8291850  48.1852460  93.3340660  58.4945700  48.7725800
  93.3980280  56.9975400  48.5565080  96.8938840  58.2876090  51.0692010
  96.5938980  58.4333270  50.1719830  97.6650080  57.7281380  50.9765400
 102.2367290  63.0845090  49.0647140 102.2511830  62.1526050  48.8466050
 101.5292390  63.1704850  49.7036910 107.3704360  57.2684910  35.3345750
 107.2868080  57.6999130  34.4842190 108.0898550  57.7283260  35.7672570
 108.4478500  59.7252430  48.4115720 107.7226690  60.3181210  48.2145110
 108.9753960  59.7175970  47.6129090 108.3991610  64.1227170  38.0627880
 107.7567770  63.4682790  38.3371600 108.0122270  64.5282260  37.2868550
 103.9778090  61.4512600  41.9099570 104.3301910  60.8540730  41.2500940
 103.0940420  61.1256830  42.0807820 100.0641370  62.2110290  39.3169980
 100.7512500  62.7579500  39.6977570  99.2773790  62.7551020  39.3519590
  92.2033770  57.8283110  34.8087060  93.0728620  58.1107910  35.0922980
  91.7124090  58.6418980  34.6935870  99.3668580  59.2156320  38.9295340
  99.8231360  60.0261570  39.1555530  99.0156790  58.8979460  39.7613830
 101.6701190  64.7262660  46.1587640 102.3143410  64.9322040  46.8361060
 102.0330630  63.9651060  45.7058490  95.2680360  49.5593970  39.4017860
  95.1394990  49.5511870  40.3502780  94.4442380  49.8977060  39.0508870
 102.9433270  62.7295010  44.8765090 103.5855500  62.0288170  44.9897260
 103.4682620  63.5093450  44.6961980 106.7888990  63.0143630  34.6004230
 106.5626570  62.2974070  35.1928870 106.3985190  62.7656070  33.7625980
 104.7170890  63.5289910  48.0801150 105.0527130  64.1156600  48.7579070
 103.7971230  63.3982620  48.3098940  92.5705020  67.0410490  35.3748690
  92.9302660  67.6399830  34.7205960  92.4297360  67.5870380  36.1483720
  92.2674290  51.3185090  48.8624560  91.5532810  51.5182010  49.4677170
  92.6869330  50.5424660  49.2339360 106.3705240  60.9315570  36.2618390
 106.0826940  61.3928260  37.0496270 107.1657410  60.4713340  36.5302610
  92.5546880  65.3065350  49.8491090  92.6638000  64.3660090  49.7086480
  91.9027440  65.5720100  49.2004820 100.5459470  63.5781240  51.2489210
 100.2256340  62.8590480  51.7934900  99.8717830  64.2536310  51.3225270
  98.5873640  64.4241690  36.1922360  98.5783740  65.1571380  35.5766870
  97.6672000  64.1773270  36.2849320  94.1880280  59.6456580  36.9369120
  93.5808230  60.3855480  36.9464420  94.6629630  59.7355940  36.1107320
 103.7613070  53.8107400  46.6126010 104.1293890  52.9902610  46.9405580
 102.9011270  53.8709290  47.0281660 107.1275100  52.7664340  37.4213570
 106.4988260  52.8710010  36.7071800 106.6327020  52.9861120  38.2107450
 101.5733240  64.4869930  34.8547550 101.6745220  64.2833920  33.9249530
 100.6734980  64.2328210  35.0595330  99.0959130  55.0450290  38.8371450
  98.3875280  55.5136630  39.2785060  99.3803610  54.3872300  39.4716640
 100.7215060  56.4646990  46.8363980 101.2200310  56.9392810  47.5015830
 100.8638010  55.5410510  47.0434010 103.1274560  51.7700950  40.2767240
 103.0042340  51.7887080  39.3276750 104.0759120  51.8179890  40.3965640
 100.2151350  67.0056250  39.5495220 100.4692850  66.9677640  38.6274590
  99.2663830  66.8789580  39.5423470  97.2994150  53.3535370  36.2122160
  98.1484680  53.7905520  36.1462350  96.9325420  53.6655630  37.0394220
 107.9281920  52.6814950  47.6792370 107.4255520  53.4220350  48.0186180
 108.7438580  53.0698950  47.3629160 106.2203930  57.9248130  41.1253730
 105.2794070  57.9398360  41.3001420 106.5348000  57.1384090  41.5714030
  96.1985570  59.6067730  34.6857690  96.9648840  59.4949090  35.2483120
  96.2760260  58.9105700  34.0334460  94.8932330  57.0392800  35.3690580
  94.9735920  56.0920310  35.4807980  95.7852080  57.3699680  35.4751240
 108.2229510  65.0956980  42.8007990 108.3476930  65.9188150  43.2731800
 109.0895070  64.8847710  42.4532140  95.6947040  67.1888190  42.4725120
  96.4309520  66.6403650  42.7433690  96.0787960  68.0544200  42.3331110
  92.5792520  63.2561760  38.3466630  91.6532300  63.4982900  38.3372040
  93.0448950  64.0836020  38.2251380  94.7005320  66.3734260  51.6610700
  95.5018050  66.6946310  52.0746100  94.1857140  66.0129840  52.3830610
  98.8049350  66.3618500  34.2950690  99.5977960  66.6507330  33.8432480
  98.2853700  65.9310670  33.6163170 103.5369950  62.4814130  51.6086110
 102.9308110  62.5045730  50.8681860 103.2324060  61.7497170  52.1453360
 104.9670320  66.2094420  50.2195520 105.9192070  66.1252440  50.1695760
 104.8198540  66.8736130  50.8929310 107.8579520  65.5888630  35.7187430
 107.5721030  65.1753770  34.9041610 107.6599070  66.5176340  35.5987950
  92.4203130  58.8607720  50.6046750  92.9242150  58.2815000  51.1762980
  91.6810550  59.1447950  51.1423120  99.3226750  61.5821910  34.1593040
  99.2177390  60.9674260  34.8854420  99.1550970  61.0587800  33.3756050
  99.4741070  60.2678710  50.1382270  98.7086740  60.8363710  50.0536940
  99.6557030  59.9754920  49.2450500 102.5629480  60.6441940  34.7635030
 102.0139580  61.0911240  35.4077770 103.1848740  60.1391190  35.2872700
 106.6164420  61.9984040  50.6957290 107.3573890  62.3359800  50.1924750
 105.8537100  62.1676100  50.1427060  94.4526210  57.0037310  51.4996820
  94.4931550  56.7051180  52.4082050  95.3071710  57.4044920  51.3404340
  98.2304600  59.6032860  36.6600330  98.6521020  59.4372730  37.5031720
  98.3555440  58.7933090  36.1655470  96.3932020  55.5829410  49.4671310
  95.8628480  55.0920360  48.8394650  97.0620090  56.0113610  48.9329240
 100.7432240  58.6270470  33.9077430 101.2637900  57.9119490  33.5418580
 101.3900640  59.2656340  34.2077940 105.2910080  60.0498870  49.2312500
 105.7051100  60.2043950  50.0802920 104.3561080  60.1754090  49.3938280
 105.7632250  57.3895030  51.2351650 106.3453020  56.6347350  51.1472130
 105.9394020  57.9202470  50.4583130  96.8804320  52.5491780  49.5468600
  96.7861190  51.9312530  48.8219470  96.3001710  53.2758070  49.3198510
  99.6465760  51.1065020  46.5795990  99.1983060  51.1289280  45.7341540
  99.0130960  50.7084040  47.1766290 100.0525310  60.0019350  47.2008430
 100.4713420  60.8452080  47.0284670  99.1333940  60.1391390  46.9715210
 102.3889210  57.7335530  48.5846270 102.5085420  57.1376670  49.3241110
 103.2483210  57.7705220  48.1647570 104.7277110  58.2872720  47.1608780
 104.2012330  58.8115340  46.5573920 105.0708450  58.9200110  47.7918510
  97.1263500  55.6766090  33.6058490  96.9252560  54.8133450  33.9671830
  96.9555550  55.5899450  32.6680090  97.9032730  66.3072360  48.3166160
  97.3653820  67.0318420  47.9974860  98.1566690  65.8302700  47.5263500
  99.1557980  54.2756880  49.8422090  99.7457670  53.9672730  50.5299910
  98.3378220  53.8036630  49.9981990 103.9751410  53.8922690  50.0755110
 103.2866930  53.2304230  50.0105100 104.6957430  53.4460960  50.5203570
 104.6051810  50.4874320  36.1345370 104.8854100  49.6442220  36.4904790
 103.8317540  50.7197430  36.6484120  95.9246300  52.7766710  33.5936370
  96.2272200  52.7834140  32.6855520  96.6640890  52.4264570  34.0904030
 100.7594940  67.5423570  48.5752810 100.6853640  68.4458710  48.8825180
  99.8573780  67.2235470  48.5474880  99.1431230  51.7201330  34.5792570
  98.7953230  51.0425320  33.9995020  99.3444000  51.2590840  35.3935960
 101.3080270  66.7082080  36.1979170 102.2031060  67.0467050  36.2197930
 101.3397900  65.9861490  35.5703450  94.9476430  62.0809130  34.4266170
  95.3851300  62.6238800  35.0823750  95.4324160  61.2556080  34.4362510
  92.1622230  64.8698160  41.8786430  92.4925240  64.0019220  41.6465070
  92.5913230  65.0756680  42.7091390  96.7584150  63.2007170  39.5388400
  96.4579690  63.0772140  40.4392310  96.6521640  62.3415760  39.1304130
  92.6512440  65.7368750  44.6168060  92.2143430  65.9169550  45.4492210
  93.2190120  66.4943370  44.4749780 108.2874620  65.2385750  48.9045370
 107.6876610  65.2978310  48.1609290 108.4168520  64.2990730  49.0342220
 109.5276070  62.9803570  34.2415080 108.6969030  63.0480220  34.7122310
 109.7047900  63.8707690  33.9381940 108.9832530  59.7251050  36.7449280
 109.7451440  60.2947700  36.8508970 108.9986900  59.1578250  37.5157590
  92.4836870  58.2488980  40.9756940  91.8285710  57.9800620  40.3316640
  93.3214820  58.1393460  40.5258920 109.9892500  60.5801150  41.5891210
 110.3601330  59.7968470  41.1827180 110.6294430  61.2690250  41.4108510
 106.9726260  61.9637730  47.0021530 106.1586100  62.3934890  47.2647320
 107.3800460  62.5756140  46.3890580 109.0351700  60.0185420  33.9021800
 109.3100540  60.9264300  33.7741020 108.8462440  59.9547950  34.8383790
 105.4327310  53.0430270  35.1975430 105.8512190  52.8561250  34.3572090
 105.1263370  52.1909320  35.5078360 108.9317040  57.9554410  38.8951230
 108.5560640  57.1882340  38.4632520 108.2020160  58.3377110  39.3826160
  93.5212800  58.6341550  45.5160280  93.8885840  58.5468950  46.3956300
  92.9523620  57.8708100  45.4167140 108.3216660  57.1025930  48.5290750
 108.0902750  56.8738680  47.6288700 108.5821210  58.0225480  48.4835640
  93.0728800  55.5450640  49.4218700  92.1784850  55.5117400  49.7612410
  93.6126350  55.7437430  50.1869950 106.7604730  52.3282360  51.3070450
 107.6374910  52.3365760  51.6904450 106.7725570  51.5913200  50.6962800
  91.6974950  55.4587910  36.9182270  90.7939030  55.7218110  36.7433930
  92.1815570  55.7299080  36.1382230 108.2068000  56.1811900  42.1958470
 108.7305480  55.6874550  41.5648640 108.7927420  56.3162260  42.9406040
 108.3857720  56.2651770  45.7178020 107.4360430  56.2315310  45.8323010
 108.5670730  57.1751880  45.4827790  94.2402160  54.5153450  34.8276650
  94.9493860  54.0936670  34.3423930  93.5242100  54.5828680  34.1960000
  93.8876320  50.5692780  33.8679300  94.6104450  51.1101720  34.1860520
  94.1600840  50.2956200  32.9920840 107.6967970  55.4385250  38.1350880
 108.1927090  55.2056120  38.9199760 107.4984040  54.5997090  37.7188520
  93.5768510  49.8198970  43.7701920  94.2244700  49.2696350  43.3297080
  93.9970350  50.0742120  44.5917730 109.1255130  54.0746200  40.6688560
 109.0154410  53.9202240  41.6070830 109.8862720  53.5467140  40.4263970
 107.4720850  50.0140330  47.1271560 108.1093070  50.6274470  47.4930750
 107.6195740  50.0500990  46.1820790 110.0145400  51.9054120  33.9094700
 110.9394710  51.7735300  33.7012990 109.9921190  51.9846940  34.8631150
 110.0883890  52.6764780  36.5351410 109.2935390  52.6109900  37.0644320
 110.2927170  53.6115420  36.5236760 107.0302310  66.7156330  40.5289800
 107.6261380  66.3940900  39.8524220 107.2880460  66.2428150  41.3203070
  93.3300510  49.9754640  46.5127240  92.9815330  50.4318460  47.2785420
  92.9988210  49.0811770  46.5949670  94.9364880  63.1474240  50.6780430
  94.8934510  62.7767150  51.5594890  95.0675890  64.0851810  50.8182250
  98.6370910  64.7033830  46.2790150  98.3962270  64.9708390  45.3920670
  99.5773550  64.8739560  46.3341010 100.8425330  51.1666520  50.0346660
 100.7814220  51.7588350  50.7842070 101.7825710  51.0592480  49.8896920
 103.4799890  50.8236580  49.6738950 104.0940300  51.1415870  49.0120030
 104.0249450  50.3385170  50.2934810 109.8975070  66.7228210  47.0800790
 109.4033350  67.1197080  46.3627920 109.2888360  66.0977420  47.4738070
  94.0021150  49.5030840  49.7878010  94.5504140  49.3218890  49.0244120
  94.0676460  48.7124950  50.3234320  94.7752910  66.0936490  47.7978210
  94.1813230  65.9621190  48.5368250  94.7676750  65.2574630  47.3320310
 104.2207930  49.3868720  46.0008240 103.3467770  49.7203830  45.7981170
 104.1118680  48.9141900  46.8260110 105.1279910  51.5939590  47.3849960
 104.7993270  50.7791350  47.0051690 106.0762210  51.5509400  47.2615650
 107.5814520  67.3651630  44.3587530 107.1217490  68.1167440  43.9845550
 106.9526980  66.6458100  44.3002330  94.4065140  63.4594870  46.7486250
  93.6799200  62.8400160  46.6812200  94.4674290  63.8535480  45.8784330
  98.0110240  65.6739870  43.5335660  98.5275260  65.0627230  43.0083920
  98.6607620  66.1768650  44.0246670 100.7505740  66.5648360  44.3604640
 101.0383550  66.3102660  43.4837650 101.2628960  66.0125720  44.9510210
 101.9682750  50.3038560  44.9401150 101.1854540  50.7784060  45.2197910
 101.6745680  49.3993390  44.8314330 106.5203820  51.0061660  42.9850240
 106.9611910  50.9506760  42.1371840 106.2511410  51.9219670  43.0560420
 108.3842390  50.6376900  40.9959060 108.3230790  49.6938120  40.8490080
 109.1634420  50.7456990  41.5412520  92.6895140  66.7769260  39.9583010
  92.5217180  66.1439940  40.6564900  91.8229650  66.9828660  39.6077200
  93.3123160  50.6086040  37.4614870  94.0702520  50.7214920  36.8878900
  92.8500330  51.4455240  37.4158300  99.8536970  52.7225310  40.4517180
  99.0411480  52.3482200  40.1113060 100.3578610  51.9670390  40.7538370
 104.3561950  49.3867760  41.6900250 104.9591320  49.9587970  42.1648770
 103.6154940  49.9507200  41.4674150 107.4996550  49.7889320  36.9640530
 107.6947180  50.6872770  37.2307960 106.7126420  49.5576400  37.4573480
  94.2957840  65.4702490  37.4033150  93.7705460  65.8510520  36.6995110
  94.2202420  66.0953260  38.1242860  95.6848310  51.1350090  36.0016840
  96.2141070  50.3479890  35.8724790  96.3176630  51.8141280  36.2352370
  97.8786150  50.8725230  39.0562230  97.2488890  50.1712540  39.2232360
  97.3391290  51.6329360  38.8395390 100.8178100  67.4864460  51.7272840
 101.7445410  67.2508730  51.7708800 100.8028530  68.3136460  51.2458870
 109.0523160  67.0290030  38.7247090 109.2275350  66.3427770  38.0808010
 108.3544730  67.5537080  38.3323760  98.0041710  50.1509210  51.4914720
  97.7225980  50.6542810  50.7275540  98.3861410  49.3530960  51.1256850
  96.8950810  67.4184870  36.2782400  97.6269630  67.1344150  35.7306290
  97.1544480  67.1798150  37.1681780  96.0565600  63.5349600  36.2828730
  95.4274480  64.0034700  36.8314560  96.1713430  62.6898820  36.7174920
 104.6057170  49.5662790  52.0695190 104.4922620  49.8857400  52.9646710
 105.4226910  49.9675300  51.7732470 107.3855660  66.7134320  51.5513880
 108.1780980  66.2183550  51.3439840 107.6788810  67.3924460  52.1589490
 103.5115320  57.5855260  22.4329930 103.4309370  56.6709870  22.1621640
 103.0979740  58.0822330  21.7269640 101.6433360  59.3634280  24.3139200
 100.8675460  58.8834720  24.6037770 102.2946290  58.6839930  24.1395360
  95.6599190  59.6754090  25.1914960  94.8284070  59.4202800  25.5911470
  96.2680170  59.7464860  25.9272880 105.6640790  63.7694470  23.0938330
 105.2022320  62.9981710  23.4225500 106.4766340  63.7960540  23.5990780
  95.6400450  63.7094180  25.3872980  95.9428490  62.8191920  25.2083200
  96.3844040  64.2664400  25.1595230  94.0691140  54.6355980  18.9757350
  93.1807840  54.9771950  18.8737230  94.3532330  54.4356300  18.0838180
  92.0324150  57.2361630  24.8597050  92.6040260  56.4683830  24.8600690
  92.0325690  57.5350390  23.9503660 101.8904100  66.0552480  22.7142320
 101.2715540  66.5109980  22.1436760 102.7455880  66.2103940  22.3132020
 101.0842350  62.0391470  24.3209360 101.0150630  61.0981410  24.1598490
 101.8462210  62.1292880  24.8931930  93.2749020  52.6445990  26.6465980
  93.0951860  51.7471740  26.9268740  92.8729100  53.1917860  27.3212930
 102.1147520  54.8461850  24.5478290 102.4912340  53.9733730  24.4351960
 102.0167030  55.1820550  23.6568730  96.2452530  53.2187480  20.0095730
  96.3519280  54.1191210  20.3164490  95.3344890  53.1705450  19.7190380
 105.8971640  52.3412290  21.4806630 106.7181260  51.8508860  21.5232110
 105.9305720  52.9309950  22.2338470  93.8935690  55.1406490  25.2548320
  94.5745800  55.4044860  25.8735720  93.5783740  54.3007360  25.5886330
  98.0860260  56.1873850  24.3420910  98.5938480  56.6854820  24.9825930
  98.6173500  55.4109050  24.1660270 110.1871190  54.3579040  28.0450260
 109.4823360  54.7460750  27.5265370 110.4529110  55.0529330  28.6471190
  96.3696360  50.8272410  28.6084330  96.3714800  51.3444800  27.8030230
  95.5400670  50.3502590  28.5854260 102.7567450  60.9391720  20.1074230
 102.1384720  61.4041170  19.5436950 103.2690700  61.6319200  20.5243740
  97.6199210  60.4667590  26.7857830  97.2868590  61.0936510  27.4278900
  97.7965890  60.9929470  26.0059500 106.1333120  54.2812670  24.2534170
 105.4288690  54.5697560  24.8337280 106.4945280  55.0912780  23.8933730
  96.0511690  52.5382370  26.6154780  96.3928500  53.3824420  26.3208650
  95.1127500  52.6866110  26.7320120  96.8318310  62.4348390  28.6007010
  97.4492310  63.1099470  28.3191460  95.9711430  62.8436370  28.5094510
  92.1250650  61.6248250  17.4813860  91.7478630  62.1135350  16.7498760
  92.3823720  62.2973530  18.1120390 107.7495900  63.8987800  26.5161650
 107.0659420  64.5686910  26.5078320 108.2890190  64.0968450  25.7506510
 109.2020040  53.7267460  24.6443380 108.2544950  53.7606440  24.7758810
 109.5270030  54.5406410  25.0292740  99.7339580  50.0264640  22.9399370
 100.0414560  49.4711530  22.2234870  98.8040280  50.1609100  22.7572360
 105.2854640  65.7431930  25.2306830 105.2981800  65.3394220  24.3629090
 104.7329860  66.5179220  25.1268260 106.5800060  62.4648150  20.3197000
 106.4696390  61.5222480  20.4446420 106.5768310  62.8263790  21.2059760
 104.6840080  60.6461770  26.5589440 105.1008870  60.4321880  25.7242900
 105.4079900  60.9034560  27.1298060 102.1220340  58.0913470  19.6759490
 101.1949620  58.0250850  19.9047960 102.2745160  59.0293600  19.5614730
 102.1089420  54.3630470  16.6726650 101.1693090  54.5244430  16.7579110
 102.4272680  55.0816150  16.1262640 108.6302180  59.0448990  26.6505680
 107.8020810  59.1142080  26.1755810 109.2252660  59.6303300  26.1821510
 106.1517630  59.6533770  20.1794740 105.5330050  59.3153320  19.5321040
 106.1342080  59.0093530  20.8873930 105.5944190  55.8318310  27.5960550
 105.1815370  56.6572020  27.8500540 104.8620140  55.2463350  27.4036910
  97.7276980  58.6178210  22.4579220  97.3233980  57.9055460  21.9625120
  97.8140100  58.2731450  23.3467260  98.1958680  62.3045770  24.6218430
  97.8986970  61.6991240  23.9426210  99.1458500  62.3423080  24.5107790
  96.4405600  55.3921420  26.2378260  96.9920190  55.5016760  25.4631510
  96.9549110  55.7659020  26.9533490 106.2844290  65.8777640  28.2841530
 105.8074850  66.6849830  28.0914140 105.6006080  65.2255970  28.4367740
  97.2877110  62.0427460  31.2726230  96.3905640  62.2667430  31.5199630
  97.3129980  62.1662400  30.3237630 104.3282330  58.8920580  17.1867490
 104.7675610  58.0543010  17.0405310 105.0410750  59.5249980  17.2731630
  96.1148330  58.9140780  29.8483600  95.9756100  59.7863580  30.2171000
  95.2329690  58.5713590  29.7031540 102.4377710  63.8316650  21.1548730
 102.8773620  64.5740980  20.7404120 102.3764600  64.0743220  22.0787690
  97.9128680  64.8562480  32.0568750  97.8844110  65.2605430  31.1897180
  97.7493650  63.9272840  31.8940350 107.9099470  50.1463390  15.5008530
 107.5972130  50.2390220  16.4007600 108.6711940  50.7244420  15.4505960
  94.4281610  57.5123190  19.9585870  94.3079210  58.2385280  19.3467140
  94.1182500  56.7426100  19.4813780 109.8643500  65.6389580  33.3532920
 110.3403220  66.1172470  34.0322000 110.4850660  65.5707070  32.6278420
  92.0666980  60.6838330  25.7654510  92.1447400  60.8187100  24.8210230
  92.6808660  59.9754220  25.9582630  93.3114610  62.3838520  22.1760690
  92.9042690  62.5253110  21.3214290  94.2027620  62.0998680  21.9731900
 109.2676750  62.8302430  30.5132930 109.3939810  62.5914310  29.5950110
 109.3098130  61.9986970  30.9855010 103.1293490  66.5330430  29.0827740
 103.6438160  66.4438440  29.8850170 102.2862570  66.8790130  29.3755650
 105.1047890  66.8185770  18.5111740 104.9449030  66.5288710  19.4093570
 104.9394600  66.0425900  17.9756970  97.5836270  66.5984300  20.2883360
  97.4078750  65.6819840  20.0751160  96.7292010  66.9571590  20.5281160
 104.8074020  64.3273330  17.0709740 104.1139180  64.3250620  16.4112020
 105.5496880  63.9032650  16.6403910 104.3723950  65.9536040  21.1458230
 104.8280900  65.1725420  21.4596850 104.7116470  66.6642860  21.6899410
 109.1200760  54.8834890  31.4782670 108.5045030  55.3914560  30.9498130
 108.7997180  53.9833220  31.4208610  92.1226500  61.7252500  28.3048970
  92.2857540  61.2557860  27.4868340  92.5878950  61.2176060  28.9697810
  96.8945270  50.8558260  23.3409540  96.4513420  51.6367800  23.0094060
  97.4530260  51.1788150  24.0480480 101.1815080  53.7226780  28.9444860
 100.7194450  53.9309800  29.7564800 100.7793190  52.9086130  28.6415530
 106.1819590  54.9435730  30.0741520 105.3313180  54.6441480  30.3950590
 106.0221380  55.1877740  29.1625340 103.2769300  56.4437480  32.1740310
 103.6022710  55.6101230  31.8342540 104.0649630  56.9666000  32.3218640
 100.0104090  50.4768960  18.2215370  99.3858270  50.4728830  18.9468680
  99.9234210  49.6099920  17.8251340  98.9321170  51.4005590  25.1999140
  99.2293500  52.3068420  25.1191160  99.4806730  50.9124370  24.5858710
  96.6859490  55.9791830  21.0690790  96.4600410  55.7629000  21.9737410
  95.9052020  56.4120290  20.7236760 103.9157250  55.9855200  19.6681440
 103.3166140  56.7091000  19.4845060 104.4636860  55.9231980  18.8857890
  99.1258700  56.8777410  31.7351060  99.0302300  55.9372140  31.5851460
  99.9690680  57.0992480  31.3399130 102.5222120  54.6218740  21.6984720
 102.9151690  54.9390940  20.8853410 102.8838970  53.7430620  21.8129240
  94.2569240  53.2891080  29.8884840  93.8632630  54.1366290  30.0957620
  93.5687640  52.6517450  30.0793480 100.8314290  53.3726050  32.9581580
 100.1412610  53.1798250  33.5927670 101.5746590  53.6560690  33.4905880
  91.5586290  51.2119540  23.9214920  91.2699340  51.7822400  24.6339900
  92.3032050  50.7323990  24.2846150  91.7456520  55.1539660  15.1317640
  91.6631190  56.0970420  15.2732630  91.3939580  55.0114570  14.2529990
 103.1077260  57.2124490  25.7935500 102.3758380  57.7211300  26.1425600
 102.7101600  56.3954470  25.4924280  99.5454650  53.8878690  24.1987990
  99.5490710  53.4468640  23.3492530 100.4405770  54.2096020  24.3059810
  95.3957030  53.7705180  23.1582200  95.0557080  54.2480410  23.9149250
  94.6334350  53.3170300  22.7983300  99.6074800  54.8890770  17.1894750
  99.7287620  54.8477250  18.1380570  99.2223310  55.7514920  17.0341480
 103.5703170  52.6658170  25.2058440 103.5875910  53.1166820  26.0500290
 103.3218750  51.7663810  25.4191880  98.6196300  57.1991910  16.5878050
  98.0513200  56.7510160  15.9613960  99.3285300  57.5584690  16.0543200
 106.9973920  50.0790350  31.0444820 107.3219690  49.3480010  31.5702800
 107.0330430  49.7603990  30.1425810  93.6965480  61.1003930  30.4644780
  93.3120270  60.4597600  31.0627740  94.0077670  61.8040050  31.0339510
  99.8462620  57.9480470  25.9453400 100.2132750  57.4739040  26.6914740
  99.6567680  58.8222040  26.2861740  92.7103110  52.6924160  22.0746870
  92.4250030  52.3279830  22.9125490  92.6481970  51.9604620  21.4610010
  97.6361990  56.9889110  28.2637610  97.3319060  57.8681090  28.4887970
  98.5908450  57.0488900  28.2995050  96.1643780  61.1950100  18.8604460
  95.3906040  60.6547720  18.7003180  96.8938410  60.6756710  18.5222220
 106.9231760  60.1915460  24.6530850 107.6430880  60.6870750  24.2626960
 106.7213580  59.5133350  24.0084720 102.3841700  51.5853420  18.7960240
 101.5706310  51.0866590  18.7205550 102.1903650  52.4251670  18.3796590
 102.3050560  60.2624520  30.5399850 102.2387870  59.3420190  30.2857440
 101.6755700  60.3599960  31.2544490 105.0990090  55.9573070  17.0922400
 105.9869710  56.2690300  16.9173740 105.0695180  55.0845320  16.7002980
  96.2081180  60.8630480  22.4983270  96.7259850  60.0598740  22.4440160
  95.7565200  60.8009620  23.3400100 101.0950680  62.1296760  17.7710570
 101.4366380  62.8738990  17.2753890 100.2663390  62.4427880  18.1335400
  93.6925720  57.8291850  29.4108970  93.3340660  58.4945700  29.9982310
  93.3980280  56.9975400  29.7821590  96.8938840  58.2876090  32.2948520
  96.5938980  58.4333270  31.3976340  97.6650080  57.7281380  32.2021910
 102.2367290  63.0845090  30.2903650 102.2511830  62.1526050  30.0722560
 101.5292390  63.1704850  30.9293420 107.3704360  57.2684910  16.5602260
 107.2868080  57.6999130  15.7098700 108.0898550  57.7283260  16.9929080
 108.4478500  59.7252430  29.6372230 107.7226690  60.3181210  29.4401620
 108.9753960  59.7175970  28.8385600 108.3991610  64.1227170  19.2884390
 107.7567770  63.4682790  19.5628110 108.0122270  64.5282260  18.5125060
 103.9778090  61.4512600  23.1356080 104.3301910  60.8540730  22.4757450
 103.0940420  61.1256830  23.3064330 100.0641370  62.2110290  20.5426490
 100.7512500  62.7579500  20.9234080  99.2773790  62.7551020  20.5776100
  92.2033770  57.8283110  16.0343570  93.0728620  58.1107910  16.3179490
  91.7124090  58.6418980  15.9192380  99.3668580  59.2156320  20.1551850
  99.8231360  60.0261570  20.3812040  99.0156790  58.8979460  20.9870340
 101.6701190  64.7262660  27.3844150 102.3143410  64.9322040  28.0617570
 102.0330630  63.9651060  26.9315000  95.2680360  49.5593970  20.6274370
  95.1394990  49.5511870  21.5759290  94.4442380  49.8977060  20.2765380
 102.9433270  62.7295010  26.1021600 103.5855500  62.0288170  26.2153770
 103.4682620  63.5093450  25.9218490 106.7888990  63.0143630  15.8260740
 106.5626570  62.2974070  16.4185380 106.3985190  62.7656070  14.9882490
 104.7170890  63.5289910  29.3057660 105.0527130  64.1156600  29.9835580
 103.7971230  63.3982620  29.5355450  92.5705020  67.0410490  16.6005200
  92.9302660  67.6399830  15.9462470  92.4297360  67.5870380  17.3740230
  92.2674290  51.3185090  30.0881070  91.5532810  51.5182010  30.6933680
  92.6869330  50.5424660  30.4595870 106.3705240  60.9315570  17.4874900
 106.0826940  61.3928260  18.2752780 107.1657410  60.4713340  17.7559120
  92.5546880  65.3065350  31.0747600  92.6638000  64.3660090  30.9342990
  91.9027440  65.5720100  30.4261330 100.5459470  63.5781240  32.4745720
 100.2256340  62.8590480  33.0191410  99.8717830  64.2536310  32.5481780
  98.5873640  64.4241690  17.4178870  98.5783740  65.1571380  16.8023380
  97.6672000  64.1773270  17.5105830  94.1880280  59.6456580  18.1625630
  93.5808230  60.3855480  18.1720930  94.6629630  59.7355940  17.3363830
 103.7613070  53.8107400  27.8382520 104.1293890  52.9902610  28.1662090
 102.9011270  53.8709290  28.2538170 107.1275100  52.7664340  18.6470080
 106.4988260  52.8710010  17.9328310 106.6327020  52.9861120  19.4363960
 101.5733240  64.4869930  16.0804060 101.6745220  64.2833920  15.1506040
 100.6734980  64.2328210  16.2851840  99.0959130  55.0450290  20.0627960
  98.3875280  55.5136630  20.5041570  99.3803610  54.3872300  20.6973150
 100.7215060  56.4646990  28.0620490 101.2200310  56.9392810  28.7272340
 100.8638010  55.5410510  28.2690520 103.1274560  51.7700950  21.5023750
 103.0042340  51.7887080  20.5533260 104.0759120  51.8179890  21.6222150
 100.2151350  67.0056250  20.7751730 100.4692850  66.9677640  19.8531100
  99.2663830  66.8789580  20.7679980  97.2994150  53.3535370  17.4378670
  98.1484680  53.7905520  17.3718860  96.9325420  53.6655630  18.2650730
 107.9281920  52.6814950  28.9048880 107.4255520  53.4220350  29.2442690
 108.7438580  53.0698950  28.5885670 106.2203930  57.9248130  22.3510240
 105.2794070  57.9398360  22.5257930 106.5348000  57.1384090  22.7970540
  96.1985570  59.6067730  15.9114200  96.9648840  59.4949090  16.4739630
  96.2760260  58.9105700  15.2590970  94.8932330  57.0392800  16.5947090
  94.9735920  56.0920310  16.7064490  95.7852080  57.3699680  16.7007750
 108.2229510  65.0956980  24.0264500 108.3476930  65.9188150  24.4988310
 109.0895070  64.8847710  23.6788650  95.6947040  67.1888190  23.6981630
  96.4309520  66.6403650  23.9690200  96.0787960  68.0544200  23.5587620
  92.5792520  63.2561760  19.5723140  91.6532300  63.4982900  19.5628550
  93.0448950  64.0836020  19.4507890  94.7005320  66.3734260  32.8867210
  95.5018050  66.6946310  33.3002610  94.1857140  66.0129840  33.6087120
  98.8049350  66.3618500  15.5207200  99.5977960  66.6507330  15.0688990
  98.2853700  65.9310670  14.8419680 103.5369950  62.4814130  32.8342620
 102.9308110  62.5045730  32.0938370 103.2324060  61.7497170  33.3709870
 104.9670320  66.2094420  31.4452030 105.9192070  66.1252440  31.3952270
 104.8198540  66.8736130  32.1185820 107.8579520  65.5888630  16.9443940
 107.5721030  65.1753770  16.1298120 107.6599070  66.5176340  16.8244460
  92.4203130  58.8607720  31.8303260  92.9242150  58.2815000  32.4019490
  91.6810550  59.1447950  32.3679630  99.3226750  61.5821910  15.3849550
  99.2177390  60.9674260  16.1110930  99.1550970  61.0587800  14.6012560
  99.4741070  60.2678710  31.3638780  98.7086740  60.8363710  31.2793450
  99.6557030  59.9754920  30.4707010 102.5629480  60.6441940  15.9891540
 102.0139580  61.0911240  16.6334280 103.1848740  60.1391190  16.5129210
 106.6164420  61.9984040  31.9213800 107.3573890  62.3359800  31.4181260
 105.8537100  62.1676100  31.3683570  94.4526210  57.0037310  32.7253330
  94.4931550  56.7051180  33.6338560  95.3071710  57.4044920  32.5660850
  98.2304600  59.6032860  17.8856840  98.6521020  59.4372730  18.7288230
  98.3555440  58.7933090  17.3911980  96.3932020  55.5829410  30.6927820
  95.8628480  55.0920360  30.0651160  97.0620090  56.0113610  30.1585750
 100.7432240  58.6270470  15.1333940 101.2637900  57.9119490  14.7675090
 101.3900640  59.2656340  15.4334450 105.2910080  60.0498870  30.4569010
 105.7051100  60.2043950  31.3059430 104.3561080  60.1754090  30.6194790
 105.7632250  57.3895030  32.4608160 106.3453020  56.6347350  32.3728640
 105.9394020  57.9202470  31.6839640  96.8804320  52.5491780  30.7725110
  96.7861190  51.9312530  30.0475980  96.3001710  53.2758070  30.5455020
  99.6465760  51.1065020  27.8052500  99.1983060  51.1289280  26.9598050
  99.0130960  50.7084040  28.4022800 100.0525310  60.0019350  28.4264940
 100.4713420  60.8452080  28.2541180  99.1333940  60.1391390  28.1971720
 102.3889210  57.7335530  29.8102780 102.5085420  57.1376670  30.5497620
 103.2483210  57.7705220  29.3904080 104.7277110  58.2872720  28.3865290
 104.2012330  58.8115340  27.7830430 105.0708450  58.9200110  29.0175020
  97.1263500  55.6766090  14.8315000  96.9252560  54.8133450  15.1928340
  96.9555550  55.5899450  13.8936600  97.9032730  66.3072360  29.5422670
  97.3653820  67.0318420  29.2231370  98.1566690  65.8302700  28.7520010
  99.1557980  54.2756880  31.0678600  99.7457670  53.9672730  31.7556420
  98.3378220  53.8036630  31.2238500 103.9751410  53.8922690  31.3011620
 103.2866930  53.2304230  31.2361610 104.6957430  53.4460960  31.7460080
 104.6051810  50.4874320  17.3601880 104.8854100  49.6442220  17.7161300
 103.8317540  50.7197430  17.8740630  95.9246300  52.7766710  14.8192880
  96.2272200  52.7834140  13.9112030  96.6640890  52.4264570  15.3160540
 100.7594940  67.5423570  29.8009320 100.6853640  68.4458710  30.1081690
  99.8573780  67.2235470  29.7731390  99.1431230  51.7201330  15.8049080
  98.7953230  51.0425320  15.2251530  99.3444000  51.2590840  16.6192470
 101.3080270  66.7082080  17.4235680 102.2031060  67.0467050  17.4454440
 101.3397900  65.9861490  16.7959960  94.9476430  62.0809130  15.6522680
  95.3851300  62.6238800  16.3080260  95.4324160  61.2556080  15.6619020
  92.1622230  64.8698160  23.1042940  92.4925240  64.0019220  22.8721580
  92.5913230  65.0756680  23.9347900  96.7584150  63.2007170  20.7644910
  96.4579690  63.0772140  21.6648820  96.6521640  62.3415760  20.3560640
  92.6512440  65.7368750  25.8424570  92.2143430  65.9169550  26.6748720
  93.2190120  66.4943370  25.7006290 108.2874620  65.2385750  30.1301880
 107.6876610  65.2978310  29.3865800 108.4168520  64.2990730  30.2598730
 109.5276070  62.9803570  15.4671590 108.6969030  63.0480220  15.9378820
 109.7047900  63.8707690  15.1638450 108.9832530  59.7251050  17.9705790
 109.7451440  60.2947700  18.0765480 108.9986900  59.1578250  18.7414100
  92.4836870  58.2488980  22.2013450  91.8285710  57.9800620  21.5573150
  93.3214820  58.1393460  21.7515430 109.9892500  60.5801150  22.8147720
 110.3601330  59.7968470  22.4083690 110.6294430  61.2690250  22.6365020
 106.9726260  61.9637730  28.2278040 106.1586100  62.3934890  28.4903830
 107.3800460  62.5756140  27.6147090 109.0351700  60.0185420  15.1278310
 109.3100540  60.9264300  14.9997530 108.8462440  59.9547950  16.0640300
 105.4327310  53.0430270  16.4231940 105.8512190  52.8561250  15.5828600
 105.1263370  52.1909320  16.7334870 108.9317040  57.9554410  20.1207740
 108.5560640  57.1882340  19.6889030 108.2020160  58.3377110  20.6082670
  93.5212800  58.6341550  26.7416790  93.8885840  58.5468950  27.6212810
  92.9523620  57.8708100  26.6423650 108.3216660  57.1025930  29.7547260
 108.0902750  56.8738680  28.8545210 108.5821210  58.0225480  29.7092150
  93.0728800  55.5450640  30.6475210  92.1784850  55.5117400  30.9868920
  93.6126350  55.7437430  31.4126460 106.7604730  52.3282360  32.5326960
 107.6374910  52.3365760  32.9160960 106.7725570  51.5913200  31.9219310
  91.6974950  55.4587910  18.1438780  90.7939030  55.7218110  17.9690440
  92.1815570  55.7299080  17.3638740 108.2068000  56.1811900  23.4214980
 108.7305480  55.6874550  22.7905150 108.7927420  56.3162260  24.1662550
 108.3857720  56.2651770  26.9434530 107.4360430  56.2315310  27.0579520
 108.5670730  57.1751880  26.7084300  94.2402160  54.5153450  16.0533160
  94.9493860  54.0936670  15.5680440  93.5242100  54.5828680  15.4216510
  93.8876320  50.5692780  15.0935810  94.6104450  51.1101720  15.4117030
  94.1600840  50.2956200  14.2177350 107.6967970  55.4385250  19.3607390
 108.1927090  55.2056120  20.1456270 107.4984040  54.5997090  18.9445030
  93.5768510  49.8198970  24.9958430  94.2244700  49.2696350  24.5553590
  93.9970350  50.0742120  25.8174240 109.1255130  54.0746200  21.8945070
 109.0154410  53.9202240  22.8327340 109.8862720  53.5467140  21.6520480
 107.4720850  50.0140330  28.3528070 108.1093070  50.6274470  28.7187260
 107.6195740  50.0500990  27.4077300 110.0145400  51.9054120  15.1351210
 110.9394710  51.7735300  14.9269500 109.9921190  51.9846940  16.0887660
 110.0883890  52.6764780  17.7607920 109.2935390  52.6109900  18.2900830
 110.2927170  53.6115420  17.7493270 107.0302310  66.7156330  21.7546310
 107.6261380  66.3940900  21.0780730 107.2880460  66.2428150  22.5459580
  93.3300510  49.9754640  27.7383750  92.9815330  50.4318460  28.5041930
  92.9988210  49.0811770  27.8206180  94.9364880  63.1474240  31.9036940
  94.8934510  62.7767150  32.7851400  95.0675890  64.0851810  32.0438760
  98.6370910  64.7033830  27.5046660  98.3962270  64.9708390  26.6177180
  99.5773550  64.8739560  27.5597520 100.8425330  51.1666520  31.2603170
 100.7814220  51.7588350  32.0098580 101.7825710  51.0592480  31.1153430
 103.4799890  50.8236580  30.8995460 104.0940300  51.1415870  30.2376540
 104.0249450  50.3385170  31.5191320 109.8975070  66.7228210  28.3057300
 109.4033350  67.1197080  27.5884430 109.2888360  66.0977420  28.6994580
  94.0021150  49.5030840  31.0134520  94.5504140  49.3218890  30.2500630
  94.0676460  48.7124950  31.5490830  94.7752910  66.0936490  29.0234720
  94.1813230  65.9621190  29.7624760  94.7676750  65.2574630  28.5576820
 104.2207930  49.3868720  27.2264750 103.3467770  49.7203830  27.0237680
 104.1118680  48.9141900  28.0516620 105.1279910  51.5939590  28.6106470
 104.7993270  50.7791350  28.2308200 106.0762210  51.5509400  28.4872160
 107.5814520  67.3651630  25.5844040 107.1217490  68.1167440  25.2102060
 106.9526980  66.6458100  25.5258840  94.4065140  63.4594870  27.9742760
  93.6799200  62.8400160  27.9068710  94.4674290  63.8535480  27.1040840
  98.0110240  65.6739870  24.7592170  98.5275260  65.0627230  24.2340430
  98.6607620  66.1768650  25.2503180 100.7505740  66.5648360  25.5861150
 101.0383550  66.3102660  24.7094160 101.2628960  66.0125720  26.1766720
 101.9682750  50.3038560  26.1657660 101.1854540  50.7784060  26.4454420
 101.6745680  49.3993390  26.0570840 106.5203820  51.0061660  24.2106750
 106.9611910  50.9506760  23.3628350 106.2511410  51.9219670  24.2816930
 108.3842390  50.6376900  22.2215570 108.3230790  49.6938120  22.0746590
 109.1634420  50.7456990  22.7669030  92.6895140  66.7769260  21.1839520
  92.5217180  66.1439940  21.8821410  91.8229650  66.9828660  20.8333710
  93.3123160  50.6086040  18.6871380  94.0702520  50.7214920  18.1135410
  92.8500330  51.4455240  18.6414810  99.8536970  52.7225310  21.6773690
  99.0411480  52.3482200  21.3369570 100.3578610  51.9670390  21.9794880
 104.3561950  49.3867760  22.9156760 104.9591320  49.9587970  23.3905280
 103.6154940  49.9507200  22.6930660 107.4996550  49.7889320  18.1897040
 107.6947180  50.6872770  18.4564470 106.7126420  49.5576400  18.6829990
  94.2957840  65.4702490  18.6289660  93.7705460  65.8510520  17.9251620
  94.2202420  66.0953260  19.3499370  95.6848310  51.1350090  17.2273350
  96.2141070  50.3479890  17.0981300  96.3176630  51.8141280  17.4608880
  97.8786150  50.8725230  20.2818740  97.2488890  50.1712540  20.4488870
  97.3391290  51.6329360  20.0651900 100.8178100  67.4864460  32.9529350
 101.7445410  67.2508730  32.9965310 100.8028530  68.3136460  32.4715380
 109.0523160  67.0290030  19.9503600 109.2275350  66.3427770  19.3064520
 108.3544730  67.5537080  19.5580270  98.0041710  50.1509210  32.7171230
  97.7225980  50.6542810  31.9532050  98.3861410  49.3530960  32.3513360
  96.8950810  67.4184870  17.5038910  97.6269630  67.1344150  16.9562800
  97.1544480  67.1798150  18.3938290  96.0565600  63.5349600  17.5085240
  95.4274480  64.0034700  18.0571070  96.1713430  62.6898820  17.9431430
 104.6057170  49.5662790  33.2951700 104.4922620  49.8857400  34.1903220
 105.4226910  49.9675300  32.9988980 107.3855660  66.7134320  32.7770390
 108.1780980  66.2183550  32.5696350 107.6788810  67.3924460  33.3846000
 103.5115320  57.5855260   3.6586440 103.4309370  56.6709870   3.3878150
 103.0979740  58.0822330   2.9526150 101.6433360  59.3634280   5.5395710
 100.8675460  58.8834720   5.8294280 102.2946290  58.6839930   5.3651870
  95.6599190  59.6754090   6.4171470  94.8284070  59.4202800   6.8167980
  96.2680170  59.7464860   7.1529390 105.6640790  63.7694470   4.3194840
 105.2022320  62.9981710   4.6482010 106.4766340  63.7960540   4.8247290
  95.6400450  63.7094180   6.6129490  95.9428490  62.8191920   6.4339710
  96.3844040  64.2664400   6.3851740  92.0324150  57.2361630   6.0853560
  92.6040260  56.4683830   6.0857200  92.0325690  57.5350390   5.1760170
 101.8904100  66.0552480   3.9398830 101.2715540  66.5109980   3.3693270
 102.7455880  66.2103940   3.5388530 101.0842350  62.0391470   5.5465870
 101.0150630  61.0981410   5.3855000 101.8462210  62.1292880   6.1188440
  93.2749020  52.6445990   7.8722490  93.0951860  51.7471740   8.1525250
  92.8729100  53.1917860   8.5469440 102.1147520  54.8461850   5.7734800
 102.4912340  53.9733730   5.6608470 102.0167030  55.1820550   4.8825240
 105.8971640  52.3412290   2.7063140 106.7181260  51.8508860   2.7488620
 105.9305720  52.9309950   3.4594980  93.8935690  55.1406490   6.4804830
  94.5745800  55.4044860   7.0992230  93.5783740  54.3007360   6.8142840
  98.0860260  56.1873850   5.5677420  98.5938480  56.6854820   6.2082440
  98.6173500  55.4109050   5.3916780 110.1871190  54.3579040   9.2706770
 109.4823360  54.7460750   8.7521880 110.4529110  55.0529330   9.8727700
  96.3696360  50.8272410   9.8340840  96.3714800  51.3444800   9.0286740
  95.5400670  50.3502590   9.8110770  97.6199210  60.4667590   8.0114340
  97.2868590  61.0936510   8.6535410  97.7965890  60.9929470   7.2316010
 106.1333120  54.2812670   5.4790680 105.4288690  54.5697560   6.0593790
 106.4945280  55.0912780   5.1190240  96.0511690  52.5382370   7.8411290
  96.3928500  53.3824420   7.5465160  95.1127500  52.6866110   7.9576630
  96.8318310  62.4348390   9.8263520  97.4492310  63.1099470   9.5447970
  95.9711430  62.8436370   9.7351020 107.7495900  63.8987800   7.7418160
 107.0659420  64.5686910   7.7334830 108.2890190  64.0968450   6.9763020
 109.2020040  53.7267460   5.8699890 108.2544950  53.7606440   6.0015320
 109.5270030  54.5406410   6.2549250  99.7339580  50.0264640   4.1655880
 100.0414560  49.4711530   3.4491380  98.8040280  50.1609100   3.9828870
 105.2854640  65.7431930   6.4563340 105.2981800  65.3394220   5.5885600
 104.7329860  66.5179220   6.3524770 104.6840080  60.6461770   7.7845950
 105.1008870  60.4321880   6.9499410 105.4079900  60.9034560   8.3554570
 108.6302180  59.0448990   7.8762190 107.8020810  59.1142080   7.4012320
 109.2252660  59.6303300   7.4078020 105.5944190  55.8318310   8.8217060
 105.1815370  56.6572020   9.0757050 104.8620140  55.2463350   8.6293420
  97.7276980  58.6178210   3.6835730  97.3233980  57.9055460   3.1881630
  97.8140100  58.2731450   4.5723770  98.1958680  62.3045770   5.8474940
  97.8986970  61.6991240   5.1682720  99.1458500  62.3423080   5.7364300
  96.4405600  55.3921420   7.4634770  96.9920190  55.5016760   6.6888020
  96.9549110  55.7659020   8.1790000 106.2844290  65.8777640   9.5098040
 105.8074850  66.6849830   9.3170650 105.6006080  65.2255970   9.6624250
  97.2877110  62.0427460  12.4982740  96.3905640  62.2667430  12.7456140
  97.3129980  62.1662400  11.5494140  96.1148330  58.9140780  11.0740110
  95.9756100  59.7863580  11.4427510  95.2329690  58.5713590  10.9288050
 102.4377710  63.8316650   2.3805240 102.8773620  64.5740980   1.9660630
 102.3764600  64.0743220   3.3044200  97.9128680  64.8562480  13.2825260
  97.8844110  65.2605430  12.4153690  97.7493650  63.9272840  13.1196860
 109.8643500  65.6389580  14.5789430 110.3403220  66.1172470  15.2578510
 110.4850660  65.5707070  13.8534930  92.0666980  60.6838330   6.9911020
  92.1447400  60.8187100   6.0466740  92.6808660  59.9754220   7.1839140
  93.3114610  62.3838520   3.4017200  92.9042690  62.5253110   2.5470800
  94.2027620  62.0998680   3.1988410 109.2676750  62.8302430  11.7389440
 109.3939810  62.5914310  10.8206620 109.3098130  61.9986970  12.2111520
 103.1293490  66.5330430  10.3084250 103.6438160  66.4438440  11.1106680
 102.2862570  66.8790130  10.6012160 104.3723950  65.9536040   2.3714740
 104.8280900  65.1725420   2.6853360 104.7116470  66.6642860   2.9155920
 109.1200760  54.8834890  12.7039180 108.5045030  55.3914560  12.1754640
 108.7997180  53.9833220  12.6465120  92.1226500  61.7252500   9.5305480
  92.2857540  61.2557860   8.7124850  92.5878950  61.2176060  10.1954320
  96.8945270  50.8558260   4.5666050  96.4513420  51.6367800   4.2350570
  97.4530260  51.1788150   5.2736990 101.1815080  53.7226780  10.1701370
 100.7194450  53.9309800  10.9821310 100.7793190  52.9086130   9.8672040
 106.1819590  54.9435730  11.2998030 105.3313180  54.6441480  11.6207100
 106.0221380  55.1877740  10.3881850 103.2769300  56.4437480  13.3996820
 103.6022710  55.6101230  13.0599050 104.0649630  56.9666000  13.5475150
  98.9321170  51.4005590   6.4255650  99.2293500  52.3068420   6.3447670
  99.4806730  50.9124370   5.8115220  96.6859490  55.9791830   2.2947300
  96.4600410  55.7629000   3.1993920  95.9052020  56.4120290   1.9493270
  99.1258700  56.8777410  12.9607570  99.0302300  55.9372140  12.8107970
  99.9690680  57.0992480  12.5655640 102.5222120  54.6218740   2.9241230
 102.9151690  54.9390940   2.1109920 102.8838970  53.7430620   3.0385750
  94.2569240  53.2891080  11.1141350  93.8632630  54.1366290  11.3214130
  93.5687640  52.6517450  11.3049990 100.8314290  53.3726050  14.1838090
 100.1412610  53.1798250  14.8184180 101.5746590  53.6560690  14.7162390
  91.5586290  51.2119540   5.1471430  91.2699340  51.7822400   5.8596410
  92.3032050  50.7323990   5.5102660 103.1077260  57.2124490   7.0192010
 102.3758380  57.7211300   7.3682110 102.7101600  56.3954470   6.7180790
  99.5454650  53.8878690   5.4244500  99.5490710  53.4468640   4.5749040
 100.4405770  54.2096020   5.5316320  95.3957030  53.7705180   4.3838710
  95.0557080  54.2480410   5.1405760  94.6334350  53.3170300   4.0239810
 103.5703170  52.6658170   6.4314950 103.5875910  53.1166820   7.2756800
 103.3218750  51.7663810   6.6448390 106.9973920  50.0790350  12.2701330
 107.3219690  49.3480010  12.7959310 107.0330430  49.7603990  11.3682320
  93.6965480  61.1003930  11.6901290  93.3120270  60.4597600  12.2884250
  94.0077670  61.8040050  12.2596020  99.8462620  57.9480470   7.1709910
 100.2132750  57.4739040   7.9171250  99.6567680  58.8222040   7.5118250
  92.7103110  52.6924160   3.3003380  92.4250030  52.3279830   4.1382000
  92.6481970  51.9604620   2.6866520  97.6361990  56.9889110   9.4894120
  97.3319060  57.8681090   9.7144480  98.5908450  57.0488900   9.5251560
 106.9231760  60.1915460   5.8787360 107.6430880  60.6870750   5.4883470
 106.7213580  59.5133350   5.2341230 102.3050560  60.2624520  11.7656360
 102.2387870  59.3420190  11.5113950 101.6755700  60.3599960  12.4801000
  96.2081180  60.8630480   3.7239780  96.7259850  60.0598740   3.6696670
  95.7565200  60.8009620   4.5656610  93.6925720  57.8291850  10.6365480
  93.3340660  58.4945700  11.2238820  93.3980280  56.9975400  11.0078100
  96.8938840  58.2876090  13.5205030  96.5938980  58.4333270  12.6232850
  97.6650080  57.7281380  13.4278420 102.2367290  63.0845090  11.5160160
 102.2511830  62.1526050  11.2979070 101.5292390  63.1704850  12.1549930
 108.4478500  59.7252430  10.8628740 107.7226690  60.3181210  10.6658130
 108.9753960  59.7175970  10.0642110 103.9778090  61.4512600   4.3612590
 104.3301910  60.8540730   3.7013960 103.0940420  61.1256830   4.5320840
 100.0641370  62.2110290   1.7683000 100.7512500  62.7579500   2.1490590
  99.2773790  62.7551020   1.8032610 101.6701190  64.7262660   8.6100660
 102.3143410  64.9322040   9.2874080 102.0330630  63.9651060   8.1571510
 102.9433270  62.7295010   7.3278110 103.5855500  62.0288170   7.4410280
 103.4682620  63.5093450   7.1475000 104.7170890  63.5289910  10.5314170
 105.0527130  64.1156600  11.2092090 103.7971230  63.3982620  10.7611960
  92.2674290  51.3185090  11.3137580  91.5532810  51.5182010  11.9190190
  92.6869330  50.5424660  11.6852380  92.5546880  65.3065350  12.3004110
  92.6638000  64.3660090  12.1599500  91.9027440  65.5720100  11.6517840
 100.5459470  63.5781240  13.7002230 100.2256340  62.8590480  14.2447920
  99.8717830  64.2536310  13.7738290 103.7613070  53.8107400   9.0639030
 104.1293890  52.9902610   9.3918600 102.9011270  53.8709290   9.4794680
 100.7215060  56.4646990   9.2877000 101.2200310  56.9392810   9.9528850
 100.8638010  55.5410510   9.4947030 103.1274560  51.7700950   2.7280260
 103.0042340  51.7887080   1.7789770 104.0759120  51.8179890   2.8478660
 107.9281920  52.6814950  10.1305390 107.4255520  53.4220350  10.4699200
 108.7438580  53.0698950   9.8142180 106.2203930  57.9248130   3.5766750
 105.2794070  57.9398360   3.7514440 106.5348000  57.1384090   4.0227050
 108.2229510  65.0956980   5.2521010 108.3476930  65.9188150   5.7244820
 109.0895070  64.8847710   4.9045160  95.6947040  67.1888190   4.9238140
  96.4309520  66.6403650   5.1946710  96.0787960  68.0544200   4.7844130
  94.7005320  66.3734260  14.1123720  95.5018050  66.6946310  14.5259120
  94.1857140  66.0129840  14.8343630 103.5369950  62.4814130  14.0599130
 102.9308110  62.5045730  13.3194880 103.2324060  61.7497170  14.5966380
 104.9670320  66.2094420  12.6708540 105.9192070  66.1252440  12.6208780
 104.8198540  66.8736130  13.3442330  92.4203130  58.8607720  13.0559770
  92.9242150  58.2815000  13.6276000  91.6810550  59.1447950  13.5936140
  99.4741070  60.2678710  12.5895290  98.7086740  60.8363710  12.5049960
  99.6557030  59.9754920  11.6963520 106.6164420  61.9984040  13.1470310
 107.3573890  62.3359800  12.6437770 105.8537100  62.1676100  12.5940080
  94.4526210  57.0037310  13.9509840  94.4931550  56.7051180  14.8595070
  95.3071710  57.4044920  13.7917360  96.3932020  55.5829410  11.9184330
  95.8628480  55.0920360  11.2907670  97.0620090  56.0113610  11.3842260
 105.2910080  60.0498870  11.6825520 105.7051100  60.2043950  12.5315940
 104.3561080  60.1754090  11.8451300 105.7632250  57.3895030  13.6864670
 106.3453020  56.6347350  13.5985150 105.9394020  57.9202470  12.9096150
  96.8804320  52.5491780  11.9981620  96.7861190  51.9312530  11.2732490
  96.3001710  53.2758070  11.7711530  99.6465760  51.1065020   9.0309010
  99.1983060  51.1289280   8.1854560  99.0130960  50.7084040   9.6279310
 100.0525310  60.0019350   9.6521450 100.4713420  60.8452080   9.4797690
  99.1333940  60.1391390   9.4228230 102.3889210  57.7335530  11.0359290
 102.5085420  57.1376670  11.7754130 103.2483210  57.7705220  10.6160590
 104.7277110  58.2872720   9.6121800 104.2012330  58.8115340   9.0086940
 105.0708450  58.9200110  10.2431530  97.9032730  66.3072360  10.7679180
  97.3653820  67.0318420  10.4487880  98.1566690  65.8302700   9.9776520
  99.1557980  54.2756880  12.2935110  99.7457670  53.9672730  12.9812930
  98.3378220  53.8036630  12.4495010 103.9751410  53.8922690  12.5268130
 103.2866930  53.2304230  12.4618120 104.6957430  53.4460960  12.9716590
 100.7594940  67.5423570  11.0265830 100.6853640  68.4458710  11.3338200
  99.8573780  67.2235470  10.9987900  92.1622230  64.8698160   4.3299450
  92.4925240  64.0019220   4.0978090  92.5913230  65.0756680   5.1604410
  92.6512440  65.7368750   7.0681080  92.2143430  65.9169550   7.9005230
  93.2190120  66.4943370   6.9262800 108.2874620  65.2385750  11.3558390
 107.6876610  65.2978310  10.6122310 108.4168520  64.2990730  11.4855240
  92.4836870  58.2488980   3.4269960  91.8285710  57.9800620   2.7829660
  93.3214820  58.1393460   2.9771940 109.9892500  60.5801150   4.0404230
 110.3601330  59.7968470   3.6340200 110.6294430  61.2690250   3.8621530
 106.9726260  61.9637730   9.4534550 106.1586100  62.3934890   9.7160340
 107.3800460  62.5756140   8.8403600  93.5212800  58.6341550   7.9673300
  93.8885840  58.5468950   8.8469320  92.9523620  57.8708100   7.8680160
 108.3216660  57.1025930  10.9803770 108.0902750  56.8738680  10.0801720
 108.5821210  58.0225480  10.9348660  93.0728800  55.5450640  11.8731720
  92.1784850  55.5117400  12.2125430  93.6126350  55.7437430  12.6382970
 106.7604730  52.3282360  13.7583470 107.6374910  52.3365760  14.1417470
 106.7725570  51.5913200  13.1475820 108.2068000  56.1811900   4.6471490
 108.7305480  55.6874550   4.0161660 108.7927420  56.3162260   5.3919060
 108.3857720  56.2651770   8.1691040 107.4360430  56.2315310   8.2836030
 108.5670730  57.1751880   7.9340810  93.5768510  49.8198970   6.2214940
  94.2244700  49.2696350   5.7810100  93.9970350  50.0742120   7.0430750
 109.1255130  54.0746200   3.1201580 109.0154410  53.9202240   4.0583850
 109.8862720  53.5467140   2.8776990 107.4720850  50.0140330   9.5784580
 108.1093070  50.6274470   9.9443770 107.6195740  50.0500990   8.6333810
 107.0302310  66.7156330   2.9802820 107.6261380  66.3940900   2.3037240
 107.2880460  66.2428150   3.7716090  93.3300510  49.9754640   8.9640260
  92.9815330  50.4318460   9.7298440  92.9988210  49.0811770   9.0462690
  94.9364880  63.1474240  13.1293450  94.8934510  62.7767150  14.0107910
  95.0675890  64.0851810  13.2695270  98.6370910  64.7033830   8.7303170
  98.3962270  64.9708390   7.8433690  99.5773550  64.8739560   8.7854030
 100.8425330  51.1666520  12.4859680 100.7814220  51.7588350  13.2355090
 101.7825710  51.0592480  12.3409940 103.4799890  50.8236580  12.1251970
 104.0940300  51.1415870  11.4633050 104.0249450  50.3385170  12.7447830
 109.8975070  66.7228210   9.5313810 109.4033350  67.1197080   8.8140940
 109.2888360  66.0977420   9.9251090  94.0021150  49.5030840  12.2391030
  94.5504140  49.3218890  11.4757140  94.0676460  48.7124950  12.7747340
  94.7752910  66.0936490  10.2491230  94.1813230  65.9621190  10.9881270
  94.7676750  65.2574630   9.7833330 104.2207930  49.3868720   8.4521260
 103.3467770  49.7203830   8.2494190 104.1118680  48.9141900   9.2773130
 105.1279910  51.5939590   9.8362980 104.7993270  50.7791350   9.4564710
 106.0762210  51.5509400   9.7128670 107.5814520  67.3651630   6.8100550
 107.1217490  68.1167440   6.4358570 106.9526980  66.6458100   6.7515350
  94.4065140  63.4594870   9.1999270  93.6799200  62.8400160   9.1325220
  94.4674290  63.8535480   8.3297350  98.0110240  65.6739870   5.9848680
  98.5275260  65.0627230   5.4596940  98.6607620  66.1768650   6.4759690
 100.7505740  66.5648360   6.8117660 101.0383550  66.3102660   5.9350670
 101.2628960  66.0125720   7.4023230 101.9682750  50.3038560   7.3914170
 101.1854540  50.7784060   7.6710930 101.6745680  49.3993390   7.2827350
 106.5203820  51.0061660   5.4363260 106.9611910  50.9506760   4.5884860
 106.2511410  51.9219670   5.5073440 108.3842390  50.6376900   3.4472080
 108.3230790  49.6938120   3.3003100 109.1634420  50.7456990   3.9925540
  92.6895140  66.7769260   2.4096030  92.5217180  66.1439940   3.1077920
  91.8229650  66.9828660   2.0590220  99.8536970  52.7225310   2.9030200
  99.0411480  52.3482200   2.5626080 100.3578610  51.9670390   3.2051390
 104.3561950  49.3867760   4.1413270 104.9591320  49.9587970   4.6161790
 103.6154940  49.9507200   3.9187170 100.8178100  67.4864460  14.1785860
 101.7445410  67.2508730  14.2221820 100.8028530  68.3136460  13.6971890
  98.0041710  50.1509210  13.9427740  97.7225980  50.6542810  13.1788560
  98.3861410  49.3530960  13.5769870 104.6057170  49.5662790  14.5208210
 104.4922620  49.8857400  15.4159730 105.4226910  49.9675300  14.2245490
 107.3855660  66.7134320  14.0026900 108.1780980  66.2183550  13.7952860
 107.6788810  67.3924460  14.6102510 103.5115320  38.8111770  97.5303890
 103.4309370  37.8966380  97.2595600 103.0979740  39.3078840  96.8243600
 101.6433360  40.5890790  99.4113160 100.8675460  40.1091230  99.7011730
 102.2946290  39.9096440  99.2369320  95.6599190  40.9010600 100.2888920
  94.8284070  40.6459310 100.6885430  96.2680170  40.9721370 101.0246840
 105.6640790  44.9950980  98.1912290 105.2022320  44.2238220  98.5199460
 106.4766340  45.0217050  98.6964740  95.6400450  44.9350690 100.4846940
  95.9428490  44.0448430 100.3057160  96.3844040  45.4920910 100.2569190
  94.0691140  35.8612490  94.0731310  93.1807840  36.2028460  93.9711190
  94.3532330  35.6612810  93.1812140  92.0324150  38.4618140  99.9571010
  92.6040260  37.6940340  99.9574650  92.0325690  38.7606900  99.0477620
 101.8904100  47.2808990  97.8116280 101.2715540  47.7366490  97.2410720
 102.7455880  47.4360450  97.4105980 101.0842350  43.2647980  99.4183320
 101.0150630  42.3237920  99.2572450 101.8462210  43.3549390  99.9905890
  93.2749020  33.8702500 101.7439940  93.0951860  32.9728250 102.0242700
  92.8729100  34.4174370 102.4186890 102.1147520  36.0718360  99.6452250
 102.4912340  35.1990240  99.5325920 102.0167030  36.4077060  98.7542690
  96.2452530  34.4443990  95.1069690  96.3519280  35.3447720  95.4138450
  95.3344890  34.3961960  94.8164340 105.8971640  33.5668800  96.5780590
 106.7181260  33.0765370  96.6206070 105.9305720  34.1566460  97.3312430
  93.8935690  36.3663000 100.3522280  94.5745800  36.6301370 100.9709680
  93.5783740  35.5263870 100.6860290  98.0860260  37.4130360  99.4394870
  98.5938480  37.9111330 100.0799890  98.6173500  36.6365560  99.2634230
 102.7567450  42.1648230  95.2048190 102.1384720  42.6297680  94.6410910
 103.2690700  42.8575710  95.6217700  97.6199210  41.6924100 101.8831790
  97.2868590  42.3193020 102.5252860  97.7965890  42.2185980 101.1033460
 106.1333120  35.5069180  99.3508130 105.4288690  35.7954070  99.9311240
 106.4945280  36.3169290  98.9907690  96.0511690  33.7638880 101.7128740
  96.3928500  34.6080930 101.4182610  95.1127500  33.9122620 101.8294080
  92.1250650  42.8504760  92.5787820  91.7478630  43.3391860  91.8472720
  92.3823720  43.5230040  93.2094350 107.7495900  45.1244310 101.6135610
 107.0659420  45.7943420 101.6052280 108.2890190  45.3224960 100.8480470
 109.2020040  34.9523970  99.7417340 108.2544950  34.9862950  99.8732770
 109.5270030  35.7662920 100.1266700  99.7339580  31.2521150  98.0373330
 100.0414560  30.6968040  97.3208830  98.8040280  31.3865610  97.8546320
 105.2854640  46.9688440 100.3280790 105.2981800  46.5650730  99.4603050
 104.7329860  47.7435730 100.2242220 106.5800060  43.6904660  95.4170960
 106.4696390  42.7478990  95.5420380 106.5768310  44.0520300  96.3033720
 104.6840080  41.8718280 101.6563400 105.1008870  41.6578390 100.8216860
 105.4079900  42.1291070 102.2272020 102.1220340  39.3169980  94.7733450
 101.1949620  39.2507360  95.0021920 102.2745160  40.2550110  94.6588690
 102.1089420  35.5886980  91.7700610 101.1693090  35.7500940  91.8553070
 102.4272680  36.3072660  91.2236600 108.6302180  40.2705500 101.7479640
 107.8020810  40.3398590 101.2729770 109.2252660  40.8559810 101.2795470
 106.1517630  40.8790280  95.2768700 105.5330050  40.5409830  94.6295000
 106.1342080  40.2350040  95.9847890  97.7276980  39.8434720  97.5553180
  97.3233980  39.1311970  97.0599080  97.8140100  39.4987960  98.4441220
  98.1958680  43.5302280  99.7192390  97.8986970  42.9247750  99.0400170
  99.1458500  43.5679590  99.6081750  96.4405600  36.6177930 101.3352220
  96.9920190  36.7273270 100.5605470  96.9549110  36.9915530 102.0507450
 104.3282330  40.1177090  92.2841450 104.7675610  39.2799520  92.1379270
 105.0410750  40.7506490  92.3705590 102.4377710  45.0573160  96.2522690
 102.8773620  45.7997490  95.8378080 102.3764600  45.2999730  97.1761650
 107.9099470  31.3719900  90.5982490 107.5972130  31.4646730  91.4981560
 108.6711940  31.9500930  90.5479920  94.4281610  38.7379700  95.0559830
  94.3079210  39.4641790  94.4441100  94.1182500  37.9682610  94.5787740
  92.0666980  41.9094840 100.8628470  92.1447400  42.0443610  99.9184190
  92.6808660  41.2010730 101.0556590  93.3114610  43.6095030  97.2734650
  92.9042690  43.7509620  96.4188250  94.2027620  43.3255190  97.0705860
 105.1047890  48.0442280  93.6085700 104.9449030  47.7545220  94.5067530
 104.9394600  47.2682410  93.0730930  97.5836270  47.8240810  95.3857320
  97.4078750  46.9076350  95.1725120  96.7292010  48.1828100  95.6255120
 104.8074020  45.5529840  92.1683700 104.1139180  45.5507130  91.5085980
 105.5496880  45.1289160  91.7377870 104.3723950  47.1792550  96.2432190
 104.8280900  46.3981930  96.5570810 104.7116470  47.8899370  96.7873370
  96.8945270  32.0814770  98.4383500  96.4513420  32.8624310  98.1068020
  97.4530260  32.4044660  99.1454440 100.0104090  31.7025470  93.3189330
  99.3858270  31.6985340  94.0442640  99.9234210  30.8356430  92.9225300
  98.9321170  32.6262100 100.2973100  99.2293500  33.5324930 100.2165120
  99.4806730  32.1380880  99.6832670  96.6859490  37.2048340  96.1664750
  96.4600410  36.9885510  97.0711370  95.9052020  37.6376800  95.8210720
 103.9157250  37.2111710  94.7655400 103.3166140  37.9347510  94.5819020
 104.4636860  37.1488490  93.9831850 102.5222120  35.8475250  96.7958680
 102.9151690  36.1647450  95.9827370 102.8838970  34.9687130  96.9103200
  91.5586290  32.4376050  99.0188880  91.2699340  33.0078910  99.7313860
  92.3032050  31.9580500  99.3820110  91.7456520  36.3796170  90.2291600
  91.6631190  37.3226930  90.3706590  91.3939580  36.2371080  89.3503950
 103.1077260  38.4381000 100.8909460 102.3758380  38.9467810 101.2399560
 102.7101600  37.6210980 100.5898240  99.5454650  35.1135200  99.2961950
  99.5490710  34.6725150  98.4466490 100.4405770  35.4352530  99.4033770
  95.3957030  34.9961690  98.2556160  95.0557080  35.4736920  99.0123210
  94.6334350  34.5426810  97.8957260  99.6074800  36.1147280  92.2868710
  99.7287620  36.0733760  93.2354530  99.2223310  36.9771430  92.1315440
 103.5703170  33.8914680 100.3032400 103.5875910  34.3423330 101.1474250
 103.3218750  32.9920320 100.5165840  98.6196300  38.4248420  91.6852010
  98.0513200  37.9766670  91.0587920  99.3285300  38.7841200  91.1517160
  99.8462620  39.1736980 101.0427360 100.2132750  38.6995550 101.7888700
  99.6567680  40.0478550 101.3835700  92.7103110  33.9180670  97.1720830
  92.4250030  33.5536340  98.0099450  92.6481970  33.1861130  96.5583970
  96.1643780  42.4206610  93.9578420  95.3906040  41.8804230  93.7977140
  96.8938410  41.9013220  93.6196180 106.9231760  41.4171970  99.7504810
 107.6430880  41.9127260  99.3600920 106.7213580  40.7389860  99.1058680
 102.3841700  32.8109930  93.8934200 101.5706310  32.3123100  93.8179510
 102.1903650  33.6508180  93.4770550 105.0990090  37.1829580  92.1896360
 105.9869710  37.4946810  92.0147700 105.0695180  36.3101830  91.7976940
  96.2081180  42.0886990  97.5957230  96.7259850  41.2855250  97.5414120
  95.7565200  42.0266130  98.4374060 101.0950680  43.3553270  92.8684530
 101.4366380  44.0995500  92.3727850 100.2663390  43.6684390  93.2309360
 107.3704360  38.4941420  91.6576220 107.2868080  38.9255640  90.8072660
 108.0898550  38.9539770  92.0903040 108.3991610  45.3483680  94.3858350
 107.7567770  44.6939300  94.6602070 108.0122270  45.7538770  93.6099020
 103.9778090  42.6769110  98.2330040 104.3301910  42.0797240  97.5731410
 103.0940420  42.3513340  98.4038290 100.0641370  43.4366800  95.6400450
 100.7512500  43.9836010  96.0208040  99.2773790  43.9807530  95.6750060
  92.2033770  39.0539620  91.1317530  93.0728620  39.3364420  91.4153450
  91.7124090  39.8675490  91.0166340  99.3668580  40.4412830  95.2525810
  99.8231360  41.2518080  95.4786000  99.0156790  40.1235970  96.0844300
  95.2680360  30.7850480  95.7248330  95.1394990  30.7768380  96.6733250
  94.4442380  31.1233570  95.3739340 102.9433270  43.9551520 101.1995560
 103.5855500  43.2544680 101.3127730 103.4682620  44.7349960 101.0192450
 106.7888990  44.2400140  90.9234700 106.5626570  43.5230580  91.5159340
 106.3985190  43.9912580  90.0856450  92.5705020  48.2667000  91.6979160
  92.9302660  48.8656340  91.0436430  92.4297360  48.8126890  92.4714190
 106.3705240  42.1572080  92.5848860 106.0826940  42.6184770  93.3726740
 107.1657410  41.6969850  92.8533080  98.5873640  45.6498200  92.5152830
  98.5783740  46.3827890  91.8997340  97.6672000  45.4029780  92.6079790
  94.1880280  40.8713090  93.2599590  93.5808230  41.6111990  93.2694890
  94.6629630  40.9612450  92.4337790 107.1275100  33.9920850  93.7444040
 106.4988260  34.0966520  93.0302270 106.6327020  34.2117630  94.5337920
 101.5733240  45.7126440  91.1778020 101.6745220  45.5090430  90.2480000
 100.6734980  45.4584720  91.3825800  99.0959130  36.2706800  95.1601920
  98.3875280  36.7393140  95.6015530  99.3803610  35.6128810  95.7947110
 103.1274560  32.9957460  96.5997710 103.0042340  33.0143590  95.6507220
 104.0759120  33.0436400  96.7196110 100.2151350  48.2312760  95.8725690
 100.4692850  48.1934150  94.9505060  99.2663830  48.1046090  95.8653940
  97.2994150  34.5791880  92.5352630  98.1484680  35.0162030  92.4692820
  96.9325420  34.8912140  93.3624690 106.2203930  39.1504640  97.4484200
 105.2794070  39.1654870  97.6231890 106.5348000  38.3640600  97.8944500
  96.1985570  40.8324240  91.0088160  96.9648840  40.7205600  91.5713590
  96.2760260  40.1362210  90.3564930  94.8932330  38.2649310  91.6921050
  94.9735920  37.3176820  91.8038450  95.7852080  38.5956190  91.7981710
 108.2229510  46.3213490  99.1238460 108.3476930  47.1444660  99.5962270
 109.0895070  46.1104220  98.7762610  95.6947040  48.4144700  98.7955590
  96.4309520  47.8660160  99.0664160  96.0787960  49.2800710  98.6561580
  92.5792520  44.4818270  94.6697100  91.6532300  44.7239410  94.6602510
  93.0448950  45.3092530  94.5481850  98.8049350  47.5875010  90.6181160
  99.5977960  47.8763840  90.1662950  98.2853700  47.1567180  89.9393640
 107.8579520  46.8145140  92.0417900 107.5721030  46.4010280  91.2272080
 107.6599070  47.7432850  91.9218420  99.3226750  42.8078420  90.4823510
  99.2177390  42.1930770  91.2084890  99.1550970  42.2844310  89.6986520
 102.5629480  41.8698450  91.0865500 102.0139580  42.3167750  91.7308240
 103.1848740  41.3647700  91.6103170  98.2304600  40.8289370  92.9830800
  98.6521020  40.6629240  93.8262190  98.3555440  40.0189600  92.4885940
 100.7432240  39.8526980  90.2307900 101.2637900  39.1376000  89.8649050
 101.3900640  40.4912850  90.5308410  97.1263500  36.9022600  89.9288960
  96.9252560  36.0389960  90.2902300  96.9555550  36.8155960  88.9910560
 104.6051810  31.7130830  92.4575840 104.8854100  30.8698730  92.8135260
 103.8317540  31.9453940  92.9714590  95.9246300  34.0023220  89.9166840
  96.2272200  34.0090650  89.0085990  96.6640890  33.6521080  90.4134500
  99.1431230  32.9457840  90.9023040  98.7953230  32.2681830  90.3225490
  99.3444000  32.4847350  91.7166430 101.3080270  47.9338590  92.5209640
 102.2031060  48.2723560  92.5428400 101.3397900  47.2118000  91.8933920
  94.9476430  43.3065640  90.7496640  95.3851300  43.8495310  91.4054220
  95.4324160  42.4812590  90.7592980  92.1622230  46.0954670  98.2016900
  92.4925240  45.2275730  97.9695540  92.5913230  46.3013190  99.0321860
  96.7584150  44.4263680  95.8618870  96.4579690  44.3028650  96.7622780
  96.6521640  43.5672270  95.4534600  92.6512440  46.9625260 100.9398530
  92.2143430  47.1426060 101.7722680  93.2190120  47.7199880 100.7980250
 109.5276070  44.2060080  90.5645550 108.6969030  44.2736730  91.0352780
 109.7047900  45.0964200  90.2612410 108.9832530  40.9507560  93.0679750
 109.7451440  41.5204210  93.1739440 108.9986900  40.3834760  93.8388060
  92.4836870  39.4745490  97.2987410  91.8285710  39.2057130  96.6547110
  93.3214820  39.3649970  96.8489390 109.9892500  41.8057660  97.9121680
 110.3601330  41.0224980  97.5057650 110.6294430  42.4946760  97.7338980
 109.0351700  41.2441930  90.2252270 109.3100540  42.1520810  90.0971490
 108.8462440  41.1804460  91.1614260 105.4327310  34.2686780  91.5205900
 105.8512190  34.0817760  90.6802560 105.1263370  33.4165830  91.8308830
 108.9317040  39.1810920  95.2181700 108.5560640  38.4138850  94.7862990
 108.2020160  39.5633620  95.7056630  93.5212800  39.8598060 101.8390750
  93.8885840  39.7725460 102.7186770  92.9523620  39.0964610 101.7397610
  91.6974950  36.6844420  93.2412740  90.7939030  36.9474620  93.0664400
  92.1815570  36.9555590  92.4612700 108.2068000  37.4068410  98.5188940
 108.7305480  36.9131060  97.8879110 108.7927420  37.5418770  99.2636510
 108.3857720  37.4908280 102.0408490 107.4360430  37.4571820 102.1553480
 108.5670730  38.4008390 101.8058260  94.2402160  35.7409960  91.1507120
  94.9493860  35.3193180  90.6654400  93.5242100  35.8085190  90.5190470
  93.8876320  31.7949290  90.1909770  94.6104450  32.3358230  90.5090990
  94.1600840  31.5212710  89.3151310 107.6967970  36.6641760  94.4581350
 108.1927090  36.4312630  95.2430230 107.4984040  35.8253600  94.0418990
  93.5768510  31.0455480 100.0932390  94.2244700  30.4952860  99.6527550
  93.9970350  31.2998630 100.9148200 109.1255130  35.3002710  96.9919030
 109.0154410  35.1458750  97.9301300 109.8862720  34.7723650  96.7494440
 110.0145400  33.1310630  90.2325170 110.9394710  32.9991810  90.0243460
 109.9921190  33.2103450  91.1861620 110.0883890  33.9021290  92.8581880
 109.2935390  33.8366410  93.3874790 110.2927170  34.8371930  92.8467230
 107.0302310  47.9412840  96.8520270 107.6261380  47.6197410  96.1754690
 107.2880460  47.4684660  97.6433540  98.6370910  45.9290340 102.6020620
  98.3962270  46.1964900 101.7151140  99.5773550  46.0996070 102.6571480
 107.5814520  48.5908140 100.6818000 107.1217490  49.3423950 100.3076020
 106.9526980  47.8714610 100.6232800  98.0110240  46.8996380  99.8566130
  98.5275260  46.2883740  99.3314390  98.6607620  47.4025160 100.3477140
 100.7505740  47.7904870 100.6835110 101.0383550  47.5359170  99.8068120
 101.2628960  47.2382230 101.2740680 101.9682750  31.5295070 101.2631620
 101.1854540  32.0040570 101.5428380 101.6745680  30.6249900 101.1544800
 106.5203820  32.2318170  99.3080710 106.9611910  32.1763270  98.4602310
 106.2511410  33.1476180  99.3790890 108.3842390  31.8633410  97.3189530
 108.3230790  30.9194630  97.1720550 109.1634420  31.9713500  97.8642990
  92.6895140  48.0025770  96.2813480  92.5217180  47.3696450  96.9795370
  91.8229650  48.2085170  95.9307670  93.3123160  31.8342550  93.7845340
  94.0702520  31.9471430  93.2109370  92.8500330  32.6711750  93.7388770
  99.8536970  33.9481820  96.7747650  99.0411480  33.5738710  96.4343530
 100.3578610  33.1926900  97.0768840 104.3561950  30.6124270  98.0130720
 104.9591320  31.1844480  98.4879240 103.6154940  31.1763710  97.7904620
 107.4996550  31.0145830  93.2871000 107.6947180  31.9129280  93.5538430
 106.7126420  30.7832910  93.7803950  94.2957840  46.6959000  93.7263620
  93.7705460  47.0767030  93.0225580  94.2202420  47.3209770  94.4473330
  95.6848310  32.3606600  92.3247310  96.2141070  31.5736400  92.1955260
  96.3176630  33.0397790  92.5582840  97.8786150  32.0981740  95.3792700
  97.2488890  31.3969050  95.5462830  97.3391290  32.8585870  95.1625860
 109.0523160  48.2546540  95.0477560 109.2275350  47.5684280  94.4038480
 108.3544730  48.7793590  94.6554230  96.8950810  48.6441380  92.6012870
  97.6269630  48.3600660  92.0536760  97.1544480  48.4054660  93.4912250
  96.0565600  44.7606110  92.6059200  95.4274480  45.2291210  93.1545030
  96.1713430  43.9155330  93.0405390 103.5115320  38.8111770  78.7560400
 103.4309370  37.8966380  78.4852110 103.0979740  39.3078840  78.0500110
 101.6433360  40.5890790  80.6369670 100.8675460  40.1091230  80.9268240
 102.2946290  39.9096440  80.4625830  95.6599190  40.9010600  81.5145430
  94.8284070  40.6459310  81.9141940  96.2680170  40.9721370  82.2503350
 105.6640790  44.9950980  79.4168800 105.2022320  44.2238220  79.7455970
 106.4766340  45.0217050  79.9221250  95.6400450  44.9350690  81.7103450
  95.9428490  44.0448430  81.5313670  96.3844040  45.4920910  81.4825700
  94.0691140  35.8612490  75.2987820  93.1807840  36.2028460  75.1967700
  94.3532330  35.6612810  74.4068650  92.0324150  38.4618140  81.1827520
  92.6040260  37.6940340  81.1831160  92.0325690  38.7606900  80.2734130
 101.8904100  47.2808990  79.0372790 101.2715540  47.7366490  78.4667230
 102.7455880  47.4360450  78.6362490 101.0842350  43.2647980  80.6439830
 101.0150630  42.3237920  80.4828960 101.8462210  43.3549390  81.2162400
  93.2749020  33.8702500  82.9696450  93.0951860  32.9728250  83.2499210
  92.8729100  34.4174370  83.6443400  96.2452530  34.4443990  76.3326200
  96.3519280  35.3447720  76.6394960  95.3344890  34.3961960  76.0420850
 105.8971640  33.5668800  77.8037100 106.7181260  33.0765370  77.8462580
 105.9305720  34.1566460  78.5568940  93.8935690  36.3663000  81.5778790
  94.5745800  36.6301370  82.1966190  93.5783740  35.5263870  81.9116800
  98.0860260  37.4130360  80.6651380  98.5938480  37.9111330  81.3056400
  98.6173500  36.6365560  80.4890740 110.1871190  35.5835550  84.3680730
 109.4823360  35.9717260  83.8495840 110.4529110  36.2785840  84.9701660
  96.3696360  32.0528920  84.9314800  96.3714800  32.5701310  84.1260700
  95.5400670  31.5759100  84.9084730 102.7567450  42.1648230  76.4304700
 102.1384720  42.6297680  75.8667420 103.2690700  42.8575710  76.8474210
  97.6199210  41.6924100  83.1088300  97.2868590  42.3193020  83.7509370
  97.7965890  42.2185980  82.3289970  96.0511690  33.7638880  82.9385250
  96.3928500  34.6080930  82.6439120  95.1127500  33.9122620  83.0550590
  96.8318310  43.6604900  84.9237480  97.4492310  44.3355980  84.6421930
  95.9711430  44.0692880  84.8324980  92.1250650  42.8504760  73.8044330
  91.7478630  43.3391860  73.0729230  92.3823720  43.5230040  74.4350860
 107.7495900  45.1244310  82.8392120 107.0659420  45.7943420  82.8308790
 108.2890190  45.3224960  82.0736980 109.2020040  34.9523970  80.9673850
 108.2544950  34.9862950  81.0989280 109.5270030  35.7662920  81.3523210
  99.7339580  31.2521150  79.2629840 100.0414560  30.6968040  78.5465340
  98.8040280  31.3865610  79.0802830 105.2854640  46.9688440  81.5537300
 105.2981800  46.5650730  80.6859560 104.7329860  47.7435730  81.4498730
 106.5800060  43.6904660  76.6427470 106.4696390  42.7478990  76.7676890
 106.5768310  44.0520300  77.5290230 104.6840080  41.8718280  82.8819910
 105.1008870  41.6578390  82.0473370 105.4079900  42.1291070  83.4528530
 102.1220340  39.3169980  75.9989960 101.1949620  39.2507360  76.2278430
 102.2745160  40.2550110  75.8845200 102.1089420  35.5886980  72.9957120
 101.1693090  35.7500940  73.0809580 102.4272680  36.3072660  72.4493110
 108.6302180  40.2705500  82.9736150 107.8020810  40.3398590  82.4986280
 109.2252660  40.8559810  82.5051980 106.1517630  40.8790280  76.5025210
 105.5330050  40.5409830  75.8551510 106.1342080  40.2350040  77.2104400
  97.7276980  39.8434720  78.7809690  97.3233980  39.1311970  78.2855590
  97.8140100  39.4987960  79.6697730  98.1958680  43.5302280  80.9448900
  97.8986970  42.9247750  80.2656680  99.1458500  43.5679590  80.8338260
  96.4405600  36.6177930  82.5608730  96.9920190  36.7273270  81.7861980
  96.9549110  36.9915530  83.2763960 106.2844290  47.1034150  84.6072000
 105.8074850  47.9106340  84.4144610 105.6006080  46.4512480  84.7598210
  97.2877110  43.2683970  87.5956700  96.3905640  43.4923940  87.8430100
  97.3129980  43.3918910  86.6468100 104.3282330  40.1177090  73.5097960
 104.7675610  39.2799520  73.3635780 105.0410750  40.7506490  73.5962100
  96.1148330  40.1397290  86.1714070  95.9756100  41.0120090  86.5401470
  95.2329690  39.7970100  86.0262010 102.4377710  45.0573160  77.4779200
 102.8773620  45.7997490  77.0634590 102.3764600  45.2999730  78.4018160
  97.9128680  46.0818990  88.3799220  97.8844110  46.4861940  87.5127650
  97.7493650  45.1529350  88.2170820 107.9099470  31.3719900  71.8239000
 107.5972130  31.4646730  72.7238070 108.6711940  31.9500930  71.7736430
  94.4281610  38.7379700  76.2816340  94.3079210  39.4641790  75.6697610
  94.1182500  37.9682610  75.8044250 109.8643500  46.8646090  89.6763390
 110.3403220  47.3428980  90.3552470 110.4850660  46.7963580  88.9508890
  92.0666980  41.9094840  82.0884980  92.1447400  42.0443610  81.1440700
  92.6808660  41.2010730  82.2813100  93.3114610  43.6095030  78.4991160
  92.9042690  43.7509620  77.6444760  94.2027620  43.3255190  78.2962370
 109.2676750  44.0558940  86.8363400 109.3939810  43.8170820  85.9180580
 109.3098130  43.2243480  87.3085480 103.1293490  47.7586940  85.4058210
 103.6438160  47.6694950  86.2080640 102.2862570  48.1046640  85.6986120
 105.1047890  48.0442280  74.8342210 104.9449030  47.7545220  75.7324040
 104.9394600  47.2682410  74.2987440  97.5836270  47.8240810  76.6113830
  97.4078750  46.9076350  76.3981630  96.7292010  48.1828100  76.8511630
 104.8074020  45.5529840  73.3940210 104.1139180  45.5507130  72.7342490
 105.5496880  45.1289160  72.9634380 104.3723950  47.1792550  77.4688700
 104.8280900  46.3981930  77.7827320 104.7116470  47.8899370  78.0129880
 109.1200760  36.1091400  87.8013140 108.5045030  36.6171070  87.2728600
 108.7997180  35.2089730  87.7439080  92.1226500  42.9509010  84.6279440
  92.2857540  42.4814370  83.8098810  92.5878950  42.4432570  85.2928280
  96.8945270  32.0814770  79.6640010  96.4513420  32.8624310  79.3324530
  97.4530260  32.4044660  80.3710950 101.1815080  34.9483290  85.2675330
 100.7194450  35.1566310  86.0795270 100.7793190  34.1342640  84.9646000
 106.1819590  36.1692240  86.3971990 105.3313180  35.8697990  86.7181060
 106.0221380  36.4134250  85.4855810 103.2769300  37.6693990  88.4970780
 103.6022710  36.8357740  88.1573010 104.0649630  38.1922510  88.6449110
 100.0104090  31.7025470  74.5445840  99.3858270  31.6985340  75.2699150
  99.9234210  30.8356430  74.1481810  98.9321170  32.6262100  81.5229610
  99.2293500  33.5324930  81.4421630  99.4806730  32.1380880  80.9089180
  96.6859490  37.2048340  77.3921260  96.4600410  36.9885510  78.2967880
  95.9052020  37.6376800  77.0467230 103.9157250  37.2111710  75.9911910
 103.3166140  37.9347510  75.8075530 104.4636860  37.1488490  75.2088360
  99.1258700  38.1033920  88.0581530  99.0302300  37.1628650  87.9081930
  99.9690680  38.3248990  87.6629600 102.5222120  35.8475250  78.0215190
 102.9151690  36.1647450  77.2083880 102.8838970  34.9687130  78.1359710
  94.2569240  34.5147590  86.2115310  93.8632630  35.3622800  86.4188090
  93.5687640  33.8773960  86.4023950 100.8314290  34.5982560  89.2812050
 100.1412610  34.4054760  89.9158140 101.5746590  34.8817200  89.8136350
  91.5586290  32.4376050  80.2445390  91.2699340  33.0078910  80.9570370
  92.3032050  31.9580500  80.6076620  91.7456520  36.3796170  71.4548110
  91.6631190  37.3226930  71.5963100  91.3939580  36.2371080  70.5760460
  99.5454650  35.1135200  80.5218460  99.5490710  34.6725150  79.6723000
 100.4405770  35.4352530  80.6290280  95.3957030  34.9961690  79.4812670
  95.0557080  35.4736920  80.2379720  94.6334350  34.5426810  79.1213770
  99.6074800  36.1147280  73.5125220  99.7287620  36.0733760  74.4611040
  99.2223310  36.9771430  73.3571950  98.6196300  38.4248420  72.9108520
  98.0513200  37.9766670  72.2844430  99.3285300  38.7841200  72.3773670
 106.9973920  31.3046860  87.3675290 107.3219690  30.5736520  87.8933270
 107.0330430  30.9860500  86.4656280  93.6965480  42.3260440  86.7875250
  93.3120270  41.6854110  87.3858210  94.0077670  43.0296560  87.3569980
  99.8462620  39.1736980  82.2683870 100.2132750  38.6995550  83.0145210
  99.6567680  40.0478550  82.6092210  92.7103110  33.9180670  78.3977340
  92.4250030  33.5536340  79.2355960  92.6481970  33.1861130  77.7840480
  97.6361990  38.2145620  84.5868080  97.3319060  39.0937600  84.8118440
  98.5908450  38.2745410  84.6225520  96.1643780  42.4206610  75.1834930
  95.3906040  41.8804230  75.0233650  96.8938410  41.9013220  74.8452690
 106.9231760  41.4171970  80.9761320 107.6430880  41.9127260  80.5857430
 106.7213580  40.7389860  80.3315190 102.3841700  32.8109930  75.1190710
 101.5706310  32.3123100  75.0436020 102.1903650  33.6508180  74.7027060
 102.3050560  41.4881030  86.8630320 102.2387870  40.5676700  86.6087910
 101.6755700  41.5856470  87.5774960 105.0990090  37.1829580  73.4152870
 105.9869710  37.4946810  73.2404210 105.0695180  36.3101830  73.0233450
  96.2081180  42.0886990  78.8213740  96.7259850  41.2855250  78.7670630
  95.7565200  42.0266130  79.6630570 101.0950680  43.3553270  74.0941040
 101.4366380  44.0995500  73.5984360 100.2663390  43.6684390  74.4565870
  93.6925720  39.0548360  85.7339440  93.3340660  39.7202210  86.3212780
  93.3980280  38.2231910  86.1052060  96.8938840  39.5132600  88.6178990
  96.5938980  39.6589780  87.7206810  97.6650080  38.9537890  88.5252380
 102.2367290  44.3101600  86.6134120 102.2511830  43.3782560  86.3953030
 101.5292390  44.3961360  87.2523890 107.3704360  38.4941420  72.8832730
 107.2868080  38.9255640  72.0329170 108.0898550  38.9539770  73.3159550
 108.4478500  40.9508940  85.9602700 107.7226690  41.5437720  85.7632090
 108.9753960  40.9432480  85.1616070 108.3991610  45.3483680  75.6114860
 107.7567770  44.6939300  75.8858580 108.0122270  45.7538770  74.8355530
 103.9778090  42.6769110  79.4586550 104.3301910  42.0797240  78.7987920
 103.0940420  42.3513340  79.6294800 100.0641370  43.4366800  76.8656960
 100.7512500  43.9836010  77.2464550  99.2773790  43.9807530  76.9006570
  92.2033770  39.0539620  72.3574040  93.0728620  39.3364420  72.6409960
  91.7124090  39.8675490  72.2422850  99.3668580  40.4412830  76.4782320
  99.8231360  41.2518080  76.7042510  99.0156790  40.1235970  77.3100810
 101.6701190  45.9519170  83.7074620 102.3143410  46.1578550  84.3848040
 102.0330630  45.1907570  83.2545470  95.2680360  30.7850480  76.9504840
  95.1394990  30.7768380  77.8989760  94.4442380  31.1233570  76.5995850
 102.9433270  43.9551520  82.4252070 103.5855500  43.2544680  82.5384240
 103.4682620  44.7349960  82.2448960 106.7888990  44.2400140  72.1491210
 106.5626570  43.5230580  72.7415850 106.3985190  43.9912580  71.3112960
 104.7170890  44.7546420  85.6288130 105.0527130  45.3413110  86.3066050
 103.7971230  44.6239130  85.8585920  92.5705020  48.2667000  72.9235670
  92.9302660  48.8656340  72.2692940  92.4297360  48.8126890  73.6970700
  92.2674290  32.5441600  86.4111540  91.5532810  32.7438520  87.0164150
  92.6869330  31.7681170  86.7826340 106.3705240  42.1572080  73.8105370
 106.0826940  42.6184770  74.5983250 107.1657410  41.6969850  74.0789590
  92.5546880  46.5321860  87.3978070  92.6638000  45.5916600  87.2573460
  91.9027440  46.7976610  86.7491800 100.5459470  44.8037750  88.7976190
 100.2256340  44.0846990  89.3421880  99.8717830  45.4792820  88.8712250
  98.5873640  45.6498200  73.7409340  98.5783740  46.3827890  73.1253850
  97.6672000  45.4029780  73.8336300  94.1880280  40.8713090  74.4856100
  93.5808230  41.6111990  74.4951400  94.6629630  40.9612450  73.6594300
 107.1275100  33.9920850  74.9700550 106.4988260  34.0966520  74.2558780
 106.6327020  34.2117630  75.7594430 101.5733240  45.7126440  72.4034530
 101.6745220  45.5090430  71.4736510 100.6734980  45.4584720  72.6082310
  99.0959130  36.2706800  76.3858430  98.3875280  36.7393140  76.8272040
  99.3803610  35.6128810  77.0203620 100.7215060  37.6903500  84.3850960
 101.2200310  38.1649320  85.0502810 100.8638010  36.7667020  84.5920990
 103.1274560  32.9957460  77.8254220 103.0042340  33.0143590  76.8763730
 104.0759120  33.0436400  77.9452620 100.2151350  48.2312760  77.0982200
 100.4692850  48.1934150  76.1761570  99.2663830  48.1046090  77.0910450
  97.2994150  34.5791880  73.7609140  98.1484680  35.0162030  73.6949330
  96.9325420  34.8912140  74.5881200 107.9281920  33.9071460  85.2279350
 107.4255520  34.6476860  85.5673160 108.7438580  34.2955460  84.9116140
 106.2203930  39.1504640  78.6740710 105.2794070  39.1654870  78.8488400
 106.5348000  38.3640600  79.1201010  96.1985570  40.8324240  72.2344670
  96.9648840  40.7205600  72.7970100  96.2760260  40.1362210  71.5821440
  94.8932330  38.2649310  72.9177560  94.9735920  37.3176820  73.0294960
  95.7852080  38.5956190  73.0238220 108.2229510  46.3213490  80.3494970
 108.3476930  47.1444660  80.8218780 109.0895070  46.1104220  80.0019120
  95.6947040  48.4144700  80.0212100  96.4309520  47.8660160  80.2920670
  96.0787960  49.2800710  79.8818090  92.5792520  44.4818270  75.8953610
  91.6532300  44.7239410  75.8859020  93.0448950  45.3092530  75.7738360
  94.7005320  47.5990770  89.2097680  95.5018050  47.9202820  89.6233080
  94.1857140  47.2386350  89.9317590  98.8049350  47.5875010  71.8437670
  99.5977960  47.8763840  71.3919460  98.2853700  47.1567180  71.1650150
 103.5369950  43.7070640  89.1573090 102.9308110  43.7302240  88.4168840
 103.2324060  42.9753680  89.6940340 104.9670320  47.4350930  87.7682500
 105.9192070  47.3508950  87.7182740 104.8198540  48.0992640  88.4416290
 107.8579520  46.8145140  73.2674410 107.5721030  46.4010280  72.4528590
 107.6599070  47.7432850  73.1474930  92.4203130  40.0864230  88.1533730
  92.9242150  39.5071510  88.7249960  91.6810550  40.3704460  88.6910100
  99.3226750  42.8078420  71.7080020  99.2177390  42.1930770  72.4341400
  99.1550970  42.2844310  70.9243030  99.4741070  41.4935220  87.6869250
  98.7086740  42.0620220  87.6023920  99.6557030  41.2011430  86.7937480
 102.5629480  41.8698450  72.3122010 102.0139580  42.3167750  72.9564750
 103.1848740  41.3647700  72.8359680 106.6164420  43.2240550  88.2444270
 107.3573890  43.5616310  87.7411730 105.8537100  43.3932610  87.6914040
  94.4526210  38.2293820  89.0483800  94.4931550  37.9307690  89.9569030
  95.3071710  38.6301430  88.8891320  98.2304600  40.8289370  74.2087310
  98.6521020  40.6629240  75.0518700  98.3555440  40.0189600  73.7142450
  96.3932020  36.8085920  87.0158290  95.8628480  36.3176870  86.3881630
  97.0620090  37.2370120  86.4816220 100.7432240  39.8526980  71.4564410
 101.2637900  39.1376000  71.0905560 101.3900640  40.4912850  71.7564920
 105.2910080  41.2755380  86.7799480 105.7051100  41.4300460  87.6289900
 104.3561080  41.4010600  86.9425260 105.7632250  38.6151540  88.7838630
 106.3453020  37.8603860  88.6959110 105.9394020  39.1458980  88.0070110
  96.8804320  33.7748290  87.0955580  96.7861190  33.1569040  86.3706450
  96.3001710  34.5014580  86.8685490  99.6465760  32.3321530  84.1282970
  99.1983060  32.3545790  83.2828520  99.0130960  31.9340550  84.7253270
 100.0525310  41.2275860  84.7495410 100.4713420  42.0708590  84.5771650
  99.1333940  41.3647900  84.5202190 102.3889210  38.9592040  86.1333250
 102.5085420  38.3633180  86.8728090 103.2483210  38.9961730  85.7134550
 104.7277110  39.5129230  84.7095760 104.2012330  40.0371850  84.1060900
 105.0708450  40.1456620  85.3405490  97.1263500  36.9022600  71.1545470
  96.9252560  36.0389960  71.5158810  96.9555550  36.8155960  70.2167070
  97.9032730  47.5328870  85.8653140  97.3653820  48.2574930  85.5461840
  98.1566690  47.0559210  85.0750480  99.1557980  35.5013390  87.3909070
  99.7457670  35.1929240  88.0786890  98.3378220  35.0293140  87.5468970
 103.9751410  35.1179200  87.6242090 103.2866930  34.4560740  87.5592080
 104.6957430  34.6717470  88.0690550 104.6051810  31.7130830  73.6832350
 104.8854100  30.8698730  74.0391770 103.8317540  31.9453940  74.1971100
  95.9246300  34.0023220  71.1423350  96.2272200  34.0090650  70.2342500
  96.6640890  33.6521080  71.6391010 100.7594940  48.7680080  86.1239790
 100.6853640  49.6715220  86.4312160  99.8573780  48.4491980  86.0961860
  99.1431230  32.9457840  72.1279550  98.7953230  32.2681830  71.5482000
  99.3444000  32.4847350  72.9422940 101.3080270  47.9338590  73.7466150
 102.2031060  48.2723560  73.7684910 101.3397900  47.2118000  73.1190430
  94.9476430  43.3065640  71.9753150  95.3851300  43.8495310  72.6310730
  95.4324160  42.4812590  71.9849490  92.1622230  46.0954670  79.4273410
  92.4925240  45.2275730  79.1952050  92.5913230  46.3013190  80.2578370
  96.7584150  44.4263680  77.0875380  96.4579690  44.3028650  77.9879290
  96.6521640  43.5672270  76.6791110  92.6512440  46.9625260  82.1655040
  92.2143430  47.1426060  82.9979190  93.2190120  47.7199880  82.0236760
 108.2874620  46.4642260  86.4532350 107.6876610  46.5234820  85.7096270
 108.4168520  45.5247240  86.5829200 109.5276070  44.2060080  71.7902060
 108.6969030  44.2736730  72.2609290 109.7047900  45.0964200  71.4868920
 108.9832530  40.9507560  74.2936260 109.7451440  41.5204210  74.3995950
 108.9986900  40.3834760  75.0644570  92.4836870  39.4745490  78.5243920
  91.8285710  39.2057130  77.8803620  93.3214820  39.3649970  78.0745900
 109.9892500  41.8057660  79.1378190 110.3601330  41.0224980  78.7314160
 110.6294430  42.4946760  78.9595490 106.9726260  43.1894240  84.5508510
 106.1586100  43.6191400  84.8134300 107.3800460  43.8012650  83.9377560
 109.0351700  41.2441930  71.4508780 109.3100540  42.1520810  71.3228000
 108.8462440  41.1804460  72.3870770 105.4327310  34.2686780  72.7462410
 105.8512190  34.0817760  71.9059070 105.1263370  33.4165830  73.0565340
 108.9317040  39.1810920  76.4438210 108.5560640  38.4138850  76.0119500
 108.2020160  39.5633620  76.9313140  93.5212800  39.8598060  83.0647260
  93.8885840  39.7725460  83.9443280  92.9523620  39.0964610  82.9654120
 108.3216660  38.3282440  86.0777730 108.0902750  38.0995190  85.1775680
 108.5821210  39.2481990  86.0322620  93.0728800  36.7707150  86.9705680
  92.1784850  36.7373910  87.3099390  93.6126350  36.9693940  87.7356930
 106.7604730  33.5538870  88.8557430 107.6374910  33.5622270  89.2391430
 106.7725570  32.8169710  88.2449780  91.6974950  36.6844420  74.4669250
  90.7939030  36.9474620  74.2920910  92.1815570  36.9555590  73.6869210
 108.2068000  37.4068410  79.7445450 108.7305480  36.9131060  79.1135620
 108.7927420  37.5418770  80.4893020 108.3857720  37.4908280  83.2665000
 107.4360430  37.4571820  83.3809990 108.5670730  38.4008390  83.0314770
  94.2402160  35.7409960  72.3763630  94.9493860  35.3193180  71.8910910
  93.5242100  35.8085190  71.7446980  93.8876320  31.7949290  71.4166280
  94.6104450  32.3358230  71.7347500  94.1600840  31.5212710  70.5407820
 107.6967970  36.6641760  75.6837860 108.1927090  36.4312630  76.4686740
 107.4984040  35.8253600  75.2675500  93.5768510  31.0455480  81.3188900
  94.2244700  30.4952860  80.8784060  93.9970350  31.2998630  82.1404710
 109.1255130  35.3002710  78.2175540 109.0154410  35.1458750  79.1557810
 109.8862720  34.7723650  77.9750950 107.4720850  31.2396840  84.6758540
 108.1093070  31.8530980  85.0417730 107.6195740  31.2757500  83.7307770
 110.0145400  33.1310630  71.4581680 110.9394710  32.9991810  71.2499970
 109.9921190  33.2103450  72.4118130 110.0883890  33.9021290  74.0838390
 109.2935390  33.8366410  74.6131300 110.2927170  34.8371930  74.0723740
 107.0302310  47.9412840  78.0776780 107.6261380  47.6197410  77.4011200
 107.2880460  47.4684660  78.8690050  93.3300510  31.2011150  84.0614220
  92.9815330  31.6574970  84.8272400  92.9988210  30.3068280  84.1436650
  94.9364880  44.3730750  88.2267410  94.8934510  44.0023660  89.1081870
  95.0675890  45.3108320  88.3669230  98.6370910  45.9290340  83.8277130
  98.3962270  46.1964900  82.9407650  99.5773550  46.0996070  83.8827990
 100.8425330  32.3923030  87.5833640 100.7814220  32.9844860  88.3329050
 101.7825710  32.2848990  87.4383900 103.4799890  32.0493090  87.2225930
 104.0940300  32.3672380  86.5607010 104.0249450  31.5641680  87.8421790
 109.8975070  47.9484720  84.6287770 109.4033350  48.3453590  83.9114900
 109.2888360  47.3233930  85.0225050  94.0021150  30.7287350  87.3364990
  94.5504140  30.5475400  86.5731100  94.0676460  29.9381460  87.8721300
  94.7752910  47.3193000  85.3465190  94.1813230  47.1877700  86.0855230
  94.7676750  46.4831140  84.8807290 107.5814520  48.5908140  81.9074510
 107.1217490  49.3423950  81.5332530 106.9526980  47.8714610  81.8489310
  94.4065140  44.6851380  84.2973230  93.6799200  44.0656670  84.2299180
  94.4674290  45.0791990  83.4271310  98.0110240  46.8996380  81.0822640
  98.5275260  46.2883740  80.5570900  98.6607620  47.4025160  81.5733650
 100.7505740  47.7904870  81.9091620 101.0383550  47.5359170  81.0324630
 101.2628960  47.2382230  82.4997190 108.3842390  31.8633410  78.5446040
 108.3230790  30.9194630  78.3977060 109.1634420  31.9713500  79.0899500
  92.6895140  48.0025770  77.5069990  92.5217180  47.3696450  78.2051880
  91.8229650  48.2085170  77.1564180  93.3123160  31.8342550  75.0101850
  94.0702520  31.9471430  74.4365880  92.8500330  32.6711750  74.9645280
  99.8536970  33.9481820  78.0004160  99.0411480  33.5738710  77.6600040
 100.3578610  33.1926900  78.3025350 104.3561950  30.6124270  79.2387230
 104.9591320  31.1844480  79.7135750 103.6154940  31.1763710  79.0161130
 107.4996550  31.0145830  74.5127510 107.6947180  31.9129280  74.7794940
 106.7126420  30.7832910  75.0060460  94.2957840  46.6959000  74.9520130
  93.7705460  47.0767030  74.2482090  94.2202420  47.3209770  75.6729840
  95.6848310  32.3606600  73.5503820  96.2141070  31.5736400  73.4211770
  96.3176630  33.0397790  73.7839350  97.8786150  32.0981740  76.6049210
  97.2488890  31.3969050  76.7719340  97.3391290  32.8585870  76.3882370
 100.8178100  48.7120970  89.2759820 101.7445410  48.4765240  89.3195780
 100.8028530  49.5392970  88.7945850 109.0523160  48.2546540  76.2734070
 109.2275350  47.5684280  75.6294990 108.3544730  48.7793590  75.8810740
  98.0041710  31.3765720  89.0401700  97.7225980  31.8799320  88.2762520
  98.3861410  30.5787470  88.6743830  96.8950810  48.6441380  73.8269380
  97.6269630  48.3600660  73.2793270  97.1544480  48.4054660  74.7168760
  96.0565600  44.7606110  73.8315710  95.4274480  45.2291210  74.3801540
  96.1713430  43.9155330  74.2661900 104.6057170  30.7919300  89.6182170
 104.4922620  31.1113910  90.5133690 105.4226910  31.1931810  89.3219450
 107.3855660  47.9390830  89.1000860 108.1780980  47.4440060  88.8926820
 107.6788810  48.6180970  89.7076470 103.5115320  38.8111770  59.9816910
 103.4309370  37.8966380  59.7108620 103.0979740  39.3078840  59.2756620
 101.6433360  40.5890790  61.8626180 100.8675460  40.1091230  62.1524750
 102.2946290  39.9096440  61.6882340  95.6599190  40.9010600  62.7401940
  94.8284070  40.6459310  63.1398450  96.2680170  40.9721370  63.4759860
 105.6640790  44.9950980  60.6425310 105.2022320  44.2238220  60.9712480
 106.4766340  45.0217050  61.1477760  95.6400450  44.9350690  62.9359960
  95.9428490  44.0448430  62.7570180  96.3844040  45.4920910  62.7082210
  94.0691140  35.8612490  56.5244330  93.1807840  36.2028460  56.4224210
  94.3532330  35.6612810  55.6325160  92.0324150  38.4618140  62.4084030
  92.6040260  37.6940340  62.4087670  92.0325690  38.7606900  61.4990640
 101.8904100  47.2808990  60.2629300 101.2715540  47.7366490  59.6923740
 102.7455880  47.4360450  59.8619000 101.0842350  43.2647980  61.8696340
 101.0150630  42.3237920  61.7085470 101.8462210  43.3549390  62.4418910
  93.2749020  33.8702500  64.1952960  93.0951860  32.9728250  64.4755720
  92.8729100  34.4174370  64.8699910 102.1147520  36.0718360  62.0965270
 102.4912340  35.1990240  61.9838940 102.0167030  36.4077060  61.2055710
  96.2452530  34.4443990  57.5582710  96.3519280  35.3447720  57.8651470
  95.3344890  34.3961960  57.2677360 105.8971640  33.5668800  59.0293610
 106.7181260  33.0765370  59.0719090 105.9305720  34.1566460  59.7825450
  93.8935690  36.3663000  62.8035300  94.5745800  36.6301370  63.4222700
  93.5783740  35.5263870  63.1373310  98.0860260  37.4130360  61.8907890
  98.5938480  37.9111330  62.5312910  98.6173500  36.6365560  61.7147250
 110.1871190  35.5835550  65.5937240 109.4823360  35.9717260  65.0752350
 110.4529110  36.2785840  66.1958170  96.3696360  32.0528920  66.1571310
  96.3714800  32.5701310  65.3517210  95.5400670  31.5759100  66.1341240
 102.7567450  42.1648230  57.6561210 102.1384720  42.6297680  57.0923930
 103.2690700  42.8575710  58.0730720  97.6199210  41.6924100  64.3344810
  97.2868590  42.3193020  64.9765880  97.7965890  42.2185980  63.5546480
 106.1333120  35.5069180  61.8021150 105.4288690  35.7954070  62.3824260
 106.4945280  36.3169290  61.4420710  96.0511690  33.7638880  64.1641760
  96.3928500  34.6080930  63.8695630  95.1127500  33.9122620  64.2807100
  96.8318310  43.6604900  66.1493990  97.4492310  44.3355980  65.8678440
  95.9711430  44.0692880  66.0581490  92.1250650  42.8504760  55.0300840
  91.7478630  43.3391860  54.2985740  92.3823720  43.5230040  55.6607370
 107.7495900  45.1244310  64.0648630 107.0659420  45.7943420  64.0565300
 108.2890190  45.3224960  63.2993490 109.2020040  34.9523970  62.1930360
 108.2544950  34.9862950  62.3245790 109.5270030  35.7662920  62.5779720
  99.7339580  31.2521150  60.4886350 100.0414560  30.6968040  59.7721850
  98.8040280  31.3865610  60.3059340 105.2854640  46.9688440  62.7793810
 105.2981800  46.5650730  61.9116070 104.7329860  47.7435730  62.6755240
 106.5800060  43.6904660  57.8683980 106.4696390  42.7478990  57.9933400
 106.5768310  44.0520300  58.7546740 104.6840080  41.8718280  64.1076420
 105.1008870  41.6578390  63.2729880 105.4079900  42.1291070  64.6785040
 102.1220340  39.3169980  57.2246470 101.1949620  39.2507360  57.4534940
 102.2745160  40.2550110  57.1101710 102.1089420  35.5886980  54.2213630
 101.1693090  35.7500940  54.3066090 102.4272680  36.3072660  53.6749620
 108.6302180  40.2705500  64.1992660 107.8020810  40.3398590  63.7242790
 109.2252660  40.8559810  63.7308490 106.1517630  40.8790280  57.7281720
 105.5330050  40.5409830  57.0808020 106.1342080  40.2350040  58.4360910
 105.5944190  37.0574820  65.1447530 105.1815370  37.8828530  65.3987520
 104.8620140  36.4719860  64.9523890  97.7276980  39.8434720  60.0066200
  97.3233980  39.1311970  59.5112100  97.8140100  39.4987960  60.8954240
  98.1958680  43.5302280  62.1705410  97.8986970  42.9247750  61.4913190
  99.1458500  43.5679590  62.0594770  96.4405600  36.6177930  63.7865240
  96.9920190  36.7273270  63.0118490  96.9549110  36.9915530  64.5020470
 106.2844290  47.1034150  65.8328510 105.8074850  47.9106340  65.6401120
 105.6006080  46.4512480  65.9854720  97.2877110  43.2683970  68.8213210
  96.3905640  43.4923940  69.0686610  97.3129980  43.3918910  67.8724610
 104.3282330  40.1177090  54.7354470 104.7675610  39.2799520  54.5892290
 105.0410750  40.7506490  54.8218610  96.1148330  40.1397290  67.3970580
  95.9756100  41.0120090  67.7657980  95.2329690  39.7970100  67.2518520
 102.4377710  45.0573160  58.7035710 102.8773620  45.7997490  58.2891100
 102.3764600  45.2999730  59.6274670  97.9128680  46.0818990  69.6055730
  97.8844110  46.4861940  68.7384160  97.7493650  45.1529350  69.4427330
 107.9099470  31.3719900  53.0495510 107.5972130  31.4646730  53.9494580
 108.6711940  31.9500930  52.9992940  94.4281610  38.7379700  57.5072850
  94.3079210  39.4641790  56.8954120  94.1182500  37.9682610  57.0300760
 109.8643500  46.8646090  70.9019900 110.3403220  47.3428980  71.5808980
 110.4850660  46.7963580  70.1765400  92.0666980  41.9094840  63.3141490
  92.1447400  42.0443610  62.3697210  92.6808660  41.2010730  63.5069610
  93.3114610  43.6095030  59.7247670  92.9042690  43.7509620  58.8701270
  94.2027620  43.3255190  59.5218880 109.2676750  44.0558940  68.0619910
 109.3939810  43.8170820  67.1437090 109.3098130  43.2243480  68.5341990
 103.1293490  47.7586940  66.6314720 103.6438160  47.6694950  67.4337150
 102.2862570  48.1046640  66.9242630 105.1047890  48.0442280  56.0598720
 104.9449030  47.7545220  56.9580550 104.9394600  47.2682410  55.5243950
  97.5836270  47.8240810  57.8370340  97.4078750  46.9076350  57.6238140
  96.7292010  48.1828100  58.0768140 104.8074020  45.5529840  54.6196720
 104.1139180  45.5507130  53.9599000 105.5496880  45.1289160  54.1890890
 104.3723950  47.1792550  58.6945210 104.8280900  46.3981930  59.0083830
 104.7116470  47.8899370  59.2386390 109.1200760  36.1091400  69.0269650
 108.5045030  36.6171070  68.4985110 108.7997180  35.2089730  68.9695590
  92.1226500  42.9509010  65.8535950  92.2857540  42.4814370  65.0355320
  92.5878950  42.4432570  66.5184790  96.8945270  32.0814770  60.8896520
  96.4513420  32.8624310  60.5581040  97.4530260  32.4044660  61.5967460
 101.1815080  34.9483290  66.4931840 100.7194450  35.1566310  67.3051780
 100.7793190  34.1342640  66.1902510 106.1819590  36.1692240  67.6228500
 105.3313180  35.8697990  67.9437570 106.0221380  36.4134250  66.7112320
 103.2769300  37.6693990  69.7227290 103.6022710  36.8357740  69.3829520
 104.0649630  38.1922510  69.8705620 100.0104090  31.7025470  55.7702350
  99.3858270  31.6985340  56.4955660  99.9234210  30.8356430  55.3738320
  98.9321170  32.6262100  62.7486120  99.2293500  33.5324930  62.6678140
  99.4806730  32.1380880  62.1345690  96.6859490  37.2048340  58.6177770
  96.4600410  36.9885510  59.5224390  95.9052020  37.6376800  58.2723740
 103.9157250  37.2111710  57.2168420 103.3166140  37.9347510  57.0332040
 104.4636860  37.1488490  56.4344870  99.1258700  38.1033920  69.2838040
  99.0302300  37.1628650  69.1338440  99.9690680  38.3248990  68.8886110
 102.5222120  35.8475250  59.2471700 102.9151690  36.1647450  58.4340390
 102.8838970  34.9687130  59.3616220  94.2569240  34.5147590  67.4371820
  93.8632630  35.3622800  67.6444600  93.5687640  33.8773960  67.6280460
 100.8314290  34.5982560  70.5068560 100.1412610  34.4054760  71.1414650
 101.5746590  34.8817200  71.0392860  91.5586290  32.4376050  61.4701900
  91.2699340  33.0078910  62.1826880  92.3032050  31.9580500  61.8333130
  91.7456520  36.3796170  52.6804620  91.6631190  37.3226930  52.8219610
  91.3939580  36.2371080  51.8016970 103.1077260  38.4381000  63.3422480
 102.3758380  38.9467810  63.6912580 102.7101600  37.6210980  63.0411260
  99.5454650  35.1135200  61.7474970  99.5490710  34.6725150  60.8979510
 100.4405770  35.4352530  61.8546790  95.3957030  34.9961690  60.7069180
  95.0557080  35.4736920  61.4636230  94.6334350  34.5426810  60.3470280
  99.6074800  36.1147280  54.7381730  99.7287620  36.0733760  55.6867550
  99.2223310  36.9771430  54.5828460 103.5703170  33.8914680  62.7545420
 103.5875910  34.3423330  63.5987270 103.3218750  32.9920320  62.9678860
  98.6196300  38.4248420  54.1365030  98.0513200  37.9766670  53.5100940
  99.3285300  38.7841200  53.6030180 106.9973920  31.3046860  68.5931800
 107.3219690  30.5736520  69.1189780 107.0330430  30.9860500  67.6912790
  93.6965480  42.3260440  68.0131760  93.3120270  41.6854110  68.6114720
  94.0077670  43.0296560  68.5826490  99.8462620  39.1736980  63.4940380
 100.2132750  38.6995550  64.2401720  99.6567680  40.0478550  63.8348720
  92.7103110  33.9180670  59.6233850  92.4250030  33.5536340  60.4612470
  92.6481970  33.1861130  59.0096990  97.6361990  38.2145620  65.8124590
  97.3319060  39.0937600  66.0374950  98.5908450  38.2745410  65.8482030
  96.1643780  42.4206610  56.4091440  95.3906040  41.8804230  56.2490160
  96.8938410  41.9013220  56.0709200 106.9231760  41.4171970  62.2017830
 107.6430880  41.9127260  61.8113940 106.7213580  40.7389860  61.5571700
 102.3841700  32.8109930  56.3447220 101.5706310  32.3123100  56.2692530
 102.1903650  33.6508180  55.9283570 102.3050560  41.4881030  68.0886830
 102.2387870  40.5676700  67.8344420 101.6755700  41.5856470  68.8031470
 105.0990090  37.1829580  54.6409380 105.9869710  37.4946810  54.4660720
 105.0695180  36.3101830  54.2489960  96.2081180  42.0886990  60.0470250
  96.7259850  41.2855250  59.9927140  95.7565200  42.0266130  60.8887080
 101.0950680  43.3553270  55.3197550 101.4366380  44.0995500  54.8240870
 100.2663390  43.6684390  55.6822380  93.6925720  39.0548360  66.9595950
  93.3340660  39.7202210  67.5469290  93.3980280  38.2231910  67.3308570
  96.8938840  39.5132600  69.8435500  96.5938980  39.6589780  68.9463320
  97.6650080  38.9537890  69.7508890 102.2367290  44.3101600  67.8390630
 102.2511830  43.3782560  67.6209540 101.5292390  44.3961360  68.4780400
 107.3704360  38.4941420  54.1089240 107.2868080  38.9255640  53.2585680
 108.0898550  38.9539770  54.5416060 108.4478500  40.9508940  67.1859210
 107.7226690  41.5437720  66.9888600 108.9753960  40.9432480  66.3872580
 108.3991610  45.3483680  56.8371370 107.7567770  44.6939300  57.1115090
 108.0122270  45.7538770  56.0612040 103.9778090  42.6769110  60.6843060
 104.3301910  42.0797240  60.0244430 103.0940420  42.3513340  60.8551310
 100.0641370  43.4366800  58.0913470 100.7512500  43.9836010  58.4721060
  99.2773790  43.9807530  58.1263080  92.2033770  39.0539620  53.5830550
  93.0728620  39.3364420  53.8666470  91.7124090  39.8675490  53.4679360
  99.3668580  40.4412830  57.7038830  99.8231360  41.2518080  57.9299020
  99.0156790  40.1235970  58.5357320 101.6701190  45.9519170  64.9331130
 102.3143410  46.1578550  65.6104550 102.0330630  45.1907570  64.4801980
  95.2680360  30.7850480  58.1761350  95.1394990  30.7768380  59.1246270
  94.4442380  31.1233570  57.8252360 102.9433270  43.9551520  63.6508580
 103.5855500  43.2544680  63.7640750 103.4682620  44.7349960  63.4705470
 106.7888990  44.2400140  53.3747720 106.5626570  43.5230580  53.9672360
 106.3985190  43.9912580  52.5369470 104.7170890  44.7546420  66.8544640
 105.0527130  45.3413110  67.5322560 103.7971230  44.6239130  67.0842430
  92.5705020  48.2667000  54.1492180  92.9302660  48.8656340  53.4949450
  92.4297360  48.8126890  54.9227210  92.2674290  32.5441600  67.6368050
  91.5532810  32.7438520  68.2420660  92.6869330  31.7681170  68.0082850
 106.3705240  42.1572080  55.0361880 106.0826940  42.6184770  55.8239760
 107.1657410  41.6969850  55.3046100  92.5546880  46.5321860  68.6234580
  92.6638000  45.5916600  68.4829970  91.9027440  46.7976610  67.9748310
 100.5459470  44.8037750  70.0232700 100.2256340  44.0846990  70.5678390
  99.8717830  45.4792820  70.0968760  98.5873640  45.6498200  54.9665850
  98.5783740  46.3827890  54.3510360  97.6672000  45.4029780  55.0592810
  94.1880280  40.8713090  55.7112610  93.5808230  41.6111990  55.7207910
  94.6629630  40.9612450  54.8850810 103.7613070  35.0363910  65.3869500
 104.1293890  34.2159120  65.7149070 102.9011270  35.0965800  65.8025150
 107.1275100  33.9920850  56.1957060 106.4988260  34.0966520  55.4815290
 106.6327020  34.2117630  56.9850940 101.5733240  45.7126440  53.6291040
 101.6745220  45.5090430  52.6993020 100.6734980  45.4584720  53.8338820
  99.0959130  36.2706800  57.6114940  98.3875280  36.7393140  58.0528550
  99.3803610  35.6128810  58.2460130 100.7215060  37.6903500  65.6107470
 101.2200310  38.1649320  66.2759320 100.8638010  36.7667020  65.8177500
 103.1274560  32.9957460  59.0510730 103.0042340  33.0143590  58.1020240
 104.0759120  33.0436400  59.1709130 100.2151350  48.2312760  58.3238710
 100.4692850  48.1934150  57.4018080  99.2663830  48.1046090  58.3166960
  97.2994150  34.5791880  54.9865650  98.1484680  35.0162030  54.9205840
  96.9325420  34.8912140  55.8137710 107.9281920  33.9071460  66.4535860
 107.4255520  34.6476860  66.7929670 108.7438580  34.2955460  66.1372650
 106.2203930  39.1504640  59.8997220 105.2794070  39.1654870  60.0744910
 106.5348000  38.3640600  60.3457520  96.1985570  40.8324240  53.4601180
  96.9648840  40.7205600  54.0226610  96.2760260  40.1362210  52.8077950
  94.8932330  38.2649310  54.1434070  94.9735920  37.3176820  54.2551470
  95.7852080  38.5956190  54.2494730 108.2229510  46.3213490  61.5751480
 108.3476930  47.1444660  62.0475290 109.0895070  46.1104220  61.2275630
  95.6947040  48.4144700  61.2468610  96.4309520  47.8660160  61.5177180
  96.0787960  49.2800710  61.1074600  92.5792520  44.4818270  57.1210120
  91.6532300  44.7239410  57.1115530  93.0448950  45.3092530  56.9994870
  94.7005320  47.5990770  70.4354190  95.5018050  47.9202820  70.8489590
  94.1857140  47.2386350  71.1574100  98.8049350  47.5875010  53.0694180
  99.5977960  47.8763840  52.6175970  98.2853700  47.1567180  52.3906660
 103.5369950  43.7070640  70.3829600 102.9308110  43.7302240  69.6425350
 103.2324060  42.9753680  70.9196850 104.9670320  47.4350930  68.9939010
 105.9192070  47.3508950  68.9439250 104.8198540  48.0992640  69.6672800
 107.8579520  46.8145140  54.4930920 107.5721030  46.4010280  53.6785100
 107.6599070  47.7432850  54.3731440  92.4203130  40.0864230  69.3790240
  92.9242150  39.5071510  69.9506470  91.6810550  40.3704460  69.9166610
  99.3226750  42.8078420  52.9336530  99.2177390  42.1930770  53.6597910
  99.1550970  42.2844310  52.1499540  99.4741070  41.4935220  68.9125760
  98.7086740  42.0620220  68.8280430  99.6557030  41.2011430  68.0193990
 102.5629480  41.8698450  53.5378520 102.0139580  42.3167750  54.1821260
 103.1848740  41.3647700  54.0616190 106.6164420  43.2240550  69.4700780
 107.3573890  43.5616310  68.9668240 105.8537100  43.3932610  68.9170550
  94.4526210  38.2293820  70.2740310  94.4931550  37.9307690  71.1825540
  95.3071710  38.6301430  70.1147830  98.2304600  40.8289370  55.4343820
  98.6521020  40.6629240  56.2775210  98.3555440  40.0189600  54.9398960
  96.3932020  36.8085920  68.2414800  95.8628480  36.3176870  67.6138140
  97.0620090  37.2370120  67.7072730 100.7432240  39.8526980  52.6820920
 101.2637900  39.1376000  52.3162070 101.3900640  40.4912850  52.9821430
 105.2910080  41.2755380  68.0055990 105.7051100  41.4300460  68.8546410
 104.3561080  41.4010600  68.1681770 105.7632250  38.6151540  70.0095140
 106.3453020  37.8603860  69.9215620 105.9394020  39.1458980  69.2326620
  96.8804320  33.7748290  68.3212090  96.7861190  33.1569040  67.5962960
  96.3001710  34.5014580  68.0942000  99.6465760  32.3321530  65.3539480
  99.1983060  32.3545790  64.5085030  99.0130960  31.9340550  65.9509780
 100.0525310  41.2275860  65.9751920 100.4713420  42.0708590  65.8028160
  99.1333940  41.3647900  65.7458700 102.3889210  38.9592040  67.3589760
 102.5085420  38.3633180  68.0984600 103.2483210  38.9961730  66.9391060
 104.7277110  39.5129230  65.9352270 104.2012330  40.0371850  65.3317410
 105.0708450  40.1456620  66.5662000  97.1263500  36.9022600  52.3801980
  96.9252560  36.0389960  52.7415320  96.9555550  36.8155960  51.4423580
  97.9032730  47.5328870  67.0909650  97.3653820  48.2574930  66.7718350
  98.1566690  47.0559210  66.3006990  99.1557980  35.5013390  68.6165580
  99.7457670  35.1929240  69.3043400  98.3378220  35.0293140  68.7725480
 103.9751410  35.1179200  68.8498600 103.2866930  34.4560740  68.7848590
 104.6957430  34.6717470  69.2947060 104.6051810  31.7130830  54.9088860
 104.8854100  30.8698730  55.2648280 103.8317540  31.9453940  55.4227610
  95.9246300  34.0023220  52.3679860  96.2272200  34.0090650  51.4599010
  96.6640890  33.6521080  52.8647520 100.7594940  48.7680080  67.3496300
 100.6853640  49.6715220  67.6568670  99.8573780  48.4491980  67.3218370
  99.1431230  32.9457840  53.3536060  98.7953230  32.2681830  52.7738510
  99.3444000  32.4847350  54.1679450 101.3080270  47.9338590  54.9722660
 102.2031060  48.2723560  54.9941420 101.3397900  47.2118000  54.3446940
  94.9476430  43.3065640  53.2009660  95.3851300  43.8495310  53.8567240
  95.4324160  42.4812590  53.2106000  92.1622230  46.0954670  60.6529920
  92.4925240  45.2275730  60.4208560  92.5913230  46.3013190  61.4834880
  96.7584150  44.4263680  58.3131890  96.4579690  44.3028650  59.2135800
  96.6521640  43.5672270  57.9047620  92.6512440  46.9625260  63.3911550
  92.2143430  47.1426060  64.2235700  93.2190120  47.7199880  63.2493270
 108.2874620  46.4642260  67.6788860 107.6876610  46.5234820  66.9352780
 108.4168520  45.5247240  67.8085710 109.5276070  44.2060080  53.0158570
 108.6969030  44.2736730  53.4865800 109.7047900  45.0964200  52.7125430
 108.9832530  40.9507560  55.5192770 109.7451440  41.5204210  55.6252460
 108.9986900  40.3834760  56.2901080  92.4836870  39.4745490  59.7500430
  91.8285710  39.2057130  59.1060130  93.3214820  39.3649970  59.3002410
 109.9892500  41.8057660  60.3634700 110.3601330  41.0224980  59.9570670
 110.6294430  42.4946760  60.1852000 106.9726260  43.1894240  65.7765020
 106.1586100  43.6191400  66.0390810 107.3800460  43.8012650  65.1634070
 109.0351700  41.2441930  52.6765290 109.3100540  42.1520810  52.5484510
 108.8462440  41.1804460  53.6127280 105.4327310  34.2686780  53.9718920
 105.8512190  34.0817760  53.1315580 105.1263370  33.4165830  54.2821850
 108.9317040  39.1810920  57.6694720 108.5560640  38.4138850  57.2376010
 108.2020160  39.5633620  58.1569650  93.5212800  39.8598060  64.2903770
  93.8885840  39.7725460  65.1699790  92.9523620  39.0964610  64.1910630
 108.3216660  38.3282440  67.3034240 108.0902750  38.0995190  66.4032190
 108.5821210  39.2481990  67.2579130  93.0728800  36.7707150  68.1962190
  92.1784850  36.7373910  68.5355900  93.6126350  36.9693940  68.9613440
 106.7604730  33.5538870  70.0813940 107.6374910  33.5622270  70.4647940
 106.7725570  32.8169710  69.4706290  91.6974950  36.6844420  55.6925760
  90.7939030  36.9474620  55.5177420  92.1815570  36.9555590  54.9125720
 108.2068000  37.4068410  60.9701960 108.7305480  36.9131060  60.3392130
 108.7927420  37.5418770  61.7149530 108.3857720  37.4908280  64.4921510
 107.4360430  37.4571820  64.6066500 108.5670730  38.4008390  64.2571280
  94.2402160  35.7409960  53.6020140  94.9493860  35.3193180  53.1167420
  93.5242100  35.8085190  52.9703490  93.8876320  31.7949290  52.6422790
  94.6104450  32.3358230  52.9604010  94.1600840  31.5212710  51.7664330
 107.6967970  36.6641760  56.9094370 108.1927090  36.4312630  57.6943250
 107.4984040  35.8253600  56.4932010  93.5768510  31.0455480  62.5445410
  94.2244700  30.4952860  62.1040570  93.9970350  31.2998630  63.3661220
 109.1255130  35.3002710  59.4432050 109.0154410  35.1458750  60.3814320
 109.8862720  34.7723650  59.2007460 107.4720850  31.2396840  65.9015050
 108.1093070  31.8530980  66.2674240 107.6195740  31.2757500  64.9564280
 110.0145400  33.1310630  52.6838190 110.9394710  32.9991810  52.4756480
 109.9921190  33.2103450  53.6374640 110.0883890  33.9021290  55.3094900
 109.2935390  33.8366410  55.8387810 110.2927170  34.8371930  55.2980250
 107.0302310  47.9412840  59.3033290 107.6261380  47.6197410  58.6267710
 107.2880460  47.4684660  60.0946560  93.3300510  31.2011150  65.2870730
  92.9815330  31.6574970  66.0528910  92.9988210  30.3068280  65.3693160
  94.9364880  44.3730750  69.4523920  94.8934510  44.0023660  70.3338380
  95.0675890  45.3108320  69.5925740  98.6370910  45.9290340  65.0533640
  98.3962270  46.1964900  64.1664160  99.5773550  46.0996070  65.1084500
 100.8425330  32.3923030  68.8090150 100.7814220  32.9844860  69.5585560
 101.7825710  32.2848990  68.6640410 103.4799890  32.0493090  68.4482440
 104.0940300  32.3672380  67.7863520 104.0249450  31.5641680  69.0678300
 109.8975070  47.9484720  65.8544280 109.4033350  48.3453590  65.1371410
 109.2888360  47.3233930  66.2481560  94.0021150  30.7287350  68.5621500
  94.5504140  30.5475400  67.7987610  94.0676460  29.9381460  69.0977810
  94.7752910  47.3193000  66.5721700  94.1813230  47.1877700  67.3111740
  94.7676750  46.4831140  66.1063800 104.2207930  30.6125230  64.7751730
 103.3467770  30.9460340  64.5724660 104.1118680  30.1398410  65.6003600
 105.1279910  32.8196100  66.1593450 104.7993270  32.0047860  65.7795180
 106.0762210  32.7765910  66.0359140 107.5814520  48.5908140  63.1331020
 107.1217490  49.3423950  62.7589040 106.9526980  47.8714610  63.0745820
  94.4065140  44.6851380  65.5229740  93.6799200  44.0656670  65.4555690
  94.4674290  45.0791990  64.6527820  98.0110240  46.8996380  62.3079150
  98.5275260  46.2883740  61.7827410  98.6607620  47.4025160  62.7990160
 100.7505740  47.7904870  63.1348130 101.0383550  47.5359170  62.2581140
 101.2628960  47.2382230  63.7253700 101.9682750  31.5295070  63.7144640
 101.1854540  32.0040570  63.9941400 101.6745680  30.6249900  63.6057820
 106.5203820  32.2318170  61.7593730 106.9611910  32.1763270  60.9115330
 106.2511410  33.1476180  61.8303910 108.3842390  31.8633410  59.7702550
 108.3230790  30.9194630  59.6233570 109.1634420  31.9713500  60.3156010
  92.6895140  48.0025770  58.7326500  92.5217180  47.3696450  59.4308390
  91.8229650  48.2085170  58.3820690  93.3123160  31.8342550  56.2358360
  94.0702520  31.9471430  55.6622390  92.8500330  32.6711750  56.1901790
  99.8536970  33.9481820  59.2260670  99.0411480  33.5738710  58.8856550
 100.3578610  33.1926900  59.5281860 104.3561950  30.6124270  60.4643740
 104.9591320  31.1844480  60.9392260 103.6154940  31.1763710  60.2417640
 107.4996550  31.0145830  55.7384020 107.6947180  31.9129280  56.0051450
 106.7126420  30.7832910  56.2316970  94.2957840  46.6959000  56.1776640
  93.7705460  47.0767030  55.4738600  94.2202420  47.3209770  56.8986350
  95.6848310  32.3606600  54.7760330  96.2141070  31.5736400  54.6468280
  96.3176630  33.0397790  55.0095860  97.8786150  32.0981740  57.8305720
  97.2488890  31.3969050  57.9975850  97.3391290  32.8585870  57.6138880
 100.8178100  48.7120970  70.5016330 101.7445410  48.4765240  70.5452290
 100.8028530  49.5392970  70.0202360 109.0523160  48.2546540  57.4990580
 109.2275350  47.5684280  56.8551500 108.3544730  48.7793590  57.1067250
  98.0041710  31.3765720  70.2658210  97.7225980  31.8799320  69.5019030
  98.3861410  30.5787470  69.9000340  96.8950810  48.6441380  55.0525890
  97.6269630  48.3600660  54.5049780  97.1544480  48.4054660  55.9425270
  96.0565600  44.7606110  55.0572220  95.4274480  45.2291210  55.6058050
  96.1713430  43.9155330  55.4918410 104.6057170  30.7919300  70.8438680
 104.4922620  31.1113910  71.7390200 105.4226910  31.1931810  70.5475960
 107.3855660  47.9390830  70.3257370 108.1780980  47.4440060  70.1183330
 107.6788810  48.6180970  70.9332980 103.5115320  38.8111770  41.2073420
 103.4309370  37.8966380  40.9365130 103.0979740  39.3078840  40.5013130
 101.6433360  40.5890790  43.0882690 100.8675460  40.1091230  43.3781260
 102.2946290  39.9096440  42.9138850  95.6599190  40.9010600  43.9658450
  94.8284070  40.6459310  44.3654960  96.2680170  40.9721370  44.7016370
 105.6640790  44.9950980  41.8681820 105.2022320  44.2238220  42.1968990
 106.4766340  45.0217050  42.3734270  95.6400450  44.9350690  44.1616470
  95.9428490  44.0448430  43.9826690  96.3844040  45.4920910  43.9338720
  94.0691140  35.8612490  37.7500840  93.1807840  36.2028460  37.6480720
  94.3532330  35.6612810  36.8581670  92.0324150  38.4618140  43.6340540
  92.6040260  37.6940340  43.6344180  92.0325690  38.7606900  42.7247150
 101.8904100  47.2808990  41.4885810 101.2715540  47.7366490  40.9180250
 102.7455880  47.4360450  41.0875510 101.0842350  43.2647980  43.0952850
 101.0150630  42.3237920  42.9341980 101.8462210  43.3549390  43.6675420
  93.2749020  33.8702500  45.4209470  93.0951860  32.9728250  45.7012230
  92.8729100  34.4174370  46.0956420 102.1147520  36.0718360  43.3221780
 102.4912340  35.1990240  43.2095450 102.0167030  36.4077060  42.4312220
  96.2452530  34.4443990  38.7839220  96.3519280  35.3447720  39.0907980
  95.3344890  34.3961960  38.4933870 105.8971640  33.5668800  40.2550120
 106.7181260  33.0765370  40.2975600 105.9305720  34.1566460  41.0081960
  93.8935690  36.3663000  44.0291810  94.5745800  36.6301370  44.6479210
  93.5783740  35.5263870  44.3629820  98.0860260  37.4130360  43.1164400
  98.5938480  37.9111330  43.7569420  98.6173500  36.6365560  42.9403760
 110.1871190  35.5835550  46.8193750 109.4823360  35.9717260  46.3008860
 110.4529110  36.2785840  47.4214680  96.3696360  32.0528920  47.3827820
  96.3714800  32.5701310  46.5773720  95.5400670  31.5759100  47.3597750
 102.7567450  42.1648230  38.8817720 102.1384720  42.6297680  38.3180440
 103.2690700  42.8575710  39.2987230  97.6199210  41.6924100  45.5601320
  97.2868590  42.3193020  46.2022390  97.7965890  42.2185980  44.7802990
 106.1333120  35.5069180  43.0277660 105.4288690  35.7954070  43.6080770
 106.4945280  36.3169290  42.6677220  96.0511690  33.7638880  45.3898270
  96.3928500  34.6080930  45.0952140  95.1127500  33.9122620  45.5063610
  96.8318310  43.6604900  47.3750500  97.4492310  44.3355980  47.0934950
  95.9711430  44.0692880  47.2838000  92.1250650  42.8504760  36.2557350
  91.7478630  43.3391860  35.5242250  92.3823720  43.5230040  36.8863880
 107.7495900  45.1244310  45.2905140 107.0659420  45.7943420  45.2821810
 108.2890190  45.3224960  44.5250000 109.2020040  34.9523970  43.4186870
 108.2544950  34.9862950  43.5502300 109.5270030  35.7662920  43.8036230
  99.7339580  31.2521150  41.7142860 100.0414560  30.6968040  40.9978360
  98.8040280  31.3865610  41.5315850 105.2854640  46.9688440  44.0050320
 105.2981800  46.5650730  43.1372580 104.7329860  47.7435730  43.9011750
 106.5800060  43.6904660  39.0940490 106.4696390  42.7478990  39.2189910
 106.5768310  44.0520300  39.9803250 104.6840080  41.8718280  45.3332930
 105.1008870  41.6578390  44.4986390 105.4079900  42.1291070  45.9041550
 102.1220340  39.3169980  38.4502980 101.1949620  39.2507360  38.6791450
 102.2745160  40.2550110  38.3358220 102.1089420  35.5886980  35.4470140
 101.1693090  35.7500940  35.5322600 102.4272680  36.3072660  34.9006130
 108.6302180  40.2705500  45.4249170 107.8020810  40.3398590  44.9499300
 109.2252660  40.8559810  44.9565000 106.1517630  40.8790280  38.9538230
 105.5330050  40.5409830  38.3064530 106.1342080  40.2350040  39.6617420
 105.5944190  37.0574820  46.3704040 105.1815370  37.8828530  46.6244030
 104.8620140  36.4719860  46.1780400  97.7276980  39.8434720  41.2322710
  97.3233980  39.1311970  40.7368610  97.8140100  39.4987960  42.1210750
  98.1958680  43.5302280  43.3961920  97.8986970  42.9247750  42.7169700
  99.1458500  43.5679590  43.2851280  96.4405600  36.6177930  45.0121750
  96.9920190  36.7273270  44.2375000  96.9549110  36.9915530  45.7276980
 106.2844290  47.1034150  47.0585020 105.8074850  47.9106340  46.8657630
 105.6006080  46.4512480  47.2111230  97.2877110  43.2683970  50.0469720
  96.3905640  43.4923940  50.2943120  97.3129980  43.3918910  49.0981120
 104.3282330  40.1177090  35.9610980 104.7675610  39.2799520  35.8148800
 105.0410750  40.7506490  36.0475120  96.1148330  40.1397290  48.6227090
  95.9756100  41.0120090  48.9914490  95.2329690  39.7970100  48.4775030
 102.4377710  45.0573160  39.9292220 102.8773620  45.7997490  39.5147610
 102.3764600  45.2999730  40.8531180  97.9128680  46.0818990  50.8312240
  97.8844110  46.4861940  49.9640670  97.7493650  45.1529350  50.6683840
 107.9099470  31.3719900  34.2752020 107.5972130  31.4646730  35.1751090
 108.6711940  31.9500930  34.2249450  94.4281610  38.7379700  38.7329360
  94.3079210  39.4641790  38.1210630  94.1182500  37.9682610  38.2557270
 109.8643500  46.8646090  52.1276410 110.3403220  47.3428980  52.8065490
 110.4850660  46.7963580  51.4021910  92.0666980  41.9094840  44.5398000
  92.1447400  42.0443610  43.5953720  92.6808660  41.2010730  44.7326120
  93.3114610  43.6095030  40.9504180  92.9042690  43.7509620  40.0957780
  94.2027620  43.3255190  40.7475390 109.2676750  44.0558940  49.2876420
 109.3939810  43.8170820  48.3693600 109.3098130  43.2243480  49.7598500
 103.1293490  47.7586940  47.8571230 103.6438160  47.6694950  48.6593660
 102.2862570  48.1046640  48.1499140 105.1047890  48.0442280  37.2855230
 104.9449030  47.7545220  38.1837060 104.9394600  47.2682410  36.7500460
  97.5836270  47.8240810  39.0626850  97.4078750  46.9076350  38.8494650
  96.7292010  48.1828100  39.3024650 104.8074020  45.5529840  35.8453230
 104.1139180  45.5507130  35.1855510 105.5496880  45.1289160  35.4147400
 104.3723950  47.1792550  39.9201720 104.8280900  46.3981930  40.2340340
 104.7116470  47.8899370  40.4642900 109.1200760  36.1091400  50.2526160
 108.5045030  36.6171070  49.7241620 108.7997180  35.2089730  50.1952100
  92.1226500  42.9509010  47.0792460  92.2857540  42.4814370  46.2611830
  92.5878950  42.4432570  47.7441300  96.8945270  32.0814770  42.1153030
  96.4513420  32.8624310  41.7837550  97.4530260  32.4044660  42.8223970
 101.1815080  34.9483290  47.7188350 100.7194450  35.1566310  48.5308290
 100.7793190  34.1342640  47.4159020 106.1819590  36.1692240  48.8485010
 105.3313180  35.8697990  49.1694080 106.0221380  36.4134250  47.9368830
 103.2769300  37.6693990  50.9483800 103.6022710  36.8357740  50.6086030
 104.0649630  38.1922510  51.0962130 100.0104090  31.7025470  36.9958860
  99.3858270  31.6985340  37.7212170  99.9234210  30.8356430  36.5994830
  98.9321170  32.6262100  43.9742630  99.2293500  33.5324930  43.8934650
  99.4806730  32.1380880  43.3602200  96.6859490  37.2048340  39.8434280
  96.4600410  36.9885510  40.7480900  95.9052020  37.6376800  39.4980250
 103.9157250  37.2111710  38.4424930 103.3166140  37.9347510  38.2588550
 104.4636860  37.1488490  37.6601380  99.1258700  38.1033920  50.5094550
  99.0302300  37.1628650  50.3594950  99.9690680  38.3248990  50.1142620
 102.5222120  35.8475250  40.4728210 102.9151690  36.1647450  39.6596900
 102.8838970  34.9687130  40.5872730  94.2569240  34.5147590  48.6628330
  93.8632630  35.3622800  48.8701110  93.5687640  33.8773960  48.8536970
 100.8314290  34.5982560  51.7325070 100.1412610  34.4054760  52.3671160
 101.5746590  34.8817200  52.2649370  91.5586290  32.4376050  42.6958410
  91.2699340  33.0078910  43.4083390  92.3032050  31.9580500  43.0589640
  91.7456520  36.3796170  33.9061130  91.6631190  37.3226930  34.0476120
  91.3939580  36.2371080  33.0273480 103.1077260  38.4381000  44.5678990
 102.3758380  38.9467810  44.9169090 102.7101600  37.6210980  44.2667770
  99.5454650  35.1135200  42.9731480  99.5490710  34.6725150  42.1236020
 100.4405770  35.4352530  43.0803300  95.3957030  34.9961690  41.9325690
  95.0557080  35.4736920  42.6892740  94.6334350  34.5426810  41.5726790
  99.6074800  36.1147280  35.9638240  99.7287620  36.0733760  36.9124060
  99.2223310  36.9771430  35.8084970 103.5703170  33.8914680  43.9801930
 103.5875910  34.3423330  44.8243780 103.3218750  32.9920320  44.1935370
  98.6196300  38.4248420  35.3621540  98.0513200  37.9766670  34.7357450
  99.3285300  38.7841200  34.8286690 106.9973920  31.3046860  49.8188310
 107.3219690  30.5736520  50.3446290 107.0330430  30.9860500  48.9169300
  93.6965480  42.3260440  49.2388270  93.3120270  41.6854110  49.8371230
  94.0077670  43.0296560  49.8083000  99.8462620  39.1736980  44.7196890
 100.2132750  38.6995550  45.4658230  99.6567680  40.0478550  45.0605230
  92.7103110  33.9180670  40.8490360  92.4250030  33.5536340  41.6868980
  92.6481970  33.1861130  40.2353500  97.6361990  38.2145620  47.0381100
  97.3319060  39.0937600  47.2631460  98.5908450  38.2745410  47.0738540
  96.1643780  42.4206610  37.6347950  95.3906040  41.8804230  37.4746670
  96.8938410  41.9013220  37.2965710 106.9231760  41.4171970  43.4274340
 107.6430880  41.9127260  43.0370450 106.7213580  40.7389860  42.7828210
 102.3841700  32.8109930  37.5703730 101.5706310  32.3123100  37.4949040
 102.1903650  33.6508180  37.1540080 102.3050560  41.4881030  49.3143340
 102.2387870  40.5676700  49.0600930 101.6755700  41.5856470  50.0287980
 105.0990090  37.1829580  35.8665890 105.9869710  37.4946810  35.6917230
 105.0695180  36.3101830  35.4746470  96.2081180  42.0886990  41.2726760
  96.7259850  41.2855250  41.2183650  95.7565200  42.0266130  42.1143590
 101.0950680  43.3553270  36.5454060 101.4366380  44.0995500  36.0497380
 100.2663390  43.6684390  36.9078890  93.6925720  39.0548360  48.1852460
  93.3340660  39.7202210  48.7725800  93.3980280  38.2231910  48.5565080
  96.8938840  39.5132600  51.0692010  96.5938980  39.6589780  50.1719830
  97.6650080  38.9537890  50.9765400 102.2367290  44.3101600  49.0647140
 102.2511830  43.3782560  48.8466050 101.5292390  44.3961360  49.7036910
 107.3704360  38.4941420  35.3345750 107.2868080  38.9255640  34.4842190
 108.0898550  38.9539770  35.7672570 108.4478500  40.9508940  48.4115720
 107.7226690  41.5437720  48.2145110 108.9753960  40.9432480  47.6129090
 108.3991610  45.3483680  38.0627880 107.7567770  44.6939300  38.3371600
 108.0122270  45.7538770  37.2868550 103.9778090  42.6769110  41.9099570
 104.3301910  42.0797240  41.2500940 103.0940420  42.3513340  42.0807820
 100.0641370  43.4366800  39.3169980 100.7512500  43.9836010  39.6977570
  99.2773790  43.9807530  39.3519590  92.2033770  39.0539620  34.8087060
  93.0728620  39.3364420  35.0922980  91.7124090  39.8675490  34.6935870
  99.3668580  40.4412830  38.9295340  99.8231360  41.2518080  39.1555530
  99.0156790  40.1235970  39.7613830 101.6701190  45.9519170  46.1587640
 102.3143410  46.1578550  46.8361060 102.0330630  45.1907570  45.7058490
  95.2680360  30.7850480  39.4017860  95.1394990  30.7768380  40.3502780
  94.4442380  31.1233570  39.0508870 102.9433270  43.9551520  44.8765090
 103.5855500  43.2544680  44.9897260 103.4682620  44.7349960  44.6961980
 106.7888990  44.2400140  34.6004230 106.5626570  43.5230580  35.1928870
 106.3985190  43.9912580  33.7625980 104.7170890  44.7546420  48.0801150
 105.0527130  45.3413110  48.7579070 103.7971230  44.6239130  48.3098940
  92.5705020  48.2667000  35.3748690  92.9302660  48.8656340  34.7205960
  92.4297360  48.8126890  36.1483720  92.2674290  32.5441600  48.8624560
  91.5532810  32.7438520  49.4677170  92.6869330  31.7681170  49.2339360
 106.3705240  42.1572080  36.2618390 106.0826940  42.6184770  37.0496270
 107.1657410  41.6969850  36.5302610  92.5546880  46.5321860  49.8491090
  92.6638000  45.5916600  49.7086480  91.9027440  46.7976610  49.2004820
 100.5459470  44.8037750  51.2489210 100.2256340  44.0846990  51.7934900
  99.8717830  45.4792820  51.3225270  98.5873640  45.6498200  36.1922360
  98.5783740  46.3827890  35.5766870  97.6672000  45.4029780  36.2849320
  94.1880280  40.8713090  36.9369120  93.5808230  41.6111990  36.9464420
  94.6629630  40.9612450  36.1107320 103.7613070  35.0363910  46.6126010
 104.1293890  34.2159120  46.9405580 102.9011270  35.0965800  47.0281660
 107.1275100  33.9920850  37.4213570 106.4988260  34.0966520  36.7071800
 106.6327020  34.2117630  38.2107450 101.5733240  45.7126440  34.8547550
 101.6745220  45.5090430  33.9249530 100.6734980  45.4584720  35.0595330
  99.0959130  36.2706800  38.8371450  98.3875280  36.7393140  39.2785060
  99.3803610  35.6128810  39.4716640 100.7215060  37.6903500  46.8363980
 101.2200310  38.1649320  47.5015830 100.8638010  36.7667020  47.0434010
 103.1274560  32.9957460  40.2767240 103.0042340  33.0143590  39.3276750
 104.0759120  33.0436400  40.3965640 100.2151350  48.2312760  39.5495220
 100.4692850  48.1934150  38.6274590  99.2663830  48.1046090  39.5423470
  97.2994150  34.5791880  36.2122160  98.1484680  35.0162030  36.1462350
  96.9325420  34.8912140  37.0394220 107.9281920  33.9071460  47.6792370
 107.4255520  34.6476860  48.0186180 108.7438580  34.2955460  47.3629160
 106.2203930  39.1504640  41.1253730 105.2794070  39.1654870  41.3001420
 106.5348000  38.3640600  41.5714030  96.1985570  40.8324240  34.6857690
  96.9648840  40.7205600  35.2483120  96.2760260  40.1362210  34.0334460
  94.8932330  38.2649310  35.3690580  94.9735920  37.3176820  35.4807980
  95.7852080  38.5956190  35.4751240 108.2229510  46.3213490  42.8007990
 108.3476930  47.1444660  43.2731800 109.0895070  46.1104220  42.4532140
  95.6947040  48.4144700  42.4725120  96.4309520  47.8660160  42.7433690
  96.0787960  49.2800710  42.3331110  92.5792520  44.4818270  38.3466630
  91.6532300  44.7239410  38.3372040  93.0448950  45.3092530  38.2251380
  94.7005320  47.5990770  51.6610700  95.5018050  47.9202820  52.0746100
  94.1857140  47.2386350  52.3830610  98.8049350  47.5875010  34.2950690
  99.5977960  47.8763840  33.8432480  98.2853700  47.1567180  33.6163170
 103.5369950  43.7070640  51.6086110 102.9308110  43.7302240  50.8681860
 103.2324060  42.9753680  52.1453360 104.9670320  47.4350930  50.2195520
 105.9192070  47.3508950  50.1695760 104.8198540  48.0992640  50.8929310
 107.8579520  46.8145140  35.7187430 107.5721030  46.4010280  34.9041610
 107.6599070  47.7432850  35.5987950  92.4203130  40.0864230  50.6046750
  92.9242150  39.5071510  51.1762980  91.6810550  40.3704460  51.1423120
  99.3226750  42.8078420  34.1593040  99.2177390  42.1930770  34.8854420
  99.1550970  42.2844310  33.3756050  99.4741070  41.4935220  50.1382270
  98.7086740  42.0620220  50.0536940  99.6557030  41.2011430  49.2450500
 102.5629480  41.8698450  34.7635030 102.0139580  42.3167750  35.4077770
 103.1848740  41.3647700  35.2872700 106.6164420  43.2240550  50.6957290
 107.3573890  43.5616310  50.1924750 105.8537100  43.3932610  50.1427060
  94.4526210  38.2293820  51.4996820  94.4931550  37.9307690  52.4082050
  95.3071710  38.6301430  51.3404340  98.2304600  40.8289370  36.6600330
  98.6521020  40.6629240  37.5031720  98.3555440  40.0189600  36.1655470
  96.3932020  36.8085920  49.4671310  95.8628480  36.3176870  48.8394650
  97.0620090  37.2370120  48.9329240 100.7432240  39.8526980  33.9077430
 101.2637900  39.1376000  33.5418580 101.3900640  40.4912850  34.2077940
 105.2910080  41.2755380  49.2312500 105.7051100  41.4300460  50.0802920
 104.3561080  41.4010600  49.3938280 105.7632250  38.6151540  51.2351650
 106.3453020  37.8603860  51.1472130 105.9394020  39.1458980  50.4583130
  96.8804320  33.7748290  49.5468600  96.7861190  33.1569040  48.8219470
  96.3001710  34.5014580  49.3198510  99.6465760  32.3321530  46.5795990
  99.1983060  32.3545790  45.7341540  99.0130960  31.9340550  47.1766290
 100.0525310  41.2275860  47.2008430 100.4713420  42.0708590  47.0284670
  99.1333940  41.3647900  46.9715210 102.3889210  38.9592040  48.5846270
 102.5085420  38.3633180  49.3241110 103.2483210  38.9961730  48.1647570
 104.7277110  39.5129230  47.1608780 104.2012330  40.0371850  46.5573920
 105.0708450  40.1456620  47.7918510  97.1263500  36.9022600  33.6058490
  96.9252560  36.0389960  33.9671830  96.9555550  36.8155960  32.6680090
  97.9032730  47.5328870  48.3166160  97.3653820  48.2574930  47.9974860
  98.1566690  47.0559210  47.5263500  99.1557980  35.5013390  49.8422090
  99.7457670  35.1929240  50.5299910  98.3378220  35.0293140  49.9981990
 103.9751410  35.1179200  50.0755110 103.2866930  34.4560740  50.0105100
 104.6957430  34.6717470  50.5203570 104.6051810  31.7130830  36.1345370
 104.8854100  30.8698730  36.4904790 103.8317540  31.9453940  36.6484120
  95.9246300  34.0023220  33.5936370  96.2272200  34.0090650  32.6855520
  96.6640890  33.6521080  34.0904030 100.7594940  48.7680080  48.5752810
 100.6853640  49.6715220  48.8825180  99.8573780  48.4491980  48.5474880
  99.1431230  32.9457840  34.5792570  98.7953230  32.2681830  33.9995020
  99.3444000  32.4847350  35.3935960 101.3080270  47.9338590  36.1979170
 102.2031060  48.2723560  36.2197930 101.3397900  47.2118000  35.5703450
  94.9476430  43.3065640  34.4266170  95.3851300  43.8495310  35.0823750
  95.4324160  42.4812590  34.4362510  92.1622230  46.0954670  41.8786430
  92.4925240  45.2275730  41.6465070  92.5913230  46.3013190  42.7091390
  96.7584150  44.4263680  39.5388400  96.4579690  44.3028650  40.4392310
  96.6521640  43.5672270  39.1304130  92.6512440  46.9625260  44.6168060
  92.2143430  47.1426060  45.4492210  93.2190120  47.7199880  44.4749780
 108.2874620  46.4642260  48.9045370 107.6876610  46.5234820  48.1609290
 108.4168520  45.5247240  49.0342220 109.5276070  44.2060080  34.2415080
 108.6969030  44.2736730  34.7122310 109.7047900  45.0964200  33.9381940
 108.9832530  40.9507560  36.7449280 109.7451440  41.5204210  36.8508970
 108.9986900  40.3834760  37.5157590  92.4836870  39.4745490  40.9756940
  91.8285710  39.2057130  40.3316640  93.3214820  39.3649970  40.5258920
 109.9892500  41.8057660  41.5891210 110.3601330  41.0224980  41.1827180
 110.6294430  42.4946760  41.4108510 106.9726260  43.1894240  47.0021530
 106.1586100  43.6191400  47.2647320 107.3800460  43.8012650  46.3890580
 109.0351700  41.2441930  33.9021800 109.3100540  42.1520810  33.7741020
 108.8462440  41.1804460  34.8383790 105.4327310  34.2686780  35.1975430
 105.8512190  34.0817760  34.3572090 105.1263370  33.4165830  35.5078360
 108.9317040  39.1810920  38.8951230 108.5560640  38.4138850  38.4632520
 108.2020160  39.5633620  39.3826160  93.5212800  39.8598060  45.5160280
  93.8885840  39.7725460  46.3956300  92.9523620  39.0964610  45.4167140
 108.3216660  38.3282440  48.5290750 108.0902750  38.0995190  47.6288700
 108.5821210  39.2481990  48.4835640  93.0728800  36.7707150  49.4218700
  92.1784850  36.7373910  49.7612410  93.6126350  36.9693940  50.1869950
 106.7604730  33.5538870  51.3070450 107.6374910  33.5622270  51.6904450
 106.7725570  32.8169710  50.6962800  91.6974950  36.6844420  36.9182270
  90.7939030  36.9474620  36.7433930  92.1815570  36.9555590  36.1382230
 108.2068000  37.4068410  42.1958470 108.7305480  36.9131060  41.5648640
 108.7927420  37.5418770  42.9406040 108.3857720  37.4908280  45.7178020
 107.4360430  37.4571820  45.8323010 108.5670730  38.4008390  45.4827790
  94.2402160  35.7409960  34.8276650  94.9493860  35.3193180  34.3423930
  93.5242100  35.8085190  34.1960000  93.8876320  31.7949290  33.8679300
  94.6104450  32.3358230  34.1860520  94.1600840  31.5212710  32.9920840
 107.6967970  36.6641760  38.1350880 108.1927090  36.4312630  38.9199760
 107.4984040  35.8253600  37.7188520  93.5768510  31.0455480  43.7701920
  94.2244700  30.4952860  43.3297080  93.9970350  31.2998630  44.5917730
 109.1255130  35.3002710  40.6688560 109.0154410  35.1458750  41.6070830
 109.8862720  34.7723650  40.4263970 107.4720850  31.2396840  47.1271560
 108.1093070  31.8530980  47.4930750 107.6195740  31.2757500  46.1820790
 110.0145400  33.1310630  33.9094700 110.9394710  32.9991810  33.7012990
 109.9921190  33.2103450  34.8631150 110.0883890  33.9021290  36.5351410
 109.2935390  33.8366410  37.0644320 110.2927170  34.8371930  36.5236760
 107.0302310  47.9412840  40.5289800 107.6261380  47.6197410  39.8524220
 107.2880460  47.4684660  41.3203070  93.3300510  31.2011150  46.5127240
  92.9815330  31.6574970  47.2785420  92.9988210  30.3068280  46.5949670
  94.9364880  44.3730750  50.6780430  94.8934510  44.0023660  51.5594890
  95.0675890  45.3108320  50.8182250  98.6370910  45.9290340  46.2790150
  98.3962270  46.1964900  45.3920670  99.5773550  46.0996070  46.3341010
 100.8425330  32.3923030  50.0346660 100.7814220  32.9844860  50.7842070
 101.7825710  32.2848990  49.8896920 103.4799890  32.0493090  49.6738950
 104.0940300  32.3672380  49.0120030 104.0249450  31.5641680  50.2934810
 109.8975070  47.9484720  47.0800790 109.4033350  48.3453590  46.3627920
 109.2888360  47.3233930  47.4738070  94.0021150  30.7287350  49.7878010
  94.5504140  30.5475400  49.0244120  94.0676460  29.9381460  50.3234320
  94.7752910  47.3193000  47.7978210  94.1813230  47.1877700  48.5368250
  94.7676750  46.4831140  47.3320310 104.2207930  30.6125230  46.0008240
 103.3467770  30.9460340  45.7981170 104.1118680  30.1398410  46.8260110
 105.1279910  32.8196100  47.3849960 104.7993270  32.0047860  47.0051690
 106.0762210  32.7765910  47.2615650 107.5814520  48.5908140  44.3587530
 107.1217490  49.3423950  43.9845550 106.9526980  47.8714610  44.3002330
  94.4065140  44.6851380  46.7486250  93.6799200  44.0656670  46.6812200
  94.4674290  45.0791990  45.8784330  98.0110240  46.8996380  43.5335660
  98.5275260  46.2883740  43.0083920  98.6607620  47.4025160  44.0246670
 100.7505740  47.7904870  44.3604640 101.0383550  47.5359170  43.4837650
 101.2628960  47.2382230  44.9510210 101.9682750  31.5295070  44.9401150
 101.1854540  32.0040570  45.2197910 101.6745680  30.6249900  44.8314330
 106.5203820  32.2318170  42.9850240 106.9611910  32.1763270  42.1371840
 106.2511410  33.1476180  43.0560420 108.3842390  31.8633410  40.9959060
 108.3230790  30.9194630  40.8490080 109.1634420  31.9713500  41.5412520
  92.6895140  48.0025770  39.9583010  92.5217180  47.3696450  40.6564900
  91.8229650  48.2085170  39.6077200  93.3123160  31.8342550  37.4614870
  94.0702520  31.9471430  36.8878900  92.8500330  32.6711750  37.4158300
  99.8536970  33.9481820  40.4517180  99.0411480  33.5738710  40.1113060
 100.3578610  33.1926900  40.7538370 104.3561950  30.6124270  41.6900250
 104.9591320  31.1844480  42.1648770 103.6154940  31.1763710  41.4674150
 107.4996550  31.0145830  36.9640530 107.6947180  31.9129280  37.2307960
 106.7126420  30.7832910  37.4573480  94.2957840  46.6959000  37.4033150
  93.7705460  47.0767030  36.6995110  94.2202420  47.3209770  38.1242860
  95.6848310  32.3606600  36.0016840  96.2141070  31.5736400  35.8724790
  96.3176630  33.0397790  36.2352370  97.8786150  32.0981740  39.0562230
  97.2488890  31.3969050  39.2232360  97.3391290  32.8585870  38.8395390
 100.8178100  48.7120970  51.7272840 101.7445410  48.4765240  51.7708800
 100.8028530  49.5392970  51.2458870 109.0523160  48.2546540  38.7247090
 109.2275350  47.5684280  38.0808010 108.3544730  48.7793590  38.3323760
  98.0041710  31.3765720  51.4914720  97.7225980  31.8799320  50.7275540
  98.3861410  30.5787470  51.1256850  96.8950810  48.6441380  36.2782400
  97.6269630  48.3600660  35.7306290  97.1544480  48.4054660  37.1681780
  96.0565600  44.7606110  36.2828730  95.4274480  45.2291210  36.8314560
  96.1713430  43.9155330  36.7174920 104.6057170  30.7919300  52.0695190
 104.4922620  31.1113910  52.9646710 105.4226910  31.1931810  51.7732470
 107.3855660  47.9390830  51.5513880 108.1780980  47.4440060  51.3439840
 107.6788810  48.6180970  52.1589490 103.5115320  38.8111770  22.4329930
 103.4309370  37.8966380  22.1621640 103.0979740  39.3078840  21.7269640
 101.6433360  40.5890790  24.3139200 100.8675460  40.1091230  24.6037770
 102.2946290  39.9096440  24.1395360  95.6599190  40.9010600  25.1914960
  94.8284070  40.6459310  25.5911470  96.2680170  40.9721370  25.9272880
 105.6640790  44.9950980  23.0938330 105.2022320  44.2238220  23.4225500
 106.4766340  45.0217050  23.5990780  95.6400450  44.9350690  25.3872980
  95.9428490  44.0448430  25.2083200  96.3844040  45.4920910  25.1595230
  94.0691140  35.8612490  18.9757350  93.1807840  36.2028460  18.8737230
  94.3532330  35.6612810  18.0838180  92.0324150  38.4618140  24.8597050
  92.6040260  37.6940340  24.8600690  92.0325690  38.7606900  23.9503660
 101.8904100  47.2808990  22.7142320 101.2715540  47.7366490  22.1436760
 102.7455880  47.4360450  22.3132020 101.0842350  43.2647980  24.3209360
 101.0150630  42.3237920  24.1598490 101.8462210  43.3549390  24.8931930
  93.2749020  33.8702500  26.6465980  93.0951860  32.9728250  26.9268740
  92.8729100  34.4174370  27.3212930 102.1147520  36.0718360  24.5478290
 102.4912340  35.1990240  24.4351960 102.0167030  36.4077060  23.6568730
  96.2452530  34.4443990  20.0095730  96.3519280  35.3447720  20.3164490
  95.3344890  34.3961960  19.7190380 105.8971640  33.5668800  21.4806630
 106.7181260  33.0765370  21.5232110 105.9305720  34.1566460  22.2338470
  93.8935690  36.3663000  25.2548320  94.5745800  36.6301370  25.8735720
  93.5783740  35.5263870  25.5886330  98.0860260  37.4130360  24.3420910
  98.5938480  37.9111330  24.9825930  98.6173500  36.6365560  24.1660270
 110.1871190  35.5835550  28.0450260 109.4823360  35.9717260  27.5265370
 110.4529110  36.2785840  28.6471190  96.3696360  32.0528920  28.6084330
  96.3714800  32.5701310  27.8030230  95.5400670  31.5759100  28.5854260
 102.7567450  42.1648230  20.1074230 102.1384720  42.6297680  19.5436950
 103.2690700  42.8575710  20.5243740  97.6199210  41.6924100  26.7857830
  97.2868590  42.3193020  27.4278900  97.7965890  42.2185980  26.0059500
 106.1333120  35.5069180  24.2534170 105.4288690  35.7954070  24.8337280
 106.4945280  36.3169290  23.8933730  96.0511690  33.7638880  26.6154780
  96.3928500  34.6080930  26.3208650  95.1127500  33.9122620  26.7320120
  96.8318310  43.6604900  28.6007010  97.4492310  44.3355980  28.3191460
  95.9711430  44.0692880  28.5094510  92.1250650  42.8504760  17.4813860
  91.7478630  43.3391860  16.7498760  92.3823720  43.5230040  18.1120390
 107.7495900  45.1244310  26.5161650 107.0659420  45.7943420  26.5078320
 108.2890190  45.3224960  25.7506510 109.2020040  34.9523970  24.6443380
 108.2544950  34.9862950  24.7758810 109.5270030  35.7662920  25.0292740
  99.7339580  31.2521150  22.9399370 100.0414560  30.6968040  22.2234870
  98.8040280  31.3865610  22.7572360 105.2854640  46.9688440  25.2306830
 105.2981800  46.5650730  24.3629090 104.7329860  47.7435730  25.1268260
 106.5800060  43.6904660  20.3197000 106.4696390  42.7478990  20.4446420
 106.5768310  44.0520300  21.2059760 104.6840080  41.8718280  26.5589440
 105.1008870  41.6578390  25.7242900 105.4079900  42.1291070  27.1298060
 102.1220340  39.3169980  19.6759490 101.1949620  39.2507360  19.9047960
 102.2745160  40.2550110  19.5614730 102.1089420  35.5886980  16.6726650
 101.1693090  35.7500940  16.7579110 102.4272680  36.3072660  16.1262640
 108.6302180  40.2705500  26.6505680 107.8020810  40.3398590  26.1755810
 109.2252660  40.8559810  26.1821510 106.1517630  40.8790280  20.1794740
 105.5330050  40.5409830  19.5321040 106.1342080  40.2350040  20.8873930
 105.5944190  37.0574820  27.5960550 105.1815370  37.8828530  27.8500540
 104.8620140  36.4719860  27.4036910  97.7276980  39.8434720  22.4579220
  97.3233980  39.1311970  21.9625120  97.8140100  39.4987960  23.3467260
  98.1958680  43.5302280  24.6218430  97.8986970  42.9247750  23.9426210
  99.1458500  43.5679590  24.5107790  96.4405600  36.6177930  26.2378260
  96.9920190  36.7273270  25.4631510  96.9549110  36.9915530  26.9533490
 106.2844290  47.1034150  28.2841530 105.8074850  47.9106340  28.0914140
 105.6006080  46.4512480  28.4367740  97.2877110  43.2683970  31.2726230
  96.3905640  43.4923940  31.5199630  97.3129980  43.3918910  30.3237630
 104.3282330  40.1177090  17.1867490 104.7675610  39.2799520  17.0405310
 105.0410750  40.7506490  17.2731630  96.1148330  40.1397290  29.8483600
  95.9756100  41.0120090  30.2171000  95.2329690  39.7970100  29.7031540
 102.4377710  45.0573160  21.1548730 102.8773620  45.7997490  20.7404120
 102.3764600  45.2999730  22.0787690  97.9128680  46.0818990  32.0568750
  97.8844110  46.4861940  31.1897180  97.7493650  45.1529350  31.8940350
 107.9099470  31.3719900  15.5008530 107.5972130  31.4646730  16.4007600
 108.6711940  31.9500930  15.4505960  94.4281610  38.7379700  19.9585870
  94.3079210  39.4641790  19.3467140  94.1182500  37.9682610  19.4813780
 109.8643500  46.8646090  33.3532920 110.3403220  47.3428980  34.0322000
 110.4850660  46.7963580  32.6278420  92.0666980  41.9094840  25.7654510
  92.1447400  42.0443610  24.8210230  92.6808660  41.2010730  25.9582630
  93.3114610  43.6095030  22.1760690  92.9042690  43.7509620  21.3214290
  94.2027620  43.3255190  21.9731900 109.2676750  44.0558940  30.5132930
 109.3939810  43.8170820  29.5950110 109.3098130  43.2243480  30.9855010
 103.1293490  47.7586940  29.0827740 103.6438160  47.6694950  29.8850170
 102.2862570  48.1046640  29.3755650 105.1047890  48.0442280  18.5111740
 104.9449030  47.7545220  19.4093570 104.9394600  47.2682410  17.9756970
  97.5836270  47.8240810  20.2883360  97.4078750  46.9076350  20.0751160
  96.7292010  48.1828100  20.5281160 104.8074020  45.5529840  17.0709740
 104.1139180  45.5507130  16.4112020 105.5496880  45.1289160  16.6403910
 104.3723950  47.1792550  21.1458230 104.8280900  46.3981930  21.4596850
 104.7116470  47.8899370  21.6899410 109.1200760  36.1091400  31.4782670
 108.5045030  36.6171070  30.9498130 108.7997180  35.2089730  31.4208610
  92.1226500  42.9509010  28.3048970  92.2857540  42.4814370  27.4868340
  92.5878950  42.4432570  28.9697810  96.8945270  32.0814770  23.3409540
  96.4513420  32.8624310  23.0094060  97.4530260  32.4044660  24.0480480
 101.1815080  34.9483290  28.9444860 100.7194450  35.1566310  29.7564800
 100.7793190  34.1342640  28.6415530 106.1819590  36.1692240  30.0741520
 105.3313180  35.8697990  30.3950590 106.0221380  36.4134250  29.1625340
 103.2769300  37.6693990  32.1740310 103.6022710  36.8357740  31.8342540
 104.0649630  38.1922510  32.3218640 100.0104090  31.7025470  18.2215370
  99.3858270  31.6985340  18.9468680  99.9234210  30.8356430  17.8251340
  98.9321170  32.6262100  25.1999140  99.2293500  33.5324930  25.1191160
  99.4806730  32.1380880  24.5858710  96.6859490  37.2048340  21.0690790
  96.4600410  36.9885510  21.9737410  95.9052020  37.6376800  20.7236760
 103.9157250  37.2111710  19.6681440 103.3166140  37.9347510  19.4845060
 104.4636860  37.1488490  18.8857890  99.1258700  38.1033920  31.7351060
  99.0302300  37.1628650  31.5851460  99.9690680  38.3248990  31.3399130
 102.5222120  35.8475250  21.6984720 102.9151690  36.1647450  20.8853410
 102.8838970  34.9687130  21.8129240  94.2569240  34.5147590  29.8884840
  93.8632630  35.3622800  30.0957620  93.5687640  33.8773960  30.0793480
 100.8314290  34.5982560  32.9581580 100.1412610  34.4054760  33.5927670
 101.5746590  34.8817200  33.4905880  91.5586290  32.4376050  23.9214920
  91.2699340  33.0078910  24.6339900  92.3032050  31.9580500  24.2846150
  91.7456520  36.3796170  15.1317640  91.6631190  37.3226930  15.2732630
  91.3939580  36.2371080  14.2529990 103.1077260  38.4381000  25.7935500
 102.3758380  38.9467810  26.1425600 102.7101600  37.6210980  25.4924280
  99.5454650  35.1135200  24.1987990  99.5490710  34.6725150  23.3492530
 100.4405770  35.4352530  24.3059810  95.3957030  34.9961690  23.1582200
  95.0557080  35.4736920  23.9149250  94.6334350  34.5426810  22.7983300
  99.6074800  36.1147280  17.1894750  99.7287620  36.0733760  18.1380570
  99.2223310  36.9771430  17.0341480 103.5703170  33.8914680  25.2058440
 103.5875910  34.3423330  26.0500290 103.3218750  32.9920320  25.4191880
  98.6196300  38.4248420  16.5878050  98.0513200  37.9766670  15.9613960
  99.3285300  38.7841200  16.0543200 106.9973920  31.3046860  31.0444820
 107.3219690  30.5736520  31.5702800 107.0330430  30.9860500  30.1425810
  93.6965480  42.3260440  30.4644780  93.3120270  41.6854110  31.0627740
  94.0077670  43.0296560  31.0339510  99.8462620  39.1736980  25.9453400
 100.2132750  38.6995550  26.6914740  99.6567680  40.0478550  26.2861740
  92.7103110  33.9180670  22.0746870  92.4250030  33.5536340  22.9125490
  92.6481970  33.1861130  21.4610010  97.6361990  38.2145620  28.2637610
  97.3319060  39.0937600  28.4887970  98.5908450  38.2745410  28.2995050
  96.1643780  42.4206610  18.8604460  95.3906040  41.8804230  18.7003180
  96.8938410  41.9013220  18.5222220 106.9231760  41.4171970  24.6530850
 107.6430880  41.9127260  24.2626960 106.7213580  40.7389860  24.0084720
 102.3841700  32.8109930  18.7960240 101.5706310  32.3123100  18.7205550
 102.1903650  33.6508180  18.3796590 102.3050560  41.4881030  30.5399850
 102.2387870  40.5676700  30.2857440 101.6755700  41.5856470  31.2544490
 105.0990090  37.1829580  17.0922400 105.9869710  37.4946810  16.9173740
 105.0695180  36.3101830  16.7002980  96.2081180  42.0886990  22.4983270
  96.7259850  41.2855250  22.4440160  95.7565200  42.0266130  23.3400100
 101.0950680  43.3553270  17.7710570 101.4366380  44.0995500  17.2753890
 100.2663390  43.6684390  18.1335400  93.6925720  39.0548360  29.4108970
  93.3340660  39.7202210  29.9982310  93.3980280  38.2231910  29.7821590
  96.8938840  39.5132600  32.2948520  96.5938980  39.6589780  31.3976340
  97.6650080  38.9537890  32.2021910 102.2367290  44.3101600  30.2903650
 102.2511830  43.3782560  30.0722560 101.5292390  44.3961360  30.9293420
 107.3704360  38.4941420  16.5602260 107.2868080  38.9255640  15.7098700
 108.0898550  38.9539770  16.9929080 108.4478500  40.9508940  29.6372230
 107.7226690  41.5437720  29.4401620 108.9753960  40.9432480  28.8385600
 108.3991610  45.3483680  19.2884390 107.7567770  44.6939300  19.5628110
 108.0122270  45.7538770  18.5125060 103.9778090  42.6769110  23.1356080
 104.3301910  42.0797240  22.4757450 103.0940420  42.3513340  23.3064330
 100.0641370  43.4366800  20.5426490 100.7512500  43.9836010  20.9234080
  99.2773790  43.9807530  20.5776100  92.2033770  39.0539620  16.0343570
  93.0728620  39.3364420  16.3179490  91.7124090  39.8675490  15.9192380
  99.3668580  40.4412830  20.1551850  99.8231360  41.2518080  20.3812040
  99.0156790  40.1235970  20.9870340 101.6701190  45.9519170  27.3844150
 102.3143410  46.1578550  28.0617570 102.0330630  45.1907570  26.9315000
  95.2680360  30.7850480  20.6274370  95.1394990  30.7768380  21.5759290
  94.4442380  31.1233570  20.2765380 102.9433270  43.9551520  26.1021600
 103.5855500  43.2544680  26.2153770 103.4682620  44.7349960  25.9218490
 106.7888990  44.2400140  15.8260740 106.5626570  43.5230580  16.4185380
 106.3985190  43.9912580  14.9882490 104.7170890  44.7546420  29.3057660
 105.0527130  45.3413110  29.9835580 103.7971230  44.6239130  29.5355450
  92.5705020  48.2667000  16.6005200  92.9302660  48.8656340  15.9462470
  92.4297360  48.8126890  17.3740230  92.2674290  32.5441600  30.0881070
  91.5532810  32.7438520  30.6933680  92.6869330  31.7681170  30.4595870
 106.3705240  42.1572080  17.4874900 106.0826940  42.6184770  18.2752780
 107.1657410  41.6969850  17.7559120  92.5546880  46.5321860  31.0747600
  92.6638000  45.5916600  30.9342990  91.9027440  46.7976610  30.4261330
 100.5459470  44.8037750  32.4745720 100.2256340  44.0846990  33.0191410
  99.8717830  45.4792820  32.5481780  98.5873640  45.6498200  17.4178870
  98.5783740  46.3827890  16.8023380  97.6672000  45.4029780  17.5105830
  94.1880280  40.8713090  18.1625630  93.5808230  41.6111990  18.1720930
  94.6629630  40.9612450  17.3363830 103.7613070  35.0363910  27.8382520
 104.1293890  34.2159120  28.1662090 102.9011270  35.0965800  28.2538170
 107.1275100  33.9920850  18.6470080 106.4988260  34.0966520  17.9328310
 106.6327020  34.2117630  19.4363960 101.5733240  45.7126440  16.0804060
 101.6745220  45.5090430  15.1506040 100.6734980  45.4584720  16.2851840
  99.0959130  36.2706800  20.0627960  98.3875280  36.7393140  20.5041570
  99.3803610  35.6128810  20.6973150 100.7215060  37.6903500  28.0620490
 101.2200310  38.1649320  28.7272340 100.8638010  36.7667020  28.2690520
 103.1274560  32.9957460  21.5023750 103.0042340  33.0143590  20.5533260
 104.0759120  33.0436400  21.6222150 100.2151350  48.2312760  20.7751730
 100.4692850  48.1934150  19.8531100  99.2663830  48.1046090  20.7679980
  97.2994150  34.5791880  17.4378670  98.1484680  35.0162030  17.3718860
  96.9325420  34.8912140  18.2650730 107.9281920  33.9071460  28.9048880
 107.4255520  34.6476860  29.2442690 108.7438580  34.2955460  28.5885670
 106.2203930  39.1504640  22.3510240 105.2794070  39.1654870  22.5257930
 106.5348000  38.3640600  22.7970540  96.1985570  40.8324240  15.9114200
  96.9648840  40.7205600  16.4739630  96.2760260  40.1362210  15.2590970
  94.8932330  38.2649310  16.5947090  94.9735920  37.3176820  16.7064490
  95.7852080  38.5956190  16.7007750 108.2229510  46.3213490  24.0264500
 108.3476930  47.1444660  24.4988310 109.0895070  46.1104220  23.6788650
  95.6947040  48.4144700  23.6981630  96.4309520  47.8660160  23.9690200
  96.0787960  49.2800710  23.5587620  92.5792520  44.4818270  19.5723140
  91.6532300  44.7239410  19.5628550  93.0448950  45.3092530  19.4507890
  94.7005320  47.5990770  32.8867210  95.5018050  47.9202820  33.3002610
  94.1857140  47.2386350  33.6087120  98.8049350  47.5875010  15.5207200
  99.5977960  47.8763840  15.0688990  98.2853700  47.1567180  14.8419680
 103.5369950  43.7070640  32.8342620 102.9308110  43.7302240  32.0938370
 103.2324060  42.9753680  33.3709870 104.9670320  47.4350930  31.4452030
 105.9192070  47.3508950  31.3952270 104.8198540  48.0992640  32.1185820
 107.8579520  46.8145140  16.9443940 107.5721030  46.4010280  16.1298120
 107.6599070  47.7432850  16.8244460  92.4203130  40.0864230  31.8303260
  92.9242150  39.5071510  32.4019490  91.6810550  40.3704460  32.3679630
  99.3226750  42.8078420  15.3849550  99.2177390  42.1930770  16.1110930
  99.1550970  42.2844310  14.6012560  99.4741070  41.4935220  31.3638780
  98.7086740  42.0620220  31.2793450  99.6557030  41.2011430  30.4707010
 102.5629480  41.8698450  15.9891540 102.0139580  42.3167750  16.6334280
 103.1848740  41.3647700  16.5129210 106.6164420  43.2240550  31.9213800
 107.3573890  43.5616310  31.4181260 105.8537100  43.3932610  31.3683570
  94.4526210  38.2293820  32.7253330  94.4931550  37.9307690  33.6338560
  95.3071710  38.6301430  32.5660850  98.2304600  40.8289370  17.8856840
  98.6521020  40.6629240  18.7288230  98.3555440  40.0189600  17.3911980
  96.3932020  36.8085920  30.6927820  95.8628480  36.3176870  30.0651160
  97.0620090  37.2370120  30.1585750 100.7432240  39.8526980  15.1333940
 101.2637900  39.1376000  14.7675090 101.3900640  40.4912850  15.4334450
 105.2910080  41.2755380  30.4569010 105.7051100  41.4300460  31.3059430
 104.3561080  41.4010600  30.6194790 105.7632250  38.6151540  32.4608160
 106.3453020  37.8603860  32.3728640 105.9394020  39.1458980  31.6839640
  96.8804320  33.7748290  30.7725110  96.7861190  33.1569040  30.0475980
  96.3001710  34.5014580  30.5455020  99.6465760  32.3321530  27.8052500
  99.1983060  32.3545790  26.9598050  99.0130960  31.9340550  28.4022800
 100.0525310  41.2275860  28.4264940 100.4713420  42.0708590  28.2541180
  99.1333940  41.3647900  28.1971720 102.3889210  38.9592040  29.8102780
 102.5085420  38.3633180  30.5497620 103.2483210  38.9961730  29.3904080
 104.7277110  39.5129230  28.3865290 104.2012330  40.0371850  27.7830430
 105.0708450  40.1456620  29.0175020  97.1263500  36.9022600  14.8315000
  96.9252560  36.0389960  15.1928340  96.9555550  36.8155960  13.8936600
  97.9032730  47.5328870  29.5422670  97.3653820  48.2574930  29.2231370
  98.1566690  47.0559210  28.7520010  99.1557980  35.5013390  31.0678600
  99.7457670  35.1929240  31.7556420  98.3378220  35.0293140  31.2238500
 103.9751410  35.1179200  31.3011620 103.2866930  34.4560740  31.2361610
 104.6957430  34.6717470  31.7460080 104.6051810  31.7130830  17.3601880
 104.8854100  30.8698730  17.7161300 103.8317540  31.9453940  17.8740630
  95.9246300  34.0023220  14.8192880  96.2272200  34.0090650  13.9112030
  96.6640890  33.6521080  15.3160540 100.7594940  48.7680080  29.8009320
 100.6853640  49.6715220  30.1081690  99.8573780  48.4491980  29.7731390
  99.1431230  32.9457840  15.8049080  98.7953230  32.2681830  15.2251530
  99.3444000  32.4847350  16.6192470 101.3080270  47.9338590  17.4235680
 102.2031060  48.2723560  17.4454440 101.3397900  47.2118000  16.7959960
  94.9476430  43.3065640  15.6522680  95.3851300  43.8495310  16.3080260
  95.4324160  42.4812590  15.6619020  92.1622230  46.0954670  23.1042940
  92.4925240  45.2275730  22.8721580  92.5913230  46.3013190  23.9347900
  96.7584150  44.4263680  20.7644910  96.4579690  44.3028650  21.6648820
  96.6521640  43.5672270  20.3560640  92.6512440  46.9625260  25.8424570
  92.2143430  47.1426060  26.6748720  93.2190120  47.7199880  25.7006290
 108.2874620  46.4642260  30.1301880 107.6876610  46.5234820  29.3865800
 108.4168520  45.5247240  30.2598730 109.5276070  44.2060080  15.4671590
 108.6969030  44.2736730  15.9378820 109.7047900  45.0964200  15.1638450
 108.9832530  40.9507560  17.9705790 109.7451440  41.5204210  18.0765480
 108.9986900  40.3834760  18.7414100  92.4836870  39.4745490  22.2013450
  91.8285710  39.2057130  21.5573150  93.3214820  39.3649970  21.7515430
 109.9892500  41.8057660  22.8147720 110.3601330  41.0224980  22.4083690
 110.6294430  42.4946760  22.6365020 106.9726260  43.1894240  28.2278040
 106.1586100  43.6191400  28.4903830 107.3800460  43.8012650  27.6147090
 109.0351700  41.2441930  15.1278310 109.3100540  42.1520810  14.9997530
 108.8462440  41.1804460  16.0640300 105.4327310  34.2686780  16.4231940
 105.8512190  34.0817760  15.5828600 105.1263370  33.4165830  16.7334870
 108.9317040  39.1810920  20.1207740 108.5560640  38.4138850  19.6889030
 108.2020160  39.5633620  20.6082670  93.5212800  39.8598060  26.7416790
  93.8885840  39.7725460  27.6212810  92.9523620  39.0964610  26.6423650
 108.3216660  38.3282440  29.7547260 108.0902750  38.0995190  28.8545210
 108.5821210  39.2481990  29.7092150  93.0728800  36.7707150  30.6475210
  92.1784850  36.7373910  30.9868920  93.6126350  36.9693940  31.4126460
 106.7604730  33.5538870  32.5326960 107.6374910  33.5622270  32.9160960
 106.7725570  32.8169710  31.9219310  91.6974950  36.6844420  18.1438780
  90.7939030  36.9474620  17.9690440  92.1815570  36.9555590  17.3638740
 108.2068000  37.4068410  23.4214980 108.7305480  36.9131060  22.7905150
 108.7927420  37.5418770  24.1662550 108.3857720  37.4908280  26.9434530
 107.4360430  37.4571820  27.0579520 108.5670730  38.4008390  26.7084300
  94.2402160  35.7409960  16.0533160  94.9493860  35.3193180  15.5680440
  93.5242100  35.8085190  15.4216510  93.8876320  31.7949290  15.0935810
  94.6104450  32.3358230  15.4117030  94.1600840  31.5212710  14.2177350
 107.6967970  36.6641760  19.3607390 108.1927090  36.4312630  20.1456270
 107.4984040  35.8253600  18.9445030  93.5768510  31.0455480  24.9958430
  94.2244700  30.4952860  24.5553590  93.9970350  31.2998630  25.8174240
 109.1255130  35.3002710  21.8945070 109.0154410  35.1458750  22.8327340
 109.8862720  34.7723650  21.6520480 107.4720850  31.2396840  28.3528070
 108.1093070  31.8530980  28.7187260 107.6195740  31.2757500  27.4077300
 110.0145400  33.1310630  15.1351210 110.9394710  32.9991810  14.9269500
 109.9921190  33.2103450  16.0887660 110.0883890  33.9021290  17.7607920
 109.2935390  33.8366410  18.2900830 110.2927170  34.8371930  17.7493270
 107.0302310  47.9412840  21.7546310 107.6261380  47.6197410  21.0780730
 107.2880460  47.4684660  22.5459580  93.3300510  31.2011150  27.7383750
  92.9815330  31.6574970  28.5041930  92.9988210  30.3068280  27.8206180
  94.9364880  44.3730750  31.9036940  94.8934510  44.0023660  32.7851400
  95.0675890  45.3108320  32.0438760  98.6370910  45.9290340  27.5046660
  98.3962270  46.1964900  26.6177180  99.5773550  46.0996070  27.5597520
 100.8425330  32.3923030  31.2603170 100.7814220  32.9844860  32.0098580
 101.7825710  32.2848990  31.1153430 103.4799890  32.0493090  30.8995460
 104.0940300  32.3672380  30.2376540 104.0249450  31.5641680  31.5191320
 109.8975070  47.9484720  28.3057300 109.4033350  48.3453590  27.5884430
 109.2888360  47.3233930  28.6994580  94.0021150  30.7287350  31.0134520
  94.5504140  30.5475400  30.2500630  94.0676460  29.9381460  31.5490830
  94.7752910  47.3193000  29.0234720  94.1813230  47.1877700  29.7624760
  94.7676750  46.4831140  28.5576820 104.2207930  30.6125230  27.2264750
 103.3467770  30.9460340  27.0237680 104.1118680  30.1398410  28.0516620
 105.1279910  32.8196100  28.6106470 104.7993270  32.0047860  28.2308200
 106.0762210  32.7765910  28.4872160 107.5814520  48.5908140  25.5844040
 107.1217490  49.3423950  25.2102060 106.9526980  47.8714610  25.5258840
  94.4065140  44.6851380  27.9742760  93.6799200  44.0656670  27.9068710
  94.4674290  45.0791990  27.1040840  98.0110240  46.8996380  24.7592170
  98.5275260  46.2883740  24.2340430  98.6607620  47.4025160  25.2503180
 100.7505740  47.7904870  25.5861150 101.0383550  47.5359170  24.7094160
 101.2628960  47.2382230  26.1766720 101.9682750  31.5295070  26.1657660
 101.1854540  32.0040570  26.4454420 101.6745680  30.6249900  26.0570840
 106.5203820  32.2318170  24.2106750 106.9611910  32.1763270  23.3628350
 106.2511410  33.1476180  24.2816930 108.3842390  31.8633410  22.2215570
 108.3230790  30.9194630  22.0746590 109.1634420  31.9713500  22.7669030
  92.6895140  48.0025770  21.1839520  92.5217180  47.3696450  21.8821410
  91.8229650  48.2085170  20.8333710  93.3123160  31.8342550  18.6871380
  94.0702520  31.9471430  18.1135410  92.8500330  32.6711750  18.6414810
  99.8536970  33.9481820  21.6773690  99.0411480  33.5738710  21.3369570
 100.3578610  33.1926900  21.9794880 104.3561950  30.6124270  22.9156760
 104.9591320  31.1844480  23.3905280 103.6154940  31.1763710  22.6930660
 107.4996550  31.0145830  18.1897040 107.6947180  31.9129280  18.4564470
 106.7126420  30.7832910  18.6829990  94.2957840  46.6959000  18.6289660
  93.7705460  47.0767030  17.9251620  94.2202420  47.3209770  19.3499370
  95.6848310  32.3606600  17.2273350  96.2141070  31.5736400  17.0981300
  96.3176630  33.0397790  17.4608880  97.8786150  32.0981740  20.2818740
  97.2488890  31.3969050  20.4488870  97.3391290  32.8585870  20.0651900
 100.8178100  48.7120970  32.9529350 101.7445410  48.4765240  32.9965310
 100.8028530  49.5392970  32.4715380 109.0523160  48.2546540  19.9503600
 109.2275350  47.5684280  19.3064520 108.3544730  48.7793590  19.5580270
  98.0041710  31.3765720  32.7171230  97.7225980  31.8799320  31.9532050
  98.3861410  30.5787470  32.3513360  96.8950810  48.6441380  17.5038910
  97.6269630  48.3600660  16.9562800  97.1544480  48.4054660  18.3938290
  96.0565600  44.7606110  17.5085240  95.4274480  45.2291210  18.0571070
  96.1713430  43.9155330  17.9431430 104.6057170  30.7919300  33.2951700
 104.4922620  31.1113910  34.1903220 105.4226910  31.1931810  32.9988980
 107.3855660  47.9390830  32.7770390 108.1780980  47.4440060  32.5696350
 107.6788810  48.6180970  33.3846000 103.5115320  38.8111770   3.6586440
 103.4309370  37.8966380   3.3878150 103.0979740  39.3078840   2.9526150
 101.6433360  40.5890790   5.5395710 100.8675460  40.1091230   5.8294280
 102.2946290  39.9096440   5.3651870  95.6599190  40.9010600   6.4171470
  94.8284070  40.6459310   6.8167980  96.2680170  40.9721370   7.1529390
 105.6640790  44.9950980   4.3194840 105.2022320  44.2238220   4.6482010
 106.4766340  45.0217050   4.8247290  95.6400450  44.9350690   6.6129490
  95.9428490  44.0448430   6.4339710  96.3844040  45.4920910   6.3851740
  92.0324150  38.4618140   6.0853560  92.6040260  37.6940340   6.0857200
  92.0325690  38.7606900   5.1760170 101.8904100  47.2808990   3.9398830
 101.2715540  47.7366490   3.3693270 102.7455880  47.4360450   3.5388530
 101.0842350  43.2647980   5.5465870 101.0150630  42.3237920   5.3855000
 101.8462210  43.3549390   6.1188440  93.2749020  33.8702500   7.8722490
  93.0951860  32.9728250   8.1525250  92.8729100  34.4174370   8.5469440
 102.1147520  36.0718360   5.7734800 102.4912340  35.1990240   5.6608470
 102.0167030  36.4077060   4.8825240 105.8971640  33.5668800   2.7063140
 106.7181260  33.0765370   2.7488620 105.9305720  34.1566460   3.4594980
  93.8935690  36.3663000   6.4804830  94.5745800  36.6301370   7.0992230
  93.5783740  35.5263870   6.8142840  98.0860260  37.4130360   5.5677420
  98.5938480  37.9111330   6.2082440  98.6173500  36.6365560   5.3916780
 110.1871190  35.5835550   9.2706770 109.4823360  35.9717260   8.7521880
 110.4529110  36.2785840   9.8727700  96.3696360  32.0528920   9.8340840
  96.3714800  32.5701310   9.0286740  95.5400670  31.5759100   9.8110770
  97.6199210  41.6924100   8.0114340  97.2868590  42.3193020   8.6535410
  97.7965890  42.2185980   7.2316010 106.1333120  35.5069180   5.4790680
 105.4288690  35.7954070   6.0593790 106.4945280  36.3169290   5.1190240
  96.0511690  33.7638880   7.8411290  96.3928500  34.6080930   7.5465160
  95.1127500  33.9122620   7.9576630  96.8318310  43.6604900   9.8263520
  97.4492310  44.3355980   9.5447970  95.9711430  44.0692880   9.7351020
 107.7495900  45.1244310   7.7418160 107.0659420  45.7943420   7.7334830
 108.2890190  45.3224960   6.9763020 109.2020040  34.9523970   5.8699890
 108.2544950  34.9862950   6.0015320 109.5270030  35.7662920   6.2549250
  99.7339580  31.2521150   4.1655880 100.0414560  30.6968040   3.4491380
  98.8040280  31.3865610   3.9828870 105.2854640  46.9688440   6.4563340
 105.2981800  46.5650730   5.5885600 104.7329860  47.7435730   6.3524770
 104.6840080  41.8718280   7.7845950 105.1008870  41.6578390   6.9499410
 105.4079900  42.1291070   8.3554570 108.6302180  40.2705500   7.8762190
 107.8020810  40.3398590   7.4012320 109.2252660  40.8559810   7.4078020
 105.5944190  37.0574820   8.8217060 105.1815370  37.8828530   9.0757050
 104.8620140  36.4719860   8.6293420  97.7276980  39.8434720   3.6835730
  97.3233980  39.1311970   3.1881630  97.8140100  39.4987960   4.5723770
  98.1958680  43.5302280   5.8474940  97.8986970  42.9247750   5.1682720
  99.1458500  43.5679590   5.7364300  96.4405600  36.6177930   7.4634770
  96.9920190  36.7273270   6.6888020  96.9549110  36.9915530   8.1790000
 106.2844290  47.1034150   9.5098040 105.8074850  47.9106340   9.3170650
 105.6006080  46.4512480   9.6624250  97.2877110  43.2683970  12.4982740
  96.3905640  43.4923940  12.7456140  97.3129980  43.3918910  11.5494140
  96.1148330  40.1397290  11.0740110  95.9756100  41.0120090  11.4427510
  95.2329690  39.7970100  10.9288050 102.4377710  45.0573160   2.3805240
 102.8773620  45.7997490   1.9660630 102.3764600  45.2999730   3.3044200
  97.9128680  46.0818990  13.2825260  97.8844110  46.4861940  12.4153690
  97.7493650  45.1529350  13.1196860 109.8643500  46.8646090  14.5789430
 110.3403220  47.3428980  15.2578510 110.4850660  46.7963580  13.8534930
  92.0666980  41.9094840   6.9911020  92.1447400  42.0443610   6.0466740
  92.6808660  41.2010730   7.1839140  93.3114610  43.6095030   3.4017200
  92.9042690  43.7509620   2.5470800  94.2027620  43.3255190   3.1988410
 109.2676750  44.0558940  11.7389440 109.3939810  43.8170820  10.8206620
 109.3098130  43.2243480  12.2111520 103.1293490  47.7586940  10.3084250
 103.6438160  47.6694950  11.1106680 102.2862570  48.1046640  10.6012160
 104.3723950  47.1792550   2.3714740 104.8280900  46.3981930   2.6853360
 104.7116470  47.8899370   2.9155920 109.1200760  36.1091400  12.7039180
 108.5045030  36.6171070  12.1754640 108.7997180  35.2089730  12.6465120
  92.1226500  42.9509010   9.5305480  92.2857540  42.4814370   8.7124850
  92.5878950  42.4432570  10.1954320  96.8945270  32.0814770   4.5666050
  96.4513420  32.8624310   4.2350570  97.4530260  32.4044660   5.2736990
 101.1815080  34.9483290  10.1701370 100.7194450  35.1566310  10.9821310
 100.7793190  34.1342640   9.8672040 106.1819590  36.1692240  11.2998030
 105.3313180  35.8697990  11.6207100 106.0221380  36.4134250  10.3881850
 103.2769300  37.6693990  13.3996820 103.6022710  36.8357740  13.0599050
 104.0649630  38.1922510  13.5475150  98.9321170  32.6262100   6.4255650
  99.2293500  33.5324930   6.3447670  99.4806730  32.1380880   5.8115220
  96.6859490  37.2048340   2.2947300  96.4600410  36.9885510   3.1993920
  95.9052020  37.6376800   1.9493270  99.1258700  38.1033920  12.9607570
  99.0302300  37.1628650  12.8107970  99.9690680  38.3248990  12.5655640
 102.5222120  35.8475250   2.9241230 102.9151690  36.1647450   2.1109920
 102.8838970  34.9687130   3.0385750  94.2569240  34.5147590  11.1141350
  93.8632630  35.3622800  11.3214130  93.5687640  33.8773960  11.3049990
 100.8314290  34.5982560  14.1838090 100.1412610  34.4054760  14.8184180
 101.5746590  34.8817200  14.7162390  91.5586290  32.4376050   5.1471430
  91.2699340  33.0078910   5.8596410  92.3032050  31.9580500   5.5102660
 103.1077260  38.4381000   7.0192010 102.3758380  38.9467810   7.3682110
 102.7101600  37.6210980   6.7180790  99.5454650  35.1135200   5.4244500
  99.5490710  34.6725150   4.5749040 100.4405770  35.4352530   5.5316320
  95.3957030  34.9961690   4.3838710  95.0557080  35.4736920   5.1405760
  94.6334350  34.5426810   4.0239810 103.5703170  33.8914680   6.4314950
 103.5875910  34.3423330   7.2756800 103.3218750  32.9920320   6.6448390
 106.9973920  31.3046860  12.2701330 107.3219690  30.5736520  12.7959310
 107.0330430  30.9860500  11.3682320  93.6965480  42.3260440  11.6901290
  93.3120270  41.6854110  12.2884250  94.0077670  43.0296560  12.2596020
  99.8462620  39.1736980   7.1709910 100.2132750  38.6995550   7.9171250
  99.6567680  40.0478550   7.5118250  92.7103110  33.9180670   3.3003380
  92.4250030  33.5536340   4.1382000  92.6481970  33.1861130   2.6866520
  97.6361990  38.2145620   9.4894120  97.3319060  39.0937600   9.7144480
  98.5908450  38.2745410   9.5251560 106.9231760  41.4171970   5.8787360
 107.6430880  41.9127260   5.4883470 106.7213580  40.7389860   5.2341230
 102.3050560  41.4881030  11.7656360 102.2387870  40.5676700  11.5113950
 101.6755700  41.5856470  12.4801000  96.2081180  42.0886990   3.7239780
  96.7259850  41.2855250   3.6696670  95.7565200  42.0266130   4.5656610
  93.6925720  39.0548360  10.6365480  93.3340660  39.7202210  11.2238820
  93.3980280  38.2231910  11.0078100  96.8938840  39.5132600  13.5205030
  96.5938980  39.6589780  12.6232850  97.6650080  38.9537890  13.4278420
 102.2367290  44.3101600  11.5160160 102.2511830  43.3782560  11.2979070
 101.5292390  44.3961360  12.1549930 108.4478500  40.9508940  10.8628740
 107.7226690  41.5437720  10.6658130 108.9753960  40.9432480  10.0642110
 103.9778090  42.6769110   4.3612590 104.3301910  42.0797240   3.7013960
 103.0940420  42.3513340   4.5320840 100.0641370  43.4366800   1.7683000
 100.7512500  43.9836010   2.1490590  99.2773790  43.9807530   1.8032610
 101.6701190  45.9519170   8.6100660 102.3143410  46.1578550   9.2874080
 102.0330630  45.1907570   8.1571510 102.9433270  43.9551520   7.3278110
 103.5855500  43.2544680   7.4410280 103.4682620  44.7349960   7.1475000
 104.7170890  44.7546420  10.5314170 105.0527130  45.3413110  11.2092090
 103.7971230  44.6239130  10.7611960  92.2674290  32.5441600  11.3137580
  91.5532810  32.7438520  11.9190190  92.6869330  31.7681170  11.6852380
  92.5546880  46.5321860  12.3004110  92.6638000  45.5916600  12.1599500
  91.9027440  46.7976610  11.6517840 100.5459470  44.8037750  13.7002230
 100.2256340  44.0846990  14.2447920  99.8717830  45.4792820  13.7738290
 103.7613070  35.0363910   9.0639030 104.1293890  34.2159120   9.3918600
 102.9011270  35.0965800   9.4794680 100.7215060  37.6903500   9.2877000
 101.2200310  38.1649320   9.9528850 100.8638010  36.7667020   9.4947030
 103.1274560  32.9957460   2.7280260 103.0042340  33.0143590   1.7789770
 104.0759120  33.0436400   2.8478660 107.9281920  33.9071460  10.1305390
 107.4255520  34.6476860  10.4699200 108.7438580  34.2955460   9.8142180
 106.2203930  39.1504640   3.5766750 105.2794070  39.1654870   3.7514440
 106.5348000  38.3640600   4.0227050 108.2229510  46.3213490   5.2521010
 108.3476930  47.1444660   5.7244820 109.0895070  46.1104220   4.9045160
  95.6947040  48.4144700   4.9238140  96.4309520  47.8660160   5.1946710
  96.0787960  49.2800710   4.7844130  94.7005320  47.5990770  14.1123720
  95.5018050  47.9202820  14.5259120  94.1857140  47.2386350  14.8343630
 103.5369950  43.7070640  14.0599130 102.9308110  43.7302240  13.3194880
 103.2324060  42.9753680  14.5966380 104.9670320  47.4350930  12.6708540
 105.9192070  47.3508950  12.6208780 104.8198540  48.0992640  13.3442330
  92.4203130  40.0864230  13.0559770  92.9242150  39.5071510  13.6276000
  91.6810550  40.3704460  13.5936140  99.4741070  41.4935220  12.5895290
  98.7086740  42.0620220  12.5049960  99.6557030  41.2011430  11.6963520
 106.6164420  43.2240550  13.1470310 107.3573890  43.5616310  12.6437770
 105.8537100  43.3932610  12.5940080  94.4526210  38.2293820  13.9509840
  94.4931550  37.9307690  14.8595070  95.3071710  38.6301430  13.7917360
  96.3932020  36.8085920  11.9184330  95.8628480  36.3176870  11.2907670
  97.0620090  37.2370120  11.3842260 105.2910080  41.2755380  11.6825520
 105.7051100  41.4300460  12.5315940 104.3561080  41.4010600  11.8451300
 105.7632250  38.6151540  13.6864670 106.3453020  37.8603860  13.5985150
 105.9394020  39.1458980  12.9096150  96.8804320  33.7748290  11.9981620
  96.7861190  33.1569040  11.2732490  96.3001710  34.5014580  11.7711530
  99.6465760  32.3321530   9.0309010  99.1983060  32.3545790   8.1854560
  99.0130960  31.9340550   9.6279310 100.0525310  41.2275860   9.6521450
 100.4713420  42.0708590   9.4797690  99.1333940  41.3647900   9.4228230
 102.3889210  38.9592040  11.0359290 102.5085420  38.3633180  11.7754130
 103.2483210  38.9961730  10.6160590 104.7277110  39.5129230   9.6121800
 104.2012330  40.0371850   9.0086940 105.0708450  40.1456620  10.2431530
  97.9032730  47.5328870  10.7679180  97.3653820  48.2574930  10.4487880
  98.1566690  47.0559210   9.9776520  99.1557980  35.5013390  12.2935110
  99.7457670  35.1929240  12.9812930  98.3378220  35.0293140  12.4495010
 103.9751410  35.1179200  12.5268130 103.2866930  34.4560740  12.4618120
 104.6957430  34.6717470  12.9716590 100.7594940  48.7680080  11.0265830
 100.6853640  49.6715220  11.3338200  99.8573780  48.4491980  10.9987900
  92.1622230  46.0954670   4.3299450  92.4925240  45.2275730   4.0978090
  92.5913230  46.3013190   5.1604410  92.6512440  46.9625260   7.0681080
  92.2143430  47.1426060   7.9005230  93.2190120  47.7199880   6.9262800
 108.2874620  46.4642260  11.3558390 107.6876610  46.5234820  10.6122310
 108.4168520  45.5247240  11.4855240  92.4836870  39.4745490   3.4269960
  91.8285710  39.2057130   2.7829660  93.3214820  39.3649970   2.9771940
 109.9892500  41.8057660   4.0404230 110.3601330  41.0224980   3.6340200
 110.6294430  42.4946760   3.8621530 106.9726260  43.1894240   9.4534550
 106.1586100  43.6191400   9.7160340 107.3800460  43.8012650   8.8403600
  93.5212800  39.8598060   7.9673300  93.8885840  39.7725460   8.8469320
  92.9523620  39.0964610   7.8680160 108.3216660  38.3282440  10.9803770
 108.0902750  38.0995190  10.0801720 108.5821210  39.2481990  10.9348660
  93.0728800  36.7707150  11.8731720  92.1784850  36.7373910  12.2125430
  93.6126350  36.9693940  12.6382970 106.7604730  33.5538870  13.7583470
 107.6374910  33.5622270  14.1417470 106.7725570  32.8169710  13.1475820
 108.2068000  37.4068410   4.6471490 108.7305480  36.9131060   4.0161660
 108.7927420  37.5418770   5.3919060 108.3857720  37.4908280   8.1691040
 107.4360430  37.4571820   8.2836030 108.5670730  38.4008390   7.9340810
  93.5768510  31.0455480   6.2214940  94.2244700  30.4952860   5.7810100
  93.9970350  31.2998630   7.0430750 109.1255130  35.3002710   3.1201580
 109.0154410  35.1458750   4.0583850 109.8862720  34.7723650   2.8776990
 107.4720850  31.2396840   9.5784580 108.1093070  31.8530980   9.9443770
 107.6195740  31.2757500   8.6333810 107.0302310  47.9412840   2.9802820
 107.6261380  47.6197410   2.3037240 107.2880460  47.4684660   3.7716090
  93.3300510  31.2011150   8.9640260  92.9815330  31.6574970   9.7298440
  92.9988210  30.3068280   9.0462690  94.9364880  44.3730750  13.1293450
  94.8934510  44.0023660  14.0107910  95.0675890  45.3108320  13.2695270
  98.6370910  45.9290340   8.7303170  98.3962270  46.1964900   7.8433690
  99.5773550  46.0996070   8.7854030 100.8425330  32.3923030  12.4859680
 100.7814220  32.9844860  13.2355090 101.7825710  32.2848990  12.3409940
 103.4799890  32.0493090  12.1251970 104.0940300  32.3672380  11.4633050
 104.0249450  31.5641680  12.7447830 109.8975070  47.9484720   9.5313810
 109.4033350  48.3453590   8.8140940 109.2888360  47.3233930   9.9251090
  94.0021150  30.7287350  12.2391030  94.5504140  30.5475400  11.4757140
  94.0676460  29.9381460  12.7747340  94.7752910  47.3193000  10.2491230
  94.1813230  47.1877700  10.9881270  94.7676750  46.4831140   9.7833330
 104.2207930  30.6125230   8.4521260 103.3467770  30.9460340   8.2494190
 104.1118680  30.1398410   9.2773130 105.1279910  32.8196100   9.8362980
 104.7993270  32.0047860   9.4564710 106.0762210  32.7765910   9.7128670
 107.5814520  48.5908140   6.8100550 107.1217490  49.3423950   6.4358570
 106.9526980  47.8714610   6.7515350  94.4065140  44.6851380   9.1999270
  93.6799200  44.0656670   9.1325220  94.4674290  45.0791990   8.3297350
  98.0110240  46.8996380   5.9848680  98.5275260  46.2883740   5.4596940
  98.6607620  47.4025160   6.4759690 100.7505740  47.7904870   6.8117660
 101.0383550  47.5359170   5.9350670 101.2628960  47.2382230   7.4023230
 101.9682750  31.5295070   7.3914170 101.1854540  32.0040570   7.6710930
 101.6745680  30.6249900   7.2827350 106.5203820  32.2318170   5.4363260
 106.9611910  32.1763270   4.5884860 106.2511410  33.1476180   5.5073440
 108.3842390  31.8633410   3.4472080 108.3230790  30.9194630   3.3003100
 109.1634420  31.9713500   3.9925540  92.6895140  48.0025770   2.4096030
  92.5217180  47.3696450   3.1077920  91.8229650  48.2085170   2.0590220
  99.8536970  33.9481820   2.9030200  99.0411480  33.5738710   2.5626080
 100.3578610  33.1926900   3.2051390 104.3561950  30.6124270   4.1413270
 104.9591320  31.1844480   4.6161790 103.6154940  31.1763710   3.9187170
 100.8178100  48.7120970  14.1785860 101.7445410  48.4765240  14.2221820
 100.8028530  49.5392970  13.6971890  98.0041710  31.3765720  13.9427740
  97.7225980  31.8799320  13.1788560  98.3861410  30.5787470  13.5769870
 104.6057170  30.7919300  14.5208210 104.4922620  31.1113910  15.4159730
 105.4226910  31.1931810  14.2245490 107.3855660  47.9390830  14.0026900
 108.1780980  47.4440060  13.7952860 107.6788810  48.6180970  14.6102510
 103.5115320  20.0368280  97.5303890 103.4309370  19.1222890  97.2595600
 103.0979740  20.5335350  96.8243600 101.6433360  21.8147300  99.4113160
 100.8675460  21.3347740  99.7011730 102.2946290  21.1352950  99.2369320
  95.6599190  22.1267110 100.2888920  94.8284070  21.8715820 100.6885430
  96.2680170  22.1977880 101.0246840 105.6640790  26.2207490  98.1912290
 105.2022320  25.4494730  98.5199460 106.4766340  26.2473560  98.6964740
  95.6400450  26.1607200 100.4846940  95.9428490  25.2704940 100.3057160
  96.3844040  26.7177420 100.2569190  94.0691140  17.0869000  94.0731310
  93.1807840  17.4284970  93.9711190  94.3532330  16.8869320  93.1812140
  92.0324150  19.6874650  99.9571010  92.6040260  18.9196850  99.9574650
  92.0325690  19.9863410  99.0477620 101.8904100  28.5065500  97.8116280
 101.2715540  28.9623000  97.2410720 102.7455880  28.6616960  97.4105980
 101.0842350  24.4904490  99.4183320 101.0150630  23.5494430  99.2572450
 101.8462210  24.5805900  99.9905890  93.2749020  15.0959010 101.7439940
  93.0951860  14.1984760 102.0242700  92.8729100  15.6430880 102.4186890
 102.1147520  17.2974870  99.6452250 102.4912340  16.4246750  99.5325920
 102.0167030  17.6333570  98.7542690  96.2452530  15.6700500  95.1069690
  96.3519280  16.5704230  95.4138450  95.3344890  15.6218470  94.8164340
 105.8971640  14.7925310  96.5780590 106.7181260  14.3021880  96.6206070
 105.9305720  15.3822970  97.3312430  93.8935690  17.5919510 100.3522280
  94.5745800  17.8557880 100.9709680  93.5783740  16.7520380 100.6860290
  98.0860260  18.6386870  99.4394870  98.5938480  19.1367840 100.0799890
  98.6173500  17.8622070  99.2634230 102.7567450  23.3904740  95.2048190
 102.1384720  23.8554190  94.6410910 103.2690700  24.0832220  95.6217700
  97.6199210  22.9180610 101.8831790  97.2868590  23.5449530 102.5252860
  97.7965890  23.4442490 101.1033460 106.1333120  16.7325690  99.3508130
 105.4288690  17.0210580  99.9311240 106.4945280  17.5425800  98.9907690
  96.0511690  14.9895390 101.7128740  96.3928500  15.8337440 101.4182610
  95.1127500  15.1379130 101.8294080  92.1250650  24.0761270  92.5787820
  91.7478630  24.5648370  91.8472720  92.3823720  24.7486550  93.2094350
 107.7495900  26.3500820 101.6135610 107.0659420  27.0199930 101.6052280
 108.2890190  26.5481470 100.8480470 109.2020040  16.1780480  99.7417340
 108.2544950  16.2119460  99.8732770 109.5270030  16.9919430 100.1266700
  99.7339580  12.4777660  98.0373330 100.0414560  11.9224550  97.3208830
  98.8040280  12.6122120  97.8546320 105.2854640  28.1944950 100.3280790
 105.2981800  27.7907240  99.4603050 104.7329860  28.9692240 100.2242220
 106.5800060  24.9161170  95.4170960 106.4696390  23.9735500  95.5420380
 106.5768310  25.2776810  96.3033720 104.6840080  23.0974790 101.6563400
 105.1008870  22.8834900 100.8216860 105.4079900  23.3547580 102.2272020
 102.1220340  20.5426490  94.7733450 101.1949620  20.4763870  95.0021920
 102.2745160  21.4806620  94.6588690 102.1089420  16.8143490  91.7700610
 101.1693090  16.9757450  91.8553070 102.4272680  17.5329170  91.2236600
 108.6302180  21.4962010 101.7479640 107.8020810  21.5655100 101.2729770
 109.2252660  22.0816320 101.2795470 106.1517630  22.1046790  95.2768700
 105.5330050  21.7666340  94.6295000 106.1342080  21.4606550  95.9847890
  97.7276980  21.0691230  97.5553180  97.3233980  20.3568480  97.0599080
  97.8140100  20.7244470  98.4441220  98.1958680  24.7558790  99.7192390
  97.8986970  24.1504260  99.0400170  99.1458500  24.7936100  99.6081750
  96.4405600  17.8434440 101.3352220  96.9920190  17.9529780 100.5605470
  96.9549110  18.2172040 102.0507450 104.3282330  21.3433600  92.2841450
 104.7675610  20.5056030  92.1379270 105.0410750  21.9763000  92.3705590
 102.4377710  26.2829670  96.2522690 102.8773620  27.0254000  95.8378080
 102.3764600  26.5256240  97.1761650 107.9099470  12.5976410  90.5982490
 107.5972130  12.6903240  91.4981560 108.6711940  13.1757440  90.5479920
  94.4281610  19.9636210  95.0559830  94.3079210  20.6898300  94.4441100
  94.1182500  19.1939120  94.5787740  92.0666980  23.1351350 100.8628470
  92.1447400  23.2700120  99.9184190  92.6808660  22.4267240 101.0556590
  93.3114610  24.8351540  97.2734650  92.9042690  24.9766130  96.4188250
  94.2027620  24.5511700  97.0705860 105.1047890  29.2698790  93.6085700
 104.9449030  28.9801730  94.5067530 104.9394600  28.4938920  93.0730930
  97.5836270  29.0497320  95.3857320  97.4078750  28.1332860  95.1725120
  96.7292010  29.4084610  95.6255120 104.8074020  26.7786350  92.1683700
 104.1139180  26.7763640  91.5085980 105.5496880  26.3545670  91.7377870
 104.3723950  28.4049060  96.2432190 104.8280900  27.6238440  96.5570810
 104.7116470  29.1155880  96.7873370  96.8945270  13.3071280  98.4383500
  96.4513420  14.0880820  98.1068020  97.4530260  13.6301170  99.1454440
 100.0104090  12.9281980  93.3189330  99.3858270  12.9241850  94.0442640
  99.9234210  12.0612940  92.9225300  98.9321170  13.8518610 100.2973100
  99.2293500  14.7581440 100.2165120  99.4806730  13.3637390  99.6832670
  96.6859490  18.4304850  96.1664750  96.4600410  18.2142020  97.0711370
  95.9052020  18.8633310  95.8210720 103.9157250  18.4368220  94.7655400
 103.3166140  19.1604020  94.5819020 104.4636860  18.3745000  93.9831850
 102.5222120  17.0731760  96.7958680 102.9151690  17.3903960  95.9827370
 102.8838970  16.1943640  96.9103200  91.5586290  13.6632560  99.0188880
  91.2699340  14.2335420  99.7313860  92.3032050  13.1837010  99.3820110
  91.7456520  17.6052680  90.2291600  91.6631190  18.5483440  90.3706590
  91.3939580  17.4627590  89.3503950 103.1077260  19.6637510 100.8909460
 102.3758380  20.1724320 101.2399560 102.7101600  18.8467490 100.5898240
  99.5454650  16.3391710  99.2961950  99.5490710  15.8981660  98.4466490
 100.4405770  16.6609040  99.4033770  95.3957030  16.2218200  98.2556160
  95.0557080  16.6993430  99.0123210  94.6334350  15.7683320  97.8957260
  99.6074800  17.3403790  92.2868710  99.7287620  17.2990270  93.2354530
  99.2223310  18.2027940  92.1315440 103.5703170  15.1171190 100.3032400
 103.5875910  15.5679840 101.1474250 103.3218750  14.2176830 100.5165840
  98.6196300  19.6504930  91.6852010  98.0513200  19.2023180  91.0587920
  99.3285300  20.0097710  91.1517160  99.8462620  20.3993490 101.0427360
 100.2132750  19.9252060 101.7888700  99.6567680  21.2735060 101.3835700
  92.7103110  15.1437180  97.1720830  92.4250030  14.7792850  98.0099450
  92.6481970  14.4117640  96.5583970  96.1643780  23.6463120  93.9578420
  95.3906040  23.1060740  93.7977140  96.8938410  23.1269730  93.6196180
 106.9231760  22.6428480  99.7504810 107.6430880  23.1383770  99.3600920
 106.7213580  21.9646370  99.1058680 102.3841700  14.0366440  93.8934200
 101.5706310  13.5379610  93.8179510 102.1903650  14.8764690  93.4770550
 105.0990090  18.4086090  92.1896360 105.9869710  18.7203320  92.0147700
 105.0695180  17.5358340  91.7976940  96.2081180  23.3143500  97.5957230
  96.7259850  22.5111760  97.5414120  95.7565200  23.2522640  98.4374060
 101.0950680  24.5809780  92.8684530 101.4366380  25.3252010  92.3727850
 100.2663390  24.8940900  93.2309360 107.3704360  19.7197930  91.6576220
 107.2868080  20.1512150  90.8072660 108.0898550  20.1796280  92.0903040
 108.3991610  26.5740190  94.3858350 107.7567770  25.9195810  94.6602070
 108.0122270  26.9795280  93.6099020 103.9778090  23.9025620  98.2330040
 104.3301910  23.3053750  97.5731410 103.0940420  23.5769850  98.4038290
 100.0641370  24.6623310  95.6400450 100.7512500  25.2092520  96.0208040
  99.2773790  25.2064040  95.6750060  92.2033770  20.2796130  91.1317530
  93.0728620  20.5620930  91.4153450  91.7124090  21.0932000  91.0166340
  99.3668580  21.6669340  95.2525810  99.8231360  22.4774590  95.4786000
  99.0156790  21.3492480  96.0844300  95.2680360  12.0106990  95.7248330
  95.1394990  12.0024890  96.6733250  94.4442380  12.3490080  95.3739340
 102.9433270  25.1808030 101.1995560 103.5855500  24.4801190 101.3127730
 103.4682620  25.9606470 101.0192450 106.7888990  25.4656650  90.9234700
 106.5626570  24.7487090  91.5159340 106.3985190  25.2169090  90.0856450
  92.5705020  29.4923510  91.6979160  92.9302660  30.0912850  91.0436430
  92.4297360  30.0383400  92.4714190 106.3705240  23.3828590  92.5848860
 106.0826940  23.8441280  93.3726740 107.1657410  22.9226360  92.8533080
  98.5873640  26.8754710  92.5152830  98.5783740  27.6084400  91.8997340
  97.6672000  26.6286290  92.6079790  94.1880280  22.0969600  93.2599590
  93.5808230  22.8368500  93.2694890  94.6629630  22.1868960  92.4337790
 107.1275100  15.2177360  93.7444040 106.4988260  15.3223030  93.0302270
 106.6327020  15.4374140  94.5337920 101.5733240  26.9382950  91.1778020
 101.6745220  26.7346940  90.2480000 100.6734980  26.6841230  91.3825800
  99.0959130  17.4963310  95.1601920  98.3875280  17.9649650  95.6015530
  99.3803610  16.8385320  95.7947110 103.1274560  14.2213970  96.5997710
 103.0042340  14.2400100  95.6507220 104.0759120  14.2692910  96.7196110
 100.2151350  29.4569270  95.8725690 100.4692850  29.4190660  94.9505060
  99.2663830  29.3302600  95.8653940  97.2994150  15.8048390  92.5352630
  98.1484680  16.2418540  92.4692820  96.9325420  16.1168650  93.3624690
 106.2203930  20.3761150  97.4484200 105.2794070  20.3911380  97.6231890
 106.5348000  19.5897110  97.8944500  96.1985570  22.0580750  91.0088160
  96.9648840  21.9462110  91.5713590  96.2760260  21.3618720  90.3564930
  94.8932330  19.4905820  91.6921050  94.9735920  18.5433330  91.8038450
  95.7852080  19.8212700  91.7981710 108.2229510  27.5470000  99.1238460
 108.3476930  28.3701170  99.5962270 109.0895070  27.3360730  98.7762610
  95.6947040  29.6401210  98.7955590  96.4309520  29.0916670  99.0664160
  96.0787960  30.5057220  98.6561580  92.5792520  25.7074780  94.6697100
  91.6532300  25.9495920  94.6602510  93.0448950  26.5349040  94.5481850
  98.8049350  28.8131520  90.6181160  99.5977960  29.1020350  90.1662950
  98.2853700  28.3823690  89.9393640 107.8579520  28.0401650  92.0417900
 107.5721030  27.6266790  91.2272080 107.6599070  28.9689360  91.9218420
  99.3226750  24.0334930  90.4823510  99.2177390  23.4187280  91.2084890
  99.1550970  23.5100820  89.6986520 102.5629480  23.0954960  91.0865500
 102.0139580  23.5424260  91.7308240 103.1848740  22.5904210  91.6103170
  98.2304600  22.0545880  92.9830800  98.6521020  21.8885750  93.8262190
  98.3555440  21.2446110  92.4885940 100.7432240  21.0783490  90.2307900
 101.2637900  20.3632510  89.8649050 101.3900640  21.7169360  90.5308410
  97.1263500  18.1279110  89.9288960  96.9252560  17.2646470  90.2902300
  96.9555550  18.0412470  88.9910560 104.6051810  12.9387340  92.4575840
 104.8854100  12.0955240  92.8135260 103.8317540  13.1710450  92.9714590
  95.9246300  15.2279730  89.9166840  96.2272200  15.2347160  89.0085990
  96.6640890  14.8777590  90.4134500  99.1431230  14.1714350  90.9023040
  98.7953230  13.4938340  90.3225490  99.3444000  13.7103860  91.7166430
 101.3080270  29.1595100  92.5209640 102.2031060  29.4980070  92.5428400
 101.3397900  28.4374510  91.8933920  94.9476430  24.5322150  90.7496640
  95.3851300  25.0751820  91.4054220  95.4324160  23.7069100  90.7592980
  92.1622230  27.3211180  98.2016900  92.4925240  26.4532240  97.9695540
  92.5913230  27.5269700  99.0321860  96.7584150  25.6520190  95.8618870
  96.4579690  25.5285160  96.7622780  96.6521640  24.7928780  95.4534600
  92.6512440  28.1881770 100.9398530  92.2143430  28.3682570 101.7722680
  93.2190120  28.9456390 100.7980250 109.5276070  25.4316590  90.5645550
 108.6969030  25.4993240  91.0352780 109.7047900  26.3220710  90.2612410
 108.9832530  22.1764070  93.0679750 109.7451440  22.7460720  93.1739440
 108.9986900  21.6091270  93.8388060  92.4836870  20.7002000  97.2987410
  91.8285710  20.4313640  96.6547110  93.3214820  20.5906480  96.8489390
 109.9892500  23.0314170  97.9121680 110.3601330  22.2481490  97.5057650
 110.6294430  23.7203270  97.7338980 109.0351700  22.4698440  90.2252270
 109.3100540  23.3777320  90.0971490 108.8462440  22.4060970  91.1614260
 105.4327310  15.4943290  91.5205900 105.8512190  15.3074270  90.6802560
 105.1263370  14.6422340  91.8308830 108.9317040  20.4067430  95.2181700
 108.5560640  19.6395360  94.7862990 108.2020160  20.7890130  95.7056630
  93.5212800  21.0854570 101.8390750  93.8885840  20.9981970 102.7186770
  92.9523620  20.3221120 101.7397610  91.6974950  17.9100930  93.2412740
  90.7939030  18.1731130  93.0664400  92.1815570  18.1812100  92.4612700
 108.2068000  18.6324920  98.5188940 108.7305480  18.1387570  97.8879110
 108.7927420  18.7675280  99.2636510 108.3857720  18.7164790 102.0408490
 107.4360430  18.6828330 102.1553480 108.5670730  19.6264900 101.8058260
  94.2402160  16.9666470  91.1507120  94.9493860  16.5449690  90.6654400
  93.5242100  17.0341700  90.5190470  93.8876320  13.0205800  90.1909770
  94.6104450  13.5614740  90.5090990  94.1600840  12.7469220  89.3151310
 107.6967970  17.8898270  94.4581350 108.1927090  17.6569140  95.2430230
 107.4984040  17.0510110  94.0418990  93.5768510  12.2711990 100.0932390
  94.2244700  11.7209370  99.6527550  93.9970350  12.5255140 100.9148200
 109.1255130  16.5259220  96.9919030 109.0154410  16.3715260  97.9301300
 109.8862720  15.9980160  96.7494440 110.0145400  14.3567140  90.2325170
 110.9394710  14.2248320  90.0243460 109.9921190  14.4359960  91.1861620
 110.0883890  15.1277800  92.8581880 109.2935390  15.0622920  93.3874790
 110.2927170  16.0628440  92.8467230 107.0302310  29.1669350  96.8520270
 107.6261380  28.8453920  96.1754690 107.2880460  28.6941170  97.6433540
  98.6370910  27.1546850 102.6020620  98.3962270  27.4221410 101.7151140
  99.5773550  27.3252580 102.6571480 107.5814520  29.8164650 100.6818000
 107.1217490  30.5680460 100.3076020 106.9526980  29.0971120 100.6232800
  98.0110240  28.1252890  99.8566130  98.5275260  27.5140250  99.3314390
  98.6607620  28.6281670 100.3477140 100.7505740  29.0161380 100.6835110
 101.0383550  28.7615680  99.8068120 101.2628960  28.4638740 101.2740680
 101.9682750  12.7551580 101.2631620 101.1854540  13.2297080 101.5428380
 101.6745680  11.8506410 101.1544800 106.5203820  13.4574680  99.3080710
 106.9611910  13.4019780  98.4602310 106.2511410  14.3732690  99.3790890
 108.3842390  13.0889920  97.3189530 108.3230790  12.1451140  97.1720550
 109.1634420  13.1970010  97.8642990  92.6895140  29.2282280  96.2813480
  92.5217180  28.5952960  96.9795370  91.8229650  29.4341680  95.9307670
  93.3123160  13.0599060  93.7845340  94.0702520  13.1727940  93.2109370
  92.8500330  13.8968260  93.7388770  99.8536970  15.1738330  96.7747650
  99.0411480  14.7995220  96.4343530 100.3578610  14.4183410  97.0768840
 104.3561950  11.8380780  98.0130720 104.9591320  12.4100990  98.4879240
 103.6154940  12.4020220  97.7904620 107.4996550  12.2402340  93.2871000
 107.6947180  13.1385790  93.5538430 106.7126420  12.0089420  93.7803950
  94.2957840  27.9215510  93.7263620  93.7705460  28.3023540  93.0225580
  94.2202420  28.5466280  94.4473330  95.6848310  13.5863110  92.3247310
  96.2141070  12.7992910  92.1955260  96.3176630  14.2654300  92.5582840
  97.8786150  13.3238250  95.3792700  97.2488890  12.6225560  95.5462830
  97.3391290  14.0842380  95.1625860 109.0523160  29.4803050  95.0477560
 109.2275350  28.7940790  94.4038480 108.3544730  30.0050100  94.6554230
  96.8950810  29.8697890  92.6012870  97.6269630  29.5857170  92.0536760
  97.1544480  29.6311170  93.4912250  96.0565600  25.9862620  92.6059200
  95.4274480  26.4547720  93.1545030  96.1713430  25.1411840  93.0405390
 103.5115320  20.0368280  78.7560400 103.4309370  19.1222890  78.4852110
 103.0979740  20.5335350  78.0500110 101.6433360  21.8147300  80.6369670
 100.8675460  21.3347740  80.9268240 102.2946290  21.1352950  80.4625830
  95.6599190  22.1267110  81.5145430  94.8284070  21.8715820  81.9141940
  96.2680170  22.1977880  82.2503350 105.6640790  26.2207490  79.4168800
 105.2022320  25.4494730  79.7455970 106.4766340  26.2473560  79.9221250
  95.6400450  26.1607200  81.7103450  95.9428490  25.2704940  81.5313670
  96.3844040  26.7177420  81.4825700  94.0691140  17.0869000  75.2987820
  93.1807840  17.4284970  75.1967700  94.3532330  16.8869320  74.4068650
  92.0324150  19.6874650  81.1827520  92.6040260  18.9196850  81.1831160
  92.0325690  19.9863410  80.2734130 101.8904100  28.5065500  79.0372790
 101.2715540  28.9623000  78.4667230 102.7455880  28.6616960  78.6362490
 101.0842350  24.4904490  80.6439830 101.0150630  23.5494430  80.4828960
 101.8462210  24.5805900  81.2162400  93.2749020  15.0959010  82.9696450
  93.0951860  14.1984760  83.2499210  92.8729100  15.6430880  83.6443400
 102.1147520  17.2974870  80.8708760 102.4912340  16.4246750  80.7582430
 102.0167030  17.6333570  79.9799200  96.2452530  15.6700500  76.3326200
  96.3519280  16.5704230  76.6394960  95.3344890  15.6218470  76.0420850
 105.8971640  14.7925310  77.8037100 106.7181260  14.3021880  77.8462580
 105.9305720  15.3822970  78.5568940  93.8935690  17.5919510  81.5778790
  94.5745800  17.8557880  82.1966190  93.5783740  16.7520380  81.9116800
  98.0860260  18.6386870  80.6651380  98.5938480  19.1367840  81.3056400
  98.6173500  17.8622070  80.4890740 110.1871190  16.8092060  84.3680730
 109.4823360  17.1973770  83.8495840 110.4529110  17.5042350  84.9701660
  96.3696360  13.2785430  84.9314800  96.3714800  13.7957820  84.1260700
  95.5400670  12.8015610  84.9084730 102.7567450  23.3904740  76.4304700
 102.1384720  23.8554190  75.8667420 103.2690700  24.0832220  76.8474210
  97.6199210  22.9180610  83.1088300  97.2868590  23.5449530  83.7509370
  97.7965890  23.4442490  82.3289970 106.1333120  16.7325690  80.5764640
 105.4288690  17.0210580  81.1567750 106.4945280  17.5425800  80.2164200
  96.0511690  14.9895390  82.9385250  96.3928500  15.8337440  82.6439120
  95.1127500  15.1379130  83.0550590  96.8318310  24.8861410  84.9237480
  97.4492310  25.5612490  84.6421930  95.9711430  25.2949390  84.8324980
  92.1250650  24.0761270  73.8044330  91.7478630  24.5648370  73.0729230
  92.3823720  24.7486550  74.4350860 107.7495900  26.3500820  82.8392120
 107.0659420  27.0199930  82.8308790 108.2890190  26.5481470  82.0736980
 109.2020040  16.1780480  80.9673850 108.2544950  16.2119460  81.0989280
 109.5270030  16.9919430  81.3523210  99.7339580  12.4777660  79.2629840
 100.0414560  11.9224550  78.5465340  98.8040280  12.6122120  79.0802830
 105.2854640  28.1944950  81.5537300 105.2981800  27.7907240  80.6859560
 104.7329860  28.9692240  81.4498730 106.5800060  24.9161170  76.6427470
 106.4696390  23.9735500  76.7676890 106.5768310  25.2776810  77.5290230
 104.6840080  23.0974790  82.8819910 105.1008870  22.8834900  82.0473370
 105.4079900  23.3547580  83.4528530 102.1220340  20.5426490  75.9989960
 101.1949620  20.4763870  76.2278430 102.2745160  21.4806620  75.8845200
 102.1089420  16.8143490  72.9957120 101.1693090  16.9757450  73.0809580
 102.4272680  17.5329170  72.4493110 108.6302180  21.4962010  82.9736150
 107.8020810  21.5655100  82.4986280 109.2252660  22.0816320  82.5051980
 106.1517630  22.1046790  76.5025210 105.5330050  21.7666340  75.8551510
 106.1342080  21.4606550  77.2104400 105.5944190  18.2831330  83.9191020
 105.1815370  19.1085040  84.1731010 104.8620140  17.6976370  83.7267380
  97.7276980  21.0691230  78.7809690  97.3233980  20.3568480  78.2855590
  97.8140100  20.7244470  79.6697730  98.1958680  24.7558790  80.9448900
  97.8986970  24.1504260  80.2656680  99.1458500  24.7936100  80.8338260
  96.4405600  17.8434440  82.5608730  96.9920190  17.9529780  81.7861980
  96.9549110  18.2172040  83.2763960 106.2844290  28.3290660  84.6072000
 105.8074850  29.1362850  84.4144610 105.6006080  27.6768990  84.7598210
  97.2877110  24.4940480  87.5956700  96.3905640  24.7180450  87.8430100
  97.3129980  24.6175420  86.6468100 104.3282330  21.3433600  73.5097960
 104.7675610  20.5056030  73.3635780 105.0410750  21.9763000  73.5962100
  96.1148330  21.3653800  86.1714070  95.9756100  22.2376600  86.5401470
  95.2329690  21.0226610  86.0262010 102.4377710  26.2829670  77.4779200
 102.8773620  27.0254000  77.0634590 102.3764600  26.5256240  78.4018160
  97.9128680  27.3075500  88.3799220  97.8844110  27.7118450  87.5127650
  97.7493650  26.3785860  88.2170820 107.9099470  12.5976410  71.8239000
 107.5972130  12.6903240  72.7238070 108.6711940  13.1757440  71.7736430
  94.4281610  19.9636210  76.2816340  94.3079210  20.6898300  75.6697610
  94.1182500  19.1939120  75.8044250 109.8643500  28.0902600  89.6763390
 110.3403220  28.5685490  90.3552470 110.4850660  28.0220090  88.9508890
  92.0666980  23.1351350  82.0884980  92.1447400  23.2700120  81.1440700
  92.6808660  22.4267240  82.2813100  93.3114610  24.8351540  78.4991160
  92.9042690  24.9766130  77.6444760  94.2027620  24.5511700  78.2962370
 109.2676750  25.2815450  86.8363400 109.3939810  25.0427330  85.9180580
 109.3098130  24.4499990  87.3085480 103.1293490  28.9843450  85.4058210
 103.6438160  28.8951460  86.2080640 102.2862570  29.3303150  85.6986120
 105.1047890  29.2698790  74.8342210 104.9449030  28.9801730  75.7324040
 104.9394600  28.4938920  74.2987440  97.5836270  29.0497320  76.6113830
  97.4078750  28.1332860  76.3981630  96.7292010  29.4084610  76.8511630
 104.8074020  26.7786350  73.3940210 104.1139180  26.7763640  72.7342490
 105.5496880  26.3545670  72.9634380 104.3723950  28.4049060  77.4688700
 104.8280900  27.6238440  77.7827320 104.7116470  29.1155880  78.0129880
 109.1200760  17.3347910  87.8013140 108.5045030  17.8427580  87.2728600
 108.7997180  16.4346240  87.7439080  92.1226500  24.1765520  84.6279440
  92.2857540  23.7070880  83.8098810  92.5878950  23.6689080  85.2928280
  96.8945270  13.3071280  79.6640010  96.4513420  14.0880820  79.3324530
  97.4530260  13.6301170  80.3710950 101.1815080  16.1739800  85.2675330
 100.7194450  16.3822820  86.0795270 100.7793190  15.3599150  84.9646000
 106.1819590  17.3948750  86.3971990 105.3313180  17.0954500  86.7181060
 106.0221380  17.6390760  85.4855810 103.2769300  18.8950500  88.4970780
 103.6022710  18.0614250  88.1573010 104.0649630  19.4179020  88.6449110
 100.0104090  12.9281980  74.5445840  99.3858270  12.9241850  75.2699150
  99.9234210  12.0612940  74.1481810  98.9321170  13.8518610  81.5229610
  99.2293500  14.7581440  81.4421630  99.4806730  13.3637390  80.9089180
  96.6859490  18.4304850  77.3921260  96.4600410  18.2142020  78.2967880
  95.9052020  18.8633310  77.0467230 103.9157250  18.4368220  75.9911910
 103.3166140  19.1604020  75.8075530 104.4636860  18.3745000  75.2088360
  99.1258700  19.3290430  88.0581530  99.0302300  18.3885160  87.9081930
  99.9690680  19.5505500  87.6629600 102.5222120  17.0731760  78.0215190
 102.9151690  17.3903960  77.2083880 102.8838970  16.1943640  78.1359710
  94.2569240  15.7404100  86.2115310  93.8632630  16.5879310  86.4188090
  93.5687640  15.1030470  86.4023950 100.8314290  15.8239070  89.2812050
 100.1412610  15.6311270  89.9158140 101.5746590  16.1073710  89.8136350
  91.5586290  13.6632560  80.2445390  91.2699340  14.2335420  80.9570370
  92.3032050  13.1837010  80.6076620  91.7456520  17.6052680  71.4548110
  91.6631190  18.5483440  71.5963100  91.3939580  17.4627590  70.5760460
 103.1077260  19.6637510  82.1165970 102.3758380  20.1724320  82.4656070
 102.7101600  18.8467490  81.8154750  99.5454650  16.3391710  80.5218460
  99.5490710  15.8981660  79.6723000 100.4405770  16.6609040  80.6290280
  95.3957030  16.2218200  79.4812670  95.0557080  16.6993430  80.2379720
  94.6334350  15.7683320  79.1213770  99.6074800  17.3403790  73.5125220
  99.7287620  17.2990270  74.4611040  99.2223310  18.2027940  73.3571950
 103.5703170  15.1171190  81.5288910 103.5875910  15.5679840  82.3730760
 103.3218750  14.2176830  81.7422350  98.6196300  19.6504930  72.9108520
  98.0513200  19.2023180  72.2844430  99.3285300  20.0097710  72.3773670
 106.9973920  12.5303370  87.3675290 107.3219690  11.7993030  87.8933270
 107.0330430  12.2117010  86.4656280  93.6965480  23.5516950  86.7875250
  93.3120270  22.9110620  87.3858210  94.0077670  24.2553070  87.3569980
  99.8462620  20.3993490  82.2683870 100.2132750  19.9252060  83.0145210
  99.6567680  21.2735060  82.6092210  92.7103110  15.1437180  78.3977340
  92.4250030  14.7792850  79.2355960  92.6481970  14.4117640  77.7840480
  97.6361990  19.4402130  84.5868080  97.3319060  20.3194110  84.8118440
  98.5908450  19.5001920  84.6225520  96.1643780  23.6463120  75.1834930
  95.3906040  23.1060740  75.0233650  96.8938410  23.1269730  74.8452690
 106.9231760  22.6428480  80.9761320 107.6430880  23.1383770  80.5857430
 106.7213580  21.9646370  80.3315190 102.3841700  14.0366440  75.1190710
 101.5706310  13.5379610  75.0436020 102.1903650  14.8764690  74.7027060
 102.3050560  22.7137540  86.8630320 102.2387870  21.7933210  86.6087910
 101.6755700  22.8112980  87.5774960 105.0990090  18.4086090  73.4152870
 105.9869710  18.7203320  73.2404210 105.0695180  17.5358340  73.0233450
  96.2081180  23.3143500  78.8213740  96.7259850  22.5111760  78.7670630
  95.7565200  23.2522640  79.6630570 101.0950680  24.5809780  74.0941040
 101.4366380  25.3252010  73.5984360 100.2663390  24.8940900  74.4565870
  93.6925720  20.2804870  85.7339440  93.3340660  20.9458720  86.3212780
  93.3980280  19.4488420  86.1052060  96.8938840  20.7389110  88.6178990
  96.5938980  20.8846290  87.7206810  97.6650080  20.1794400  88.5252380
 102.2367290  25.5358110  86.6134120 102.2511830  24.6039070  86.3953030
 101.5292390  25.6217870  87.2523890 107.3704360  19.7197930  72.8832730
 107.2868080  20.1512150  72.0329170 108.0898550  20.1796280  73.3159550
 108.4478500  22.1765450  85.9602700 107.7226690  22.7694230  85.7632090
 108.9753960  22.1688990  85.1616070 108.3991610  26.5740190  75.6114860
 107.7567770  25.9195810  75.8858580 108.0122270  26.9795280  74.8355530
 103.9778090  23.9025620  79.4586550 104.3301910  23.3053750  78.7987920
 103.0940420  23.5769850  79.6294800 100.0641370  24.6623310  76.8656960
 100.7512500  25.2092520  77.2464550  99.2773790  25.2064040  76.9006570
  92.2033770  20.2796130  72.3574040  93.0728620  20.5620930  72.6409960
  91.7124090  21.0932000  72.2422850  99.3668580  21.6669340  76.4782320
  99.8231360  22.4774590  76.7042510  99.0156790  21.3492480  77.3100810
 101.6701190  27.1775680  83.7074620 102.3143410  27.3835060  84.3848040
 102.0330630  26.4164080  83.2545470  95.2680360  12.0106990  76.9504840
  95.1394990  12.0024890  77.8989760  94.4442380  12.3490080  76.5995850
 102.9433270  25.1808030  82.4252070 103.5855500  24.4801190  82.5384240
 103.4682620  25.9606470  82.2448960 106.7888990  25.4656650  72.1491210
 106.5626570  24.7487090  72.7415850 106.3985190  25.2169090  71.3112960
 104.7170890  25.9802930  85.6288130 105.0527130  26.5669620  86.3066050
 103.7971230  25.8495640  85.8585920  92.5705020  29.4923510  72.9235670
  92.9302660  30.0912850  72.2692940  92.4297360  30.0383400  73.6970700
  92.2674290  13.7698110  86.4111540  91.5532810  13.9695030  87.0164150
  92.6869330  12.9937680  86.7826340 106.3705240  23.3828590  73.8105370
 106.0826940  23.8441280  74.5983250 107.1657410  22.9226360  74.0789590
 100.5459470  26.0294260  88.7976190 100.2256340  25.3103500  89.3421880
  99.8717830  26.7049330  88.8712250  98.5873640  26.8754710  73.7409340
  98.5783740  27.6084400  73.1253850  97.6672000  26.6286290  73.8336300
  94.1880280  22.0969600  74.4856100  93.5808230  22.8368500  74.4951400
  94.6629630  22.1868960  73.6594300 103.7613070  16.2620420  84.1612990
 104.1293890  15.4415630  84.4892560 102.9011270  16.3222310  84.5768640
 107.1275100  15.2177360  74.9700550 106.4988260  15.3223030  74.2558780
 106.6327020  15.4374140  75.7594430 101.5733240  26.9382950  72.4034530
 101.6745220  26.7346940  71.4736510 100.6734980  26.6841230  72.6082310
  99.0959130  17.4963310  76.3858430  98.3875280  17.9649650  76.8272040
  99.3803610  16.8385320  77.0203620 100.7215060  18.9160010  84.3850960
 101.2200310  19.3905830  85.0502810 100.8638010  17.9923530  84.5920990
 103.1274560  14.2213970  77.8254220 103.0042340  14.2400100  76.8763730
 104.0759120  14.2692910  77.9452620 100.2151350  29.4569270  77.0982200
 100.4692850  29.4190660  76.1761570  99.2663830  29.3302600  77.0910450
  97.2994150  15.8048390  73.7609140  98.1484680  16.2418540  73.6949330
  96.9325420  16.1168650  74.5881200 107.9281920  15.1327970  85.2279350
 107.4255520  15.8733370  85.5673160 108.7438580  15.5211970  84.9116140
 106.2203930  20.3761150  78.6740710 105.2794070  20.3911380  78.8488400
 106.5348000  19.5897110  79.1201010  96.1985570  22.0580750  72.2344670
  96.9648840  21.9462110  72.7970100  96.2760260  21.3618720  71.5821440
  94.8932330  19.4905820  72.9177560  94.9735920  18.5433330  73.0294960
  95.7852080  19.8212700  73.0238220 108.2229510  27.5470000  80.3494970
 108.3476930  28.3701170  80.8218780 109.0895070  27.3360730  80.0019120
  95.6947040  29.6401210  80.0212100  96.4309520  29.0916670  80.2920670
  96.0787960  30.5057220  79.8818090  92.5792520  25.7074780  75.8953610
  91.6532300  25.9495920  75.8859020  93.0448950  26.5349040  75.7738360
  94.7005320  28.8247280  89.2097680  95.5018050  29.1459330  89.6233080
  94.1857140  28.4642860  89.9317590  98.8049350  28.8131520  71.8437670
  99.5977960  29.1020350  71.3919460  98.2853700  28.3823690  71.1650150
 103.5369950  24.9327150  89.1573090 102.9308110  24.9558750  88.4168840
 103.2324060  24.2010190  89.6940340 104.9670320  28.6607440  87.7682500
 105.9192070  28.5765460  87.7182740 104.8198540  29.3249150  88.4416290
 107.8579520  28.0401650  73.2674410 107.5721030  27.6266790  72.4528590
 107.6599070  28.9689360  73.1474930  92.4203130  21.3120740  88.1533730
  92.9242150  20.7328020  88.7249960  91.6810550  21.5960970  88.6910100
  99.3226750  24.0334930  71.7080020  99.2177390  23.4187280  72.4341400
  99.1550970  23.5100820  70.9243030  99.4741070  22.7191730  87.6869250
  98.7086740  23.2876730  87.6023920  99.6557030  22.4267940  86.7937480
 102.5629480  23.0954960  72.3122010 102.0139580  23.5424260  72.9564750
 103.1848740  22.5904210  72.8359680 106.6164420  24.4497060  88.2444270
 107.3573890  24.7872820  87.7411730 105.8537100  24.6189120  87.6914040
  94.4526210  19.4550330  89.0483800  94.4931550  19.1564200  89.9569030
  95.3071710  19.8557940  88.8891320  98.2304600  22.0545880  74.2087310
  98.6521020  21.8885750  75.0518700  98.3555440  21.2446110  73.7142450
  96.3932020  18.0342430  87.0158290  95.8628480  17.5433380  86.3881630
  97.0620090  18.4626630  86.4816220 100.7432240  21.0783490  71.4564410
 101.2637900  20.3632510  71.0905560 101.3900640  21.7169360  71.7564920
 105.2910080  22.5011890  86.7799480 105.7051100  22.6556970  87.6289900
 104.3561080  22.6267110  86.9425260 105.7632250  19.8408050  88.7838630
 106.3453020  19.0860370  88.6959110 105.9394020  20.3715490  88.0070110
  96.8804320  15.0004800  87.0955580  96.7861190  14.3825550  86.3706450
  96.3001710  15.7271090  86.8685490  99.6465760  13.5578040  84.1282970
  99.1983060  13.5802300  83.2828520  99.0130960  13.1597060  84.7253270
 100.0525310  22.4532370  84.7495410 100.4713420  23.2965100  84.5771650
  99.1333940  22.5904410  84.5202190 102.3889210  20.1848550  86.1333250
 102.5085420  19.5889690  86.8728090 103.2483210  20.2218240  85.7134550
 104.7277110  20.7385740  84.7095760 104.2012330  21.2628360  84.1060900
 105.0708450  21.3713130  85.3405490  97.1263500  18.1279110  71.1545470
  96.9252560  17.2646470  71.5158810  96.9555550  18.0412470  70.2167070
  97.9032730  28.7585380  85.8653140  97.3653820  29.4831440  85.5461840
  98.1566690  28.2815720  85.0750480  99.1557980  16.7269900  87.3909070
  99.7457670  16.4185750  88.0786890  98.3378220  16.2549650  87.5468970
 103.9751410  16.3435710  87.6242090 103.2866930  15.6817250  87.5592080
 104.6957430  15.8973980  88.0690550 104.6051810  12.9387340  73.6832350
 104.8854100  12.0955240  74.0391770 103.8317540  13.1710450  74.1971100
  95.9246300  15.2279730  71.1423350  96.2272200  15.2347160  70.2342500
  96.6640890  14.8777590  71.6391010 100.7594940  29.9936590  86.1239790
 100.6853640  30.8971730  86.4312160  99.8573780  29.6748490  86.0961860
  99.1431230  14.1714350  72.1279550  98.7953230  13.4938340  71.5482000
  99.3444000  13.7103860  72.9422940 101.3080270  29.1595100  73.7466150
 102.2031060  29.4980070  73.7684910 101.3397900  28.4374510  73.1190430
  94.9476430  24.5322150  71.9753150  95.3851300  25.0751820  72.6310730
  95.4324160  23.7069100  71.9849490  92.1622230  27.3211180  79.4273410
  92.4925240  26.4532240  79.1952050  92.5913230  27.5269700  80.2578370
  96.7584150  25.6520190  77.0875380  96.4579690  25.5285160  77.9879290
  96.6521640  24.7928780  76.6791110 108.2874620  27.6898770  86.4532350
 107.6876610  27.7491330  85.7096270 108.4168520  26.7503750  86.5829200
 109.5276070  25.4316590  71.7902060 108.6969030  25.4993240  72.2609290
 109.7047900  26.3220710  71.4868920 108.9832530  22.1764070  74.2936260
 109.7451440  22.7460720  74.3995950 108.9986900  21.6091270  75.0644570
  92.4836870  20.7002000  78.5243920  91.8285710  20.4313640  77.8803620
  93.3214820  20.5906480  78.0745900 109.9892500  23.0314170  79.1378190
 110.3601330  22.2481490  78.7314160 110.6294430  23.7203270  78.9595490
 106.9726260  24.4150750  84.5508510 106.1586100  24.8447910  84.8134300
 107.3800460  25.0269160  83.9377560 109.0351700  22.4698440  71.4508780
 109.3100540  23.3777320  71.3228000 108.8462440  22.4060970  72.3870770
 105.4327310  15.4943290  72.7462410 105.8512190  15.3074270  71.9059070
 105.1263370  14.6422340  73.0565340 108.9317040  20.4067430  76.4438210
 108.5560640  19.6395360  76.0119500 108.2020160  20.7890130  76.9313140
  93.5212800  21.0854570  83.0647260  93.8885840  20.9981970  83.9443280
  92.9523620  20.3221120  82.9654120 108.3216660  19.5538950  86.0777730
 108.0902750  19.3251700  85.1775680 108.5821210  20.4738500  86.0322620
  93.0728800  17.9963660  86.9705680  92.1784850  17.9630420  87.3099390
  93.6126350  18.1950450  87.7356930 106.7604730  14.7795380  88.8557430
 107.6374910  14.7878780  89.2391430 106.7725570  14.0426220  88.2449780
  91.6974950  17.9100930  74.4669250  90.7939030  18.1731130  74.2920910
  92.1815570  18.1812100  73.6869210 108.2068000  18.6324920  79.7445450
 108.7305480  18.1387570  79.1135620 108.7927420  18.7675280  80.4893020
 108.3857720  18.7164790  83.2665000 107.4360430  18.6828330  83.3809990
 108.5670730  19.6264900  83.0314770  94.2402160  16.9666470  72.3763630
  94.9493860  16.5449690  71.8910910  93.5242100  17.0341700  71.7446980
  93.8876320  13.0205800  71.4166280  94.6104450  13.5614740  71.7347500
  94.1600840  12.7469220  70.5407820 107.6967970  17.8898270  75.6837860
 108.1927090  17.6569140  76.4686740 107.4984040  17.0510110  75.2675500
  93.5768510  12.2711990  81.3188900  94.2244700  11.7209370  80.8784060
  93.9970350  12.5255140  82.1404710 109.1255130  16.5259220  78.2175540
 109.0154410  16.3715260  79.1557810 109.8862720  15.9980160  77.9750950
 107.4720850  12.4653350  84.6758540 108.1093070  13.0787490  85.0417730
 107.6195740  12.5014010  83.7307770 110.0145400  14.3567140  71.4581680
 110.9394710  14.2248320  71.2499970 109.9921190  14.4359960  72.4118130
 110.0883890  15.1277800  74.0838390 109.2935390  15.0622920  74.6131300
 110.2927170  16.0628440  74.0723740 107.0302310  29.1669350  78.0776780
 107.6261380  28.8453920  77.4011200 107.2880460  28.6941170  78.8690050
  93.3300510  12.4267660  84.0614220  92.9815330  12.8831480  84.8272400
  92.9988210  11.5324790  84.1436650  94.9364880  25.5987260  88.2267410
  94.8934510  25.2280170  89.1081870  95.0675890  26.5364830  88.3669230
  98.6370910  27.1546850  83.8277130  98.3962270  27.4221410  82.9407650
  99.5773550  27.3252580  83.8827990 100.8425330  13.6179540  87.5833640
 100.7814220  14.2101370  88.3329050 101.7825710  13.5105500  87.4383900
 103.4799890  13.2749600  87.2225930 104.0940300  13.5928890  86.5607010
 104.0249450  12.7898190  87.8421790 109.8975070  29.1741230  84.6287770
 109.4033350  29.5710100  83.9114900 109.2888360  28.5490440  85.0225050
  94.0021150  11.9543860  87.3364990  94.5504140  11.7731910  86.5731100
  94.0676460  11.1637970  87.8721300  94.7752910  28.5449510  85.3465190
  94.1813230  28.4134210  86.0855230  94.7676750  27.7087650  84.8807290
 104.2207930  11.8381740  83.5495220 103.3467770  12.1716850  83.3468150
 104.1118680  11.3654920  84.3747090 105.1279910  14.0452610  84.9336940
 104.7993270  13.2304370  84.5538670 106.0762210  14.0022420  84.8102630
 107.5814520  29.8164650  81.9074510 107.1217490  30.5680460  81.5332530
 106.9526980  29.0971120  81.8489310  94.4065140  25.9107890  84.2973230
  93.6799200  25.2913180  84.2299180  94.4674290  26.3048500  83.4271310
  98.0110240  28.1252890  81.0822640  98.5275260  27.5140250  80.5570900
  98.6607620  28.6281670  81.5733650 100.7505740  29.0161380  81.9091620
 101.0383550  28.7615680  81.0324630 101.2628960  28.4638740  82.4997190
 101.9682750  12.7551580  82.4888130 101.1854540  13.2297080  82.7684890
 101.6745680  11.8506410  82.3801310 106.5203820  13.4574680  80.5337220
 106.9611910  13.4019780  79.6858820 106.2511410  14.3732690  80.6047400
 108.3842390  13.0889920  78.5446040 108.3230790  12.1451140  78.3977060
 109.1634420  13.1970010  79.0899500  92.6895140  29.2282280  77.5069990
  92.5217180  28.5952960  78.2051880  91.8229650  29.4341680  77.1564180
  93.3123160  13.0599060  75.0101850  94.0702520  13.1727940  74.4365880
  92.8500330  13.8968260  74.9645280  99.8536970  15.1738330  78.0004160
  99.0411480  14.7995220  77.6600040 100.3578610  14.4183410  78.3025350
 104.3561950  11.8380780  79.2387230 104.9591320  12.4100990  79.7135750
 103.6154940  12.4020220  79.0161130 107.4996550  12.2402340  74.5127510
 107.6947180  13.1385790  74.7794940 106.7126420  12.0089420  75.0060460
  94.2957840  27.9215510  74.9520130  93.7705460  28.3023540  74.2482090
  94.2202420  28.5466280  75.6729840  95.6848310  13.5863110  73.5503820
  96.2141070  12.7992910  73.4211770  96.3176630  14.2654300  73.7839350
  97.8786150  13.3238250  76.6049210  97.2488890  12.6225560  76.7719340
  97.3391290  14.0842380  76.3882370 100.8178100  29.9377480  89.2759820
 101.7445410  29.7021750  89.3195780 100.8028530  30.7649480  88.7945850
 109.0523160  29.4803050  76.2734070 109.2275350  28.7940790  75.6294990
 108.3544730  30.0050100  75.8810740  98.0041710  12.6022230  89.0401700
  97.7225980  13.1055830  88.2762520  98.3861410  11.8043980  88.6743830
  96.8950810  29.8697890  73.8269380  97.6269630  29.5857170  73.2793270
  97.1544480  29.6311170  74.7168760  96.0565600  25.9862620  73.8315710
  95.4274480  26.4547720  74.3801540  96.1713430  25.1411840  74.2661900
 104.6057170  12.0175810  89.6182170 104.4922620  12.3370420  90.5133690
 105.4226910  12.4188320  89.3219450 107.3855660  29.1647340  89.1000860
 108.1780980  28.6696570  88.8926820 107.6788810  29.8437480  89.7076470
 103.5115320  20.0368280  59.9816910 103.4309370  19.1222890  59.7108620
 103.0979740  20.5335350  59.2756620 101.6433360  21.8147300  61.8626180
 100.8675460  21.3347740  62.1524750 102.2946290  21.1352950  61.6882340
  95.6599190  22.1267110  62.7401940  94.8284070  21.8715820  63.1398450
  96.2680170  22.1977880  63.4759860 105.6640790  26.2207490  60.6425310
 105.2022320  25.4494730  60.9712480 106.4766340  26.2473560  61.1477760
  95.6400450  26.1607200  62.9359960  95.9428490  25.2704940  62.7570180
  96.3844040  26.7177420  62.7082210  94.0691140  17.0869000  56.5244330
  93.1807840  17.4284970  56.4224210  94.3532330  16.8869320  55.6325160
  92.0324150  19.6874650  62.4084030  92.6040260  18.9196850  62.4087670
  92.0325690  19.9863410  61.4990640 101.8904100  28.5065500  60.2629300
 101.2715540  28.9623000  59.6923740 102.7455880  28.6616960  59.8619000
 101.0842350  24.4904490  61.8696340 101.0150630  23.5494430  61.7085470
 101.8462210  24.5805900  62.4418910  93.2749020  15.0959010  64.1952960
  93.0951860  14.1984760  64.4755720  92.8729100  15.6430880  64.8699910
 102.1147520  17.2974870  62.0965270 102.4912340  16.4246750  61.9838940
 102.0167030  17.6333570  61.2055710  96.2452530  15.6700500  57.5582710
  96.3519280  16.5704230  57.8651470  95.3344890  15.6218470  57.2677360
 105.8971640  14.7925310  59.0293610 106.7181260  14.3021880  59.0719090
 105.9305720  15.3822970  59.7825450  93.8935690  17.5919510  62.8035300
  94.5745800  17.8557880  63.4222700  93.5783740  16.7520380  63.1373310
  98.0860260  18.6386870  61.8907890  98.5938480  19.1367840  62.5312910
  98.6173500  17.8622070  61.7147250 110.1871190  16.8092060  65.5937240
 109.4823360  17.1973770  65.0752350 110.4529110  17.5042350  66.1958170
  96.3696360  13.2785430  66.1571310  96.3714800  13.7957820  65.3517210
  95.5400670  12.8015610  66.1341240 102.7567450  23.3904740  57.6561210
 102.1384720  23.8554190  57.0923930 103.2690700  24.0832220  58.0730720
  97.6199210  22.9180610  64.3344810  97.2868590  23.5449530  64.9765880
  97.7965890  23.4442490  63.5546480 106.1333120  16.7325690  61.8021150
 105.4288690  17.0210580  62.3824260 106.4945280  17.5425800  61.4420710
  96.0511690  14.9895390  64.1641760  96.3928500  15.8337440  63.8695630
  95.1127500  15.1379130  64.2807100  96.8318310  24.8861410  66.1493990
  97.4492310  25.5612490  65.8678440  95.9711430  25.2949390  66.0581490
  92.1250650  24.0761270  55.0300840  91.7478630  24.5648370  54.2985740
  92.3823720  24.7486550  55.6607370 107.7495900  26.3500820  64.0648630
 107.0659420  27.0199930  64.0565300 108.2890190  26.5481470  63.2993490
 109.2020040  16.1780480  62.1930360 108.2544950  16.2119460  62.3245790
 109.5270030  16.9919430  62.5779720  99.7339580  12.4777660  60.4886350
 100.0414560  11.9224550  59.7721850  98.8040280  12.6122120  60.3059340
 105.2854640  28.1944950  62.7793810 105.2981800  27.7907240  61.9116070
 104.7329860  28.9692240  62.6755240 106.5800060  24.9161170  57.8683980
 106.4696390  23.9735500  57.9933400 106.5768310  25.2776810  58.7546740
 104.6840080  23.0974790  64.1076420 105.1008870  22.8834900  63.2729880
 105.4079900  23.3547580  64.6785040 102.1220340  20.5426490  57.2246470
 101.1949620  20.4763870  57.4534940 102.2745160  21.4806620  57.1101710
 102.1089420  16.8143490  54.2213630 101.1693090  16.9757450  54.3066090
 102.4272680  17.5329170  53.6749620 108.6302180  21.4962010  64.1992660
 107.8020810  21.5655100  63.7242790 109.2252660  22.0816320  63.7308490
 106.1517630  22.1046790  57.7281720 105.5330050  21.7666340  57.0808020
 106.1342080  21.4606550  58.4360910 105.5944190  18.2831330  65.1447530
 105.1815370  19.1085040  65.3987520 104.8620140  17.6976370  64.9523890
  97.7276980  21.0691230  60.0066200  97.3233980  20.3568480  59.5112100
  97.8140100  20.7244470  60.8954240  98.1958680  24.7558790  62.1705410
  97.8986970  24.1504260  61.4913190  99.1458500  24.7936100  62.0594770
  96.4405600  17.8434440  63.7865240  96.9920190  17.9529780  63.0118490
  96.9549110  18.2172040  64.5020470 106.2844290  28.3290660  65.8328510
 105.8074850  29.1362850  65.6401120 105.6006080  27.6768990  65.9854720
  97.2877110  24.4940480  68.8213210  96.3905640  24.7180450  69.0686610
  97.3129980  24.6175420  67.8724610 104.3282330  21.3433600  54.7354470
 104.7675610  20.5056030  54.5892290 105.0410750  21.9763000  54.8218610
  96.1148330  21.3653800  67.3970580  95.9756100  22.2376600  67.7657980
  95.2329690  21.0226610  67.2518520 102.4377710  26.2829670  58.7035710
 102.8773620  27.0254000  58.2891100 102.3764600  26.5256240  59.6274670
  97.9128680  27.3075500  69.6055730  97.8844110  27.7118450  68.7384160
  97.7493650  26.3785860  69.4427330 107.9099470  12.5976410  53.0495510
 107.5972130  12.6903240  53.9494580 108.6711940  13.1757440  52.9992940
  94.4281610  19.9636210  57.5072850  94.3079210  20.6898300  56.8954120
  94.1182500  19.1939120  57.0300760 109.8643500  28.0902600  70.9019900
 110.3403220  28.5685490  71.5808980 110.4850660  28.0220090  70.1765400
  92.0666980  23.1351350  63.3141490  92.1447400  23.2700120  62.3697210
  92.6808660  22.4267240  63.5069610  93.3114610  24.8351540  59.7247670
  92.9042690  24.9766130  58.8701270  94.2027620  24.5511700  59.5218880
 109.2676750  25.2815450  68.0619910 109.3939810  25.0427330  67.1437090
 109.3098130  24.4499990  68.5341990 103.1293490  28.9843450  66.6314720
 103.6438160  28.8951460  67.4337150 102.2862570  29.3303150  66.9242630
 105.1047890  29.2698790  56.0598720 104.9449030  28.9801730  56.9580550
 104.9394600  28.4938920  55.5243950  97.5836270  29.0497320  57.8370340
  97.4078750  28.1332860  57.6238140  96.7292010  29.4084610  58.0768140
 104.8074020  26.7786350  54.6196720 104.1139180  26.7763640  53.9599000
 105.5496880  26.3545670  54.1890890 104.3723950  28.4049060  58.6945210
 104.8280900  27.6238440  59.0083830 104.7116470  29.1155880  59.2386390
 109.1200760  17.3347910  69.0269650 108.5045030  17.8427580  68.4985110
 108.7997180  16.4346240  68.9695590  92.1226500  24.1765520  65.8535950
  92.2857540  23.7070880  65.0355320  92.5878950  23.6689080  66.5184790
  96.8945270  13.3071280  60.8896520  96.4513420  14.0880820  60.5581040
  97.4530260  13.6301170  61.5967460 101.1815080  16.1739800  66.4931840
 100.7194450  16.3822820  67.3051780 100.7793190  15.3599150  66.1902510
 106.1819590  17.3948750  67.6228500 105.3313180  17.0954500  67.9437570
 106.0221380  17.6390760  66.7112320 103.2769300  18.8950500  69.7227290
 103.6022710  18.0614250  69.3829520 104.0649630  19.4179020  69.8705620
 100.0104090  12.9281980  55.7702350  99.3858270  12.9241850  56.4955660
  99.9234210  12.0612940  55.3738320  98.9321170  13.8518610  62.7486120
  99.2293500  14.7581440  62.6678140  99.4806730  13.3637390  62.1345690
  96.6859490  18.4304850  58.6177770  96.4600410  18.2142020  59.5224390
  95.9052020  18.8633310  58.2723740 103.9157250  18.4368220  57.2168420
 103.3166140  19.1604020  57.0332040 104.4636860  18.3745000  56.4344870
  99.1258700  19.3290430  69.2838040  99.0302300  18.3885160  69.1338440
  99.9690680  19.5505500  68.8886110 102.5222120  17.0731760  59.2471700
 102.9151690  17.3903960  58.4340390 102.8838970  16.1943640  59.3616220
  94.2569240  15.7404100  67.4371820  93.8632630  16.5879310  67.6444600
  93.5687640  15.1030470  67.6280460 100.8314290  15.8239070  70.5068560
 100.1412610  15.6311270  71.1414650 101.5746590  16.1073710  71.0392860
  91.5586290  13.6632560  61.4701900  91.2699340  14.2335420  62.1826880
  92.3032050  13.1837010  61.8333130  91.7456520  17.6052680  52.6804620
  91.6631190  18.5483440  52.8219610  91.3939580  17.4627590  51.8016970
 103.1077260  19.6637510  63.3422480 102.3758380  20.1724320  63.6912580
 102.7101600  18.8467490  63.0411260  99.5454650  16.3391710  61.7474970
  99.5490710  15.8981660  60.8979510 100.4405770  16.6609040  61.8546790
  95.3957030  16.2218200  60.7069180  95.0557080  16.6993430  61.4636230
  94.6334350  15.7683320  60.3470280  99.6074800  17.3403790  54.7381730
  99.7287620  17.2990270  55.6867550  99.2223310  18.2027940  54.5828460
 103.5703170  15.1171190  62.7545420 103.5875910  15.5679840  63.5987270
 103.3218750  14.2176830  62.9678860  98.6196300  19.6504930  54.1365030
  98.0513200  19.2023180  53.5100940  99.3285300  20.0097710  53.6030180
 106.9973920  12.5303370  68.5931800 107.3219690  11.7993030  69.1189780
 107.0330430  12.2117010  67.6912790  93.6965480  23.5516950  68.0131760
  93.3120270  22.9110620  68.6114720  94.0077670  24.2553070  68.5826490
  99.8462620  20.3993490  63.4940380 100.2132750  19.9252060  64.2401720
  99.6567680  21.2735060  63.8348720  92.7103110  15.1437180  59.6233850
  92.4250030  14.7792850  60.4612470  92.6481970  14.4117640  59.0096990
  97.6361990  19.4402130  65.8124590  97.3319060  20.3194110  66.0374950
  98.5908450  19.5001920  65.8482030  96.1643780  23.6463120  56.4091440
  95.3906040  23.1060740  56.2490160  96.8938410  23.1269730  56.0709200
 106.9231760  22.6428480  62.2017830 107.6430880  23.1383770  61.8113940
 106.7213580  21.9646370  61.5571700 102.3841700  14.0366440  56.3447220
 101.5706310  13.5379610  56.2692530 102.1903650  14.8764690  55.9283570
 102.3050560  22.7137540  68.0886830 102.2387870  21.7933210  67.8344420
 101.6755700  22.8112980  68.8031470 105.0990090  18.4086090  54.6409380
 105.9869710  18.7203320  54.4660720 105.0695180  17.5358340  54.2489960
  96.2081180  23.3143500  60.0470250  96.7259850  22.5111760  59.9927140
  95.7565200  23.2522640  60.8887080 101.0950680  24.5809780  55.3197550
 101.4366380  25.3252010  54.8240870 100.2663390  24.8940900  55.6822380
  93.6925720  20.2804870  66.9595950  93.3340660  20.9458720  67.5469290
  93.3980280  19.4488420  67.3308570  96.8938840  20.7389110  69.8435500
  96.5938980  20.8846290  68.9463320  97.6650080  20.1794400  69.7508890
 102.2367290  25.5358110  67.8390630 102.2511830  24.6039070  67.6209540
 101.5292390  25.6217870  68.4780400 107.3704360  19.7197930  54.1089240
 107.2868080  20.1512150  53.2585680 108.0898550  20.1796280  54.5416060
 108.4478500  22.1765450  67.1859210 107.7226690  22.7694230  66.9888600
 108.9753960  22.1688990  66.3872580 108.3991610  26.5740190  56.8371370
 107.7567770  25.9195810  57.1115090 108.0122270  26.9795280  56.0612040
 103.9778090  23.9025620  60.6843060 104.3301910  23.3053750  60.0244430
 103.0940420  23.5769850  60.8551310 100.0641370  24.6623310  58.0913470
 100.7512500  25.2092520  58.4721060  99.2773790  25.2064040  58.1263080
  92.2033770  20.2796130  53.5830550  93.0728620  20.5620930  53.8666470
  91.7124090  21.0932000  53.4679360  99.3668580  21.6669340  57.7038830
  99.8231360  22.4774590  57.9299020  99.0156790  21.3492480  58.5357320
 101.6701190  27.1775680  64.9331130 102.3143410  27.3835060  65.6104550
 102.0330630  26.4164080  64.4801980  95.2680360  12.0106990  58.1761350
  95.1394990  12.0024890  59.1246270  94.4442380  12.3490080  57.8252360
 102.9433270  25.1808030  63.6508580 103.5855500  24.4801190  63.7640750
 103.4682620  25.9606470  63.4705470 106.7888990  25.4656650  53.3747720
 106.5626570  24.7487090  53.9672360 106.3985190  25.2169090  52.5369470
 104.7170890  25.9802930  66.8544640 105.0527130  26.5669620  67.5322560
 103.7971230  25.8495640  67.0842430  92.5705020  29.4923510  54.1492180
  92.9302660  30.0912850  53.4949450  92.4297360  30.0383400  54.9227210
  92.2674290  13.7698110  67.6368050  91.5532810  13.9695030  68.2420660
  92.6869330  12.9937680  68.0082850 106.3705240  23.3828590  55.0361880
 106.0826940  23.8441280  55.8239760 107.1657410  22.9226360  55.3046100
  92.5546880  27.7578370  68.6234580  92.6638000  26.8173110  68.4829970
  91.9027440  28.0233120  67.9748310 100.5459470  26.0294260  70.0232700
 100.2256340  25.3103500  70.5678390  99.8717830  26.7049330  70.0968760
  98.5873640  26.8754710  54.9665850  98.5783740  27.6084400  54.3510360
  97.6672000  26.6286290  55.0592810  94.1880280  22.0969600  55.7112610
  93.5808230  22.8368500  55.7207910  94.6629630  22.1868960  54.8850810
 103.7613070  16.2620420  65.3869500 104.1293890  15.4415630  65.7149070
 102.9011270  16.3222310  65.8025150 107.1275100  15.2177360  56.1957060
 106.4988260  15.3223030  55.4815290 106.6327020  15.4374140  56.9850940
 101.5733240  26.9382950  53.6291040 101.6745220  26.7346940  52.6993020
 100.6734980  26.6841230  53.8338820  99.0959130  17.4963310  57.6114940
  98.3875280  17.9649650  58.0528550  99.3803610  16.8385320  58.2460130
 100.7215060  18.9160010  65.6107470 101.2200310  19.3905830  66.2759320
 100.8638010  17.9923530  65.8177500 103.1274560  14.2213970  59.0510730
 103.0042340  14.2400100  58.1020240 104.0759120  14.2692910  59.1709130
 100.2151350  29.4569270  58.3238710 100.4692850  29.4190660  57.4018080
  99.2663830  29.3302600  58.3166960  97.2994150  15.8048390  54.9865650
  98.1484680  16.2418540  54.9205840  96.9325420  16.1168650  55.8137710
 107.9281920  15.1327970  66.4535860 107.4255520  15.8733370  66.7929670
 108.7438580  15.5211970  66.1372650 106.2203930  20.3761150  59.8997220
 105.2794070  20.3911380  60.0744910 106.5348000  19.5897110  60.3457520
  96.1985570  22.0580750  53.4601180  96.9648840  21.9462110  54.0226610
  96.2760260  21.3618720  52.8077950  94.8932330  19.4905820  54.1434070
  94.9735920  18.5433330  54.2551470  95.7852080  19.8212700  54.2494730
 108.2229510  27.5470000  61.5751480 108.3476930  28.3701170  62.0475290
 109.0895070  27.3360730  61.2275630  95.6947040  29.6401210  61.2468610
  96.4309520  29.0916670  61.5177180  96.0787960  30.5057220  61.1074600
  92.5792520  25.7074780  57.1210120  91.6532300  25.9495920  57.1115530
  93.0448950  26.5349040  56.9994870  94.7005320  28.8247280  70.4354190
  95.5018050  29.1459330  70.8489590  94.1857140  28.4642860  71.1574100
  98.8049350  28.8131520  53.0694180  99.5977960  29.1020350  52.6175970
  98.2853700  28.3823690  52.3906660 103.5369950  24.9327150  70.3829600
 102.9308110  24.9558750  69.6425350 103.2324060  24.2010190  70.9196850
 104.9670320  28.6607440  68.9939010 105.9192070  28.5765460  68.9439250
 104.8198540  29.3249150  69.6672800 107.8579520  28.0401650  54.4930920
 107.5721030  27.6266790  53.6785100 107.6599070  28.9689360  54.3731440
  92.4203130  21.3120740  69.3790240  92.9242150  20.7328020  69.9506470
  91.6810550  21.5960970  69.9166610  99.3226750  24.0334930  52.9336530
  99.2177390  23.4187280  53.6597910  99.1550970  23.5100820  52.1499540
  99.4741070  22.7191730  68.9125760  98.7086740  23.2876730  68.8280430
  99.6557030  22.4267940  68.0193990 102.5629480  23.0954960  53.5378520
 102.0139580  23.5424260  54.1821260 103.1848740  22.5904210  54.0616190
 106.6164420  24.4497060  69.4700780 107.3573890  24.7872820  68.9668240
 105.8537100  24.6189120  68.9170550  94.4526210  19.4550330  70.2740310
  94.4931550  19.1564200  71.1825540  95.3071710  19.8557940  70.1147830
  98.2304600  22.0545880  55.4343820  98.6521020  21.8885750  56.2775210
  98.3555440  21.2446110  54.9398960  96.3932020  18.0342430  68.2414800
  95.8628480  17.5433380  67.6138140  97.0620090  18.4626630  67.7072730
 100.7432240  21.0783490  52.6820920 101.2637900  20.3632510  52.3162070
 101.3900640  21.7169360  52.9821430 105.2910080  22.5011890  68.0055990
 105.7051100  22.6556970  68.8546410 104.3561080  22.6267110  68.1681770
 105.7632250  19.8408050  70.0095140 106.3453020  19.0860370  69.9215620
 105.9394020  20.3715490  69.2326620  96.8804320  15.0004800  68.3212090
  96.7861190  14.3825550  67.5962960  96.3001710  15.7271090  68.0942000
  99.6465760  13.5578040  65.3539480  99.1983060  13.5802300  64.5085030
  99.0130960  13.1597060  65.9509780 100.0525310  22.4532370  65.9751920
 100.4713420  23.2965100  65.8028160  99.1333940  22.5904410  65.7458700
 102.3889210  20.1848550  67.3589760 102.5085420  19.5889690  68.0984600
 103.2483210  20.2218240  66.9391060 104.7277110  20.7385740  65.9352270
 104.2012330  21.2628360  65.3317410 105.0708450  21.3713130  66.5662000
  97.1263500  18.1279110  52.3801980  96.9252560  17.2646470  52.7415320
  96.9555550  18.0412470  51.4423580  97.9032730  28.7585380  67.0909650
  97.3653820  29.4831440  66.7718350  98.1566690  28.2815720  66.3006990
  99.1557980  16.7269900  68.6165580  99.7457670  16.4185750  69.3043400
  98.3378220  16.2549650  68.7725480 103.9751410  16.3435710  68.8498600
 103.2866930  15.6817250  68.7848590 104.6957430  15.8973980  69.2947060
 104.6051810  12.9387340  54.9088860 104.8854100  12.0955240  55.2648280
 103.8317540  13.1710450  55.4227610  95.9246300  15.2279730  52.3679860
  96.2272200  15.2347160  51.4599010  96.6640890  14.8777590  52.8647520
 100.7594940  29.9936590  67.3496300 100.6853640  30.8971730  67.6568670
  99.8573780  29.6748490  67.3218370  99.1431230  14.1714350  53.3536060
  98.7953230  13.4938340  52.7738510  99.3444000  13.7103860  54.1679450
 101.3080270  29.1595100  54.9722660 102.2031060  29.4980070  54.9941420
 101.3397900  28.4374510  54.3446940  94.9476430  24.5322150  53.2009660
  95.3851300  25.0751820  53.8567240  95.4324160  23.7069100  53.2106000
  92.1622230  27.3211180  60.6529920  92.4925240  26.4532240  60.4208560
  92.5913230  27.5269700  61.4834880  96.7584150  25.6520190  58.3131890
  96.4579690  25.5285160  59.2135800  96.6521640  24.7928780  57.9047620
  92.6512440  28.1881770  63.3911550  92.2143430  28.3682570  64.2235700
  93.2190120  28.9456390  63.2493270 108.2874620  27.6898770  67.6788860
 107.6876610  27.7491330  66.9352780 108.4168520  26.7503750  67.8085710
 109.5276070  25.4316590  53.0158570 108.6969030  25.4993240  53.4865800
 109.7047900  26.3220710  52.7125430 108.9832530  22.1764070  55.5192770
 109.7451440  22.7460720  55.6252460 108.9986900  21.6091270  56.2901080
  92.4836870  20.7002000  59.7500430  91.8285710  20.4313640  59.1060130
  93.3214820  20.5906480  59.3002410 109.9892500  23.0314170  60.3634700
 110.3601330  22.2481490  59.9570670 110.6294430  23.7203270  60.1852000
 106.9726260  24.4150750  65.7765020 106.1586100  24.8447910  66.0390810
 107.3800460  25.0269160  65.1634070 109.0351700  22.4698440  52.6765290
 109.3100540  23.3777320  52.5484510 108.8462440  22.4060970  53.6127280
 105.4327310  15.4943290  53.9718920 105.8512190  15.3074270  53.1315580
 105.1263370  14.6422340  54.2821850 108.9317040  20.4067430  57.6694720
 108.5560640  19.6395360  57.2376010 108.2020160  20.7890130  58.1569650
  93.5212800  21.0854570  64.2903770  93.8885840  20.9981970  65.1699790
  92.9523620  20.3221120  64.1910630 108.3216660  19.5538950  67.3034240
 108.0902750  19.3251700  66.4032190 108.5821210  20.4738500  67.2579130
  93.0728800  17.9963660  68.1962190  92.1784850  17.9630420  68.5355900
  93.6126350  18.1950450  68.9613440 106.7604730  14.7795380  70.0813940
 107.6374910  14.7878780  70.4647940 106.7725570  14.0426220  69.4706290
  91.6974950  17.9100930  55.6925760  90.7939030  18.1731130  55.5177420
  92.1815570  18.1812100  54.9125720 108.2068000  18.6324920  60.9701960
 108.7305480  18.1387570  60.3392130 108.7927420  18.7675280  61.7149530
 108.3857720  18.7164790  64.4921510 107.4360430  18.6828330  64.6066500
 108.5670730  19.6264900  64.2571280  94.2402160  16.9666470  53.6020140
  94.9493860  16.5449690  53.1167420  93.5242100  17.0341700  52.9703490
  93.8876320  13.0205800  52.6422790  94.6104450  13.5614740  52.9604010
  94.1600840  12.7469220  51.7664330 107.6967970  17.8898270  56.9094370
 108.1927090  17.6569140  57.6943250 107.4984040  17.0510110  56.4932010
  93.5768510  12.2711990  62.5445410  94.2244700  11.7209370  62.1040570
  93.9970350  12.5255140  63.3661220 109.1255130  16.5259220  59.4432050
 109.0154410  16.3715260  60.3814320 109.8862720  15.9980160  59.2007460
 107.4720850  12.4653350  65.9015050 108.1093070  13.0787490  66.2674240
 107.6195740  12.5014010  64.9564280 110.0145400  14.3567140  52.6838190
 110.9394710  14.2248320  52.4756480 109.9921190  14.4359960  53.6374640
 110.0883890  15.1277800  55.3094900 109.2935390  15.0622920  55.8387810
 110.2927170  16.0628440  55.2980250 107.0302310  29.1669350  59.3033290
 107.6261380  28.8453920  58.6267710 107.2880460  28.6941170  60.0946560
  93.3300510  12.4267660  65.2870730  92.9815330  12.8831480  66.0528910
  92.9988210  11.5324790  65.3693160  94.9364880  25.5987260  69.4523920
  94.8934510  25.2280170  70.3338380  95.0675890  26.5364830  69.5925740
  98.6370910  27.1546850  65.0533640  98.3962270  27.4221410  64.1664160
  99.5773550  27.3252580  65.1084500 100.8425330  13.6179540  68.8090150
 100.7814220  14.2101370  69.5585560 101.7825710  13.5105500  68.6640410
 103.4799890  13.2749600  68.4482440 104.0940300  13.5928890  67.7863520
 104.0249450  12.7898190  69.0678300 109.8975070  29.1741230  65.8544280
 109.4033350  29.5710100  65.1371410 109.2888360  28.5490440  66.2481560
  94.0021150  11.9543860  68.5621500  94.5504140  11.7731910  67.7987610
  94.0676460  11.1637970  69.0977810  94.7752910  28.5449510  66.5721700
  94.1813230  28.4134210  67.3111740  94.7676750  27.7087650  66.1063800
 104.2207930  11.8381740  64.7751730 103.3467770  12.1716850  64.5724660
 104.1118680  11.3654920  65.6003600 105.1279910  14.0452610  66.1593450
 104.7993270  13.2304370  65.7795180 106.0762210  14.0022420  66.0359140
 107.5814520  29.8164650  63.1331020 107.1217490  30.5680460  62.7589040
 106.9526980  29.0971120  63.0745820  94.4065140  25.9107890  65.5229740
  93.6799200  25.2913180  65.4555690  94.4674290  26.3048500  64.6527820
  98.0110240  28.1252890  62.3079150  98.5275260  27.5140250  61.7827410
  98.6607620  28.6281670  62.7990160 100.7505740  29.0161380  63.1348130
 101.0383550  28.7615680  62.2581140 101.2628960  28.4638740  63.7253700
 101.9682750  12.7551580  63.7144640 101.1854540  13.2297080  63.9941400
 101.6745680  11.8506410  63.6057820 106.5203820  13.4574680  61.7593730
 106.9611910  13.4019780  60.9115330 106.2511410  14.3732690  61.8303910
 108.3842390  13.0889920  59.7702550 108.3230790  12.1451140  59.6233570
 109.1634420  13.1970010  60.3156010  92.6895140  29.2282280  58.7326500
  92.5217180  28.5952960  59.4308390  91.8229650  29.4341680  58.3820690
  93.3123160  13.0599060  56.2358360  94.0702520  13.1727940  55.6622390
  92.8500330  13.8968260  56.1901790  99.8536970  15.1738330  59.2260670
  99.0411480  14.7995220  58.8856550 100.3578610  14.4183410  59.5281860
 104.3561950  11.8380780  60.4643740 104.9591320  12.4100990  60.9392260
 103.6154940  12.4020220  60.2417640 107.4996550  12.2402340  55.7384020
 107.6947180  13.1385790  56.0051450 106.7126420  12.0089420  56.2316970
  94.2957840  27.9215510  56.1776640  93.7705460  28.3023540  55.4738600
  94.2202420  28.5466280  56.8986350  95.6848310  13.5863110  54.7760330
  96.2141070  12.7992910  54.6468280  96.3176630  14.2654300  55.0095860
  97.8786150  13.3238250  57.8305720  97.2488890  12.6225560  57.9975850
  97.3391290  14.0842380  57.6138880 100.8178100  29.9377480  70.5016330
 101.7445410  29.7021750  70.5452290 100.8028530  30.7649480  70.0202360
 109.0523160  29.4803050  57.4990580 109.2275350  28.7940790  56.8551500
 108.3544730  30.0050100  57.1067250  98.0041710  12.6022230  70.2658210
  97.7225980  13.1055830  69.5019030  98.3861410  11.8043980  69.9000340
  96.8950810  29.8697890  55.0525890  97.6269630  29.5857170  54.5049780
  97.1544480  29.6311170  55.9425270  96.0565600  25.9862620  55.0572220
  95.4274480  26.4547720  55.6058050  96.1713430  25.1411840  55.4918410
 104.6057170  12.0175810  70.8438680 104.4922620  12.3370420  71.7390200
 105.4226910  12.4188320  70.5475960 107.3855660  29.1647340  70.3257370
 108.1780980  28.6696570  70.1183330 107.6788810  29.8437480  70.9332980
 103.5115320  20.0368280  41.2073420 103.4309370  19.1222890  40.9365130
 103.0979740  20.5335350  40.5013130 101.6433360  21.8147300  43.0882690
 100.8675460  21.3347740  43.3781260 102.2946290  21.1352950  42.9138850
  95.6599190  22.1267110  43.9658450  94.8284070  21.8715820  44.3654960
  96.2680170  22.1977880  44.7016370 105.6640790  26.2207490  41.8681820
 105.2022320  25.4494730  42.1968990 106.4766340  26.2473560  42.3734270
  95.6400450  26.1607200  44.1616470  95.9428490  25.2704940  43.9826690
  96.3844040  26.7177420  43.9338720  94.0691140  17.0869000  37.7500840
  93.1807840  17.4284970  37.6480720  94.3532330  16.8869320  36.8581670
  92.0324150  19.6874650  43.6340540  92.6040260  18.9196850  43.6344180
  92.0325690  19.9863410  42.7247150 101.8904100  28.5065500  41.4885810
 101.2715540  28.9623000  40.9180250 102.7455880  28.6616960  41.0875510
 101.0842350  24.4904490  43.0952850 101.0150630  23.5494430  42.9341980
 101.8462210  24.5805900  43.6675420  93.2749020  15.0959010  45.4209470
  93.0951860  14.1984760  45.7012230  92.8729100  15.6430880  46.0956420
 102.1147520  17.2974870  43.3221780 102.4912340  16.4246750  43.2095450
 102.0167030  17.6333570  42.4312220  96.2452530  15.6700500  38.7839220
  96.3519280  16.5704230  39.0907980  95.3344890  15.6218470  38.4933870
 105.8971640  14.7925310  40.2550120 106.7181260  14.3021880  40.2975600
 105.9305720  15.3822970  41.0081960  93.8935690  17.5919510  44.0291810
  94.5745800  17.8557880  44.6479210  93.5783740  16.7520380  44.3629820
  98.0860260  18.6386870  43.1164400  98.5938480  19.1367840  43.7569420
  98.6173500  17.8622070  42.9403760 110.1871190  16.8092060  46.8193750
 109.4823360  17.1973770  46.3008860 110.4529110  17.5042350  47.4214680
  96.3696360  13.2785430  47.3827820  96.3714800  13.7957820  46.5773720
  95.5400670  12.8015610  47.3597750 102.7567450  23.3904740  38.8817720
 102.1384720  23.8554190  38.3180440 103.2690700  24.0832220  39.2987230
  97.6199210  22.9180610  45.5601320  97.2868590  23.5449530  46.2022390
  97.7965890  23.4442490  44.7802990 106.1333120  16.7325690  43.0277660
 105.4288690  17.0210580  43.6080770 106.4945280  17.5425800  42.6677220
  96.0511690  14.9895390  45.3898270  96.3928500  15.8337440  45.0952140
  95.1127500  15.1379130  45.5063610  96.8318310  24.8861410  47.3750500
  97.4492310  25.5612490  47.0934950  95.9711430  25.2949390  47.2838000
  92.1250650  24.0761270  36.2557350  91.7478630  24.5648370  35.5242250
  92.3823720  24.7486550  36.8863880 107.7495900  26.3500820  45.2905140
 107.0659420  27.0199930  45.2821810 108.2890190  26.5481470  44.5250000
 109.2020040  16.1780480  43.4186870 108.2544950  16.2119460  43.5502300
 109.5270030  16.9919430  43.8036230  99.7339580  12.4777660  41.7142860
 100.0414560  11.9224550  40.9978360  98.8040280  12.6122120  41.5315850
 105.2854640  28.1944950  44.0050320 105.2981800  27.7907240  43.1372580
 104.7329860  28.9692240  43.9011750 106.5800060  24.9161170  39.0940490
 106.4696390  23.9735500  39.2189910 106.5768310  25.2776810  39.9803250
 104.6840080  23.0974790  45.3332930 105.1008870  22.8834900  44.4986390
 105.4079900  23.3547580  45.9041550 102.1220340  20.5426490  38.4502980
 101.1949620  20.4763870  38.6791450 102.2745160  21.4806620  38.3358220
 102.1089420  16.8143490  35.4470140 101.1693090  16.9757450  35.5322600
 102.4272680  17.5329170  34.9006130 108.6302180  21.4962010  45.4249170
 107.8020810  21.5655100  44.9499300 109.2252660  22.0816320  44.9565000
 106.1517630  22.1046790  38.9538230 105.5330050  21.7666340  38.3064530
 106.1342080  21.4606550  39.6617420 105.5944190  18.2831330  46.3704040
 105.1815370  19.1085040  46.6244030 104.8620140  17.6976370  46.1780400
  97.7276980  21.0691230  41.2322710  97.3233980  20.3568480  40.7368610
  97.8140100  20.7244470  42.1210750  98.1958680  24.7558790  43.3961920
  97.8986970  24.1504260  42.7169700  99.1458500  24.7936100  43.2851280
  96.4405600  17.8434440  45.0121750  96.9920190  17.9529780  44.2375000
  96.9549110  18.2172040  45.7276980 106.2844290  28.3290660  47.0585020
 105.8074850  29.1362850  46.8657630 105.6006080  27.6768990  47.2111230
  97.2877110  24.4940480  50.0469720  96.3905640  24.7180450  50.2943120
  97.3129980  24.6175420  49.0981120 104.3282330  21.3433600  35.9610980
 104.7675610  20.5056030  35.8148800 105.0410750  21.9763000  36.0475120
  96.1148330  21.3653800  48.6227090  95.9756100  22.2376600  48.9914490
  95.2329690  21.0226610  48.4775030 102.4377710  26.2829670  39.9292220
 102.8773620  27.0254000  39.5147610 102.3764600  26.5256240  40.8531180
  97.9128680  27.3075500  50.8312240  97.8844110  27.7118450  49.9640670
  97.7493650  26.3785860  50.6683840 107.9099470  12.5976410  34.2752020
 107.5972130  12.6903240  35.1751090 108.6711940  13.1757440  34.2249450
  94.4281610  19.9636210  38.7329360  94.3079210  20.6898300  38.1210630
  94.1182500  19.1939120  38.2557270 109.8643500  28.0902600  52.1276410
 110.3403220  28.5685490  52.8065490 110.4850660  28.0220090  51.4021910
  92.0666980  23.1351350  44.5398000  92.1447400  23.2700120  43.5953720
  92.6808660  22.4267240  44.7326120  93.3114610  24.8351540  40.9504180
  92.9042690  24.9766130  40.0957780  94.2027620  24.5511700  40.7475390
 109.2676750  25.2815450  49.2876420 109.3939810  25.0427330  48.3693600
 109.3098130  24.4499990  49.7598500 103.1293490  28.9843450  47.8571230
 103.6438160  28.8951460  48.6593660 102.2862570  29.3303150  48.1499140
 105.1047890  29.2698790  37.2855230 104.9449030  28.9801730  38.1837060
 104.9394600  28.4938920  36.7500460  97.5836270  29.0497320  39.0626850
  97.4078750  28.1332860  38.8494650  96.7292010  29.4084610  39.3024650
 104.8074020  26.7786350  35.8453230 104.1139180  26.7763640  35.1855510
 105.5496880  26.3545670  35.4147400 104.3723950  28.4049060  39.9201720
 104.8280900  27.6238440  40.2340340 104.7116470  29.1155880  40.4642900
 109.1200760  17.3347910  50.2526160 108.5045030  17.8427580  49.7241620
 108.7997180  16.4346240  50.1952100  92.1226500  24.1765520  47.0792460
  92.2857540  23.7070880  46.2611830  92.5878950  23.6689080  47.7441300
  96.8945270  13.3071280  42.1153030  96.4513420  14.0880820  41.7837550
  97.4530260  13.6301170  42.8223970 101.1815080  16.1739800  47.7188350
 100.7194450  16.3822820  48.5308290 100.7793190  15.3599150  47.4159020
 106.1819590  17.3948750  48.8485010 105.3313180  17.0954500  49.1694080
 106.0221380  17.6390760  47.9368830 103.2769300  18.8950500  50.9483800
 103.6022710  18.0614250  50.6086030 104.0649630  19.4179020  51.0962130
 100.0104090  12.9281980  36.9958860  99.3858270  12.9241850  37.7212170
  99.9234210  12.0612940  36.5994830  98.9321170  13.8518610  43.9742630
  99.2293500  14.7581440  43.8934650  99.4806730  13.3637390  43.3602200
  96.6859490  18.4304850  39.8434280  96.4600410  18.2142020  40.7480900
  95.9052020  18.8633310  39.4980250 103.9157250  18.4368220  38.4424930
 103.3166140  19.1604020  38.2588550 104.4636860  18.3745000  37.6601380
  99.1258700  19.3290430  50.5094550  99.0302300  18.3885160  50.3594950
  99.9690680  19.5505500  50.1142620 102.5222120  17.0731760  40.4728210
 102.9151690  17.3903960  39.6596900 102.8838970  16.1943640  40.5872730
  94.2569240  15.7404100  48.6628330  93.8632630  16.5879310  48.8701110
  93.5687640  15.1030470  48.8536970 100.8314290  15.8239070  51.7325070
 100.1412610  15.6311270  52.3671160 101.5746590  16.1073710  52.2649370
  91.5586290  13.6632560  42.6958410  91.2699340  14.2335420  43.4083390
  92.3032050  13.1837010  43.0589640  91.7456520  17.6052680  33.9061130
  91.6631190  18.5483440  34.0476120  91.3939580  17.4627590  33.0273480
 103.1077260  19.6637510  44.5678990 102.3758380  20.1724320  44.9169090
 102.7101600  18.8467490  44.2667770  99.5454650  16.3391710  42.9731480
  99.5490710  15.8981660  42.1236020 100.4405770  16.6609040  43.0803300
  95.3957030  16.2218200  41.9325690  95.0557080  16.6993430  42.6892740
  94.6334350  15.7683320  41.5726790  99.6074800  17.3403790  35.9638240
  99.7287620  17.2990270  36.9124060  99.2223310  18.2027940  35.8084970
 103.5703170  15.1171190  43.9801930 103.5875910  15.5679840  44.8243780
 103.3218750  14.2176830  44.1935370  98.6196300  19.6504930  35.3621540
  98.0513200  19.2023180  34.7357450  99.3285300  20.0097710  34.8286690
 106.9973920  12.5303370  49.8188310 107.3219690  11.7993030  50.3446290
 107.0330430  12.2117010  48.9169300  93.6965480  23.5516950  49.2388270
  93.3120270  22.9110620  49.8371230  94.0077670  24.2553070  49.8083000
  99.8462620  20.3993490  44.7196890 100.2132750  19.9252060  45.4658230
  99.6567680  21.2735060  45.0605230  92.7103110  15.1437180  40.8490360
  92.4250030  14.7792850  41.6868980  92.6481970  14.4117640  40.2353500
  97.6361990  19.4402130  47.0381100  97.3319060  20.3194110  47.2631460
  98.5908450  19.5001920  47.0738540  96.1643780  23.6463120  37.6347950
  95.3906040  23.1060740  37.4746670  96.8938410  23.1269730  37.2965710
 106.9231760  22.6428480  43.4274340 107.6430880  23.1383770  43.0370450
 106.7213580  21.9646370  42.7828210 102.3841700  14.0366440  37.5703730
 101.5706310  13.5379610  37.4949040 102.1903650  14.8764690  37.1540080
 102.3050560  22.7137540  49.3143340 102.2387870  21.7933210  49.0600930
 101.6755700  22.8112980  50.0287980 105.0990090  18.4086090  35.8665890
 105.9869710  18.7203320  35.6917230 105.0695180  17.5358340  35.4746470
  96.2081180  23.3143500  41.2726760  96.7259850  22.5111760  41.2183650
  95.7565200  23.2522640  42.1143590 101.0950680  24.5809780  36.5454060
 101.4366380  25.3252010  36.0497380 100.2663390  24.8940900  36.9078890
  93.6925720  20.2804870  48.1852460  93.3340660  20.9458720  48.7725800
  93.3980280  19.4488420  48.5565080  96.8938840  20.7389110  51.0692010
  96.5938980  20.8846290  50.1719830  97.6650080  20.1794400  50.9765400
 102.2367290  25.5358110  49.0647140 102.2511830  24.6039070  48.8466050
 101.5292390  25.6217870  49.7036910 107.3704360  19.7197930  35.3345750
 107.2868080  20.1512150  34.4842190 108.0898550  20.1796280  35.7672570
 108.4478500  22.1765450  48.4115720 107.7226690  22.7694230  48.2145110
 108.9753960  22.1688990  47.6129090 108.3991610  26.5740190  38.0627880
 107.7567770  25.9195810  38.3371600 108.0122270  26.9795280  37.2868550
 103.9778090  23.9025620  41.9099570 104.3301910  23.3053750  41.2500940
 103.0940420  23.5769850  42.0807820 100.0641370  24.6623310  39.3169980
 100.7512500  25.2092520  39.6977570  99.2773790  25.2064040  39.3519590
  92.2033770  20.2796130  34.8087060  93.0728620  20.5620930  35.0922980
  91.7124090  21.0932000  34.6935870  99.3668580  21.6669340  38.9295340
  99.8231360  22.4774590  39.1555530  99.0156790  21.3492480  39.7613830
 101.6701190  27.1775680  46.1587640 102.3143410  27.3835060  46.8361060
 102.0330630  26.4164080  45.7058490  95.2680360  12.0106990  39.4017860
  95.1394990  12.0024890  40.3502780  94.4442380  12.3490080  39.0508870
 102.9433270  25.1808030  44.8765090 103.5855500  24.4801190  44.9897260
 103.4682620  25.9606470  44.6961980 106.7888990  25.4656650  34.6004230
 106.5626570  24.7487090  35.1928870 106.3985190  25.2169090  33.7625980
 104.7170890  25.9802930  48.0801150 105.0527130  26.5669620  48.7579070
 103.7971230  25.8495640  48.3098940  92.5705020  29.4923510  35.3748690
  92.9302660  30.0912850  34.7205960  92.4297360  30.0383400  36.1483720
  92.2674290  13.7698110  48.8624560  91.5532810  13.9695030  49.4677170
  92.6869330  12.9937680  49.2339360 106.3705240  23.3828590  36.2618390
 106.0826940  23.8441280  37.0496270 107.1657410  22.9226360  36.5302610
  92.5546880  27.7578370  49.8491090  92.6638000  26.8173110  49.7086480
  91.9027440  28.0233120  49.2004820 100.5459470  26.0294260  51.2489210
 100.2256340  25.3103500  51.7934900  99.8717830  26.7049330  51.3225270
  98.5873640  26.8754710  36.1922360  98.5783740  27.6084400  35.5766870
  97.6672000  26.6286290  36.2849320  94.1880280  22.0969600  36.9369120
  93.5808230  22.8368500  36.9464420  94.6629630  22.1868960  36.1107320
 103.7613070  16.2620420  46.6126010 104.1293890  15.4415630  46.9405580
 102.9011270  16.3222310  47.0281660 107.1275100  15.2177360  37.4213570
 106.4988260  15.3223030  36.7071800 106.6327020  15.4374140  38.2107450
 101.5733240  26.9382950  34.8547550 101.6745220  26.7346940  33.9249530
 100.6734980  26.6841230  35.0595330  99.0959130  17.4963310  38.8371450
  98.3875280  17.9649650  39.2785060  99.3803610  16.8385320  39.4716640
 100.7215060  18.9160010  46.8363980 101.2200310  19.3905830  47.5015830
 100.8638010  17.9923530  47.0434010 103.1274560  14.2213970  40.2767240
 103.0042340  14.2400100  39.3276750 104.0759120  14.2692910  40.3965640
 100.2151350  29.4569270  39.5495220 100.4692850  29.4190660  38.6274590
  99.2663830  29.3302600  39.5423470  97.2994150  15.8048390  36.2122160
  98.1484680  16.2418540  36.1462350  96.9325420  16.1168650  37.0394220
 107.9281920  15.1327970  47.6792370 107.4255520  15.8733370  48.0186180
 108.7438580  15.5211970  47.3629160 106.2203930  20.3761150  41.1253730
 105.2794070  20.3911380  41.3001420 106.5348000  19.5897110  41.5714030
  96.1985570  22.0580750  34.6857690  96.9648840  21.9462110  35.2483120
  96.2760260  21.3618720  34.0334460  94.8932330  19.4905820  35.3690580
  94.9735920  18.5433330  35.4807980  95.7852080  19.8212700  35.4751240
 108.2229510  27.5470000  42.8007990 108.3476930  28.3701170  43.2731800
 109.0895070  27.3360730  42.4532140  95.6947040  29.6401210  42.4725120
  96.4309520  29.0916670  42.7433690  96.0787960  30.5057220  42.3331110
  92.5792520  25.7074780  38.3466630  91.6532300  25.9495920  38.3372040
  93.0448950  26.5349040  38.2251380  94.7005320  28.8247280  51.6610700
  95.5018050  29.1459330  52.0746100  94.1857140  28.4642860  52.3830610
  98.8049350  28.8131520  34.2950690  99.5977960  29.1020350  33.8432480
  98.2853700  28.3823690  33.6163170 103.5369950  24.9327150  51.6086110
 102.9308110  24.9558750  50.8681860 103.2324060  24.2010190  52.1453360
 104.9670320  28.6607440  50.2195520 105.9192070  28.5765460  50.1695760
 104.8198540  29.3249150  50.8929310 107.8579520  28.0401650  35.7187430
 107.5721030  27.6266790  34.9041610 107.6599070  28.9689360  35.5987950
  92.4203130  21.3120740  50.6046750  92.9242150  20.7328020  51.1762980
  91.6810550  21.5960970  51.1423120  99.3226750  24.0334930  34.1593040
  99.2177390  23.4187280  34.8854420  99.1550970  23.5100820  33.3756050
  99.4741070  22.7191730  50.1382270  98.7086740  23.2876730  50.0536940
  99.6557030  22.4267940  49.2450500 102.5629480  23.0954960  34.7635030
 102.0139580  23.5424260  35.4077770 103.1848740  22.5904210  35.2872700
 106.6164420  24.4497060  50.6957290 107.3573890  24.7872820  50.1924750
 105.8537100  24.6189120  50.1427060  94.4526210  19.4550330  51.4996820
  94.4931550  19.1564200  52.4082050  95.3071710  19.8557940  51.3404340
  98.2304600  22.0545880  36.6600330  98.6521020  21.8885750  37.5031720
  98.3555440  21.2446110  36.1655470  96.3932020  18.0342430  49.4671310
  95.8628480  17.5433380  48.8394650  97.0620090  18.4626630  48.9329240
 100.7432240  21.0783490  33.9077430 101.2637900  20.3632510  33.5418580
 101.3900640  21.7169360  34.2077940 105.2910080  22.5011890  49.2312500
 105.7051100  22.6556970  50.0802920 104.3561080  22.6267110  49.3938280
 105.7632250  19.8408050  51.2351650 106.3453020  19.0860370  51.1472130
 105.9394020  20.3715490  50.4583130  96.8804320  15.0004800  49.5468600
  96.7861190  14.3825550  48.8219470  96.3001710  15.7271090  49.3198510
  99.6465760  13.5578040  46.5795990  99.1983060  13.5802300  45.7341540
  99.0130960  13.1597060  47.1766290 100.0525310  22.4532370  47.2008430
 100.4713420  23.2965100  47.0284670  99.1333940  22.5904410  46.9715210
 102.3889210  20.1848550  48.5846270 102.5085420  19.5889690  49.3241110
 103.2483210  20.2218240  48.1647570 104.7277110  20.7385740  47.1608780
 104.2012330  21.2628360  46.5573920 105.0708450  21.3713130  47.7918510
  97.1263500  18.1279110  33.6058490  96.9252560  17.2646470  33.9671830
  96.9555550  18.0412470  32.6680090  97.9032730  28.7585380  48.3166160
  97.3653820  29.4831440  47.9974860  98.1566690  28.2815720  47.5263500
  99.1557980  16.7269900  49.8422090  99.7457670  16.4185750  50.5299910
  98.3378220  16.2549650  49.9981990 103.9751410  16.3435710  50.0755110
 103.2866930  15.6817250  50.0105100 104.6957430  15.8973980  50.5203570
 104.6051810  12.9387340  36.1345370 104.8854100  12.0955240  36.4904790
 103.8317540  13.1710450  36.6484120  95.9246300  15.2279730  33.5936370
  96.2272200  15.2347160  32.6855520  96.6640890  14.8777590  34.0904030
 100.7594940  29.9936590  48.5752810 100.6853640  30.8971730  48.8825180
  99.8573780  29.6748490  48.5474880  99.1431230  14.1714350  34.5792570
  98.7953230  13.4938340  33.9995020  99.3444000  13.7103860  35.3935960
 101.3080270  29.1595100  36.1979170 102.2031060  29.4980070  36.2197930
 101.3397900  28.4374510  35.5703450  94.9476430  24.5322150  34.4266170
  95.3851300  25.0751820  35.0823750  95.4324160  23.7069100  34.4362510
  92.1622230  27.3211180  41.8786430  92.4925240  26.4532240  41.6465070
  92.5913230  27.5269700  42.7091390  96.7584150  25.6520190  39.5388400
  96.4579690  25.5285160  40.4392310  96.6521640  24.7928780  39.1304130
  92.6512440  28.1881770  44.6168060  92.2143430  28.3682570  45.4492210
  93.2190120  28.9456390  44.4749780 108.2874620  27.6898770  48.9045370
 107.6876610  27.7491330  48.1609290 108.4168520  26.7503750  49.0342220
 109.5276070  25.4316590  34.2415080 108.6969030  25.4993240  34.7122310
 109.7047900  26.3220710  33.9381940 108.9832530  22.1764070  36.7449280
 109.7451440  22.7460720  36.8508970 108.9986900  21.6091270  37.5157590
  92.4836870  20.7002000  40.9756940  91.8285710  20.4313640  40.3316640
  93.3214820  20.5906480  40.5258920 109.9892500  23.0314170  41.5891210
 110.3601330  22.2481490  41.1827180 110.6294430  23.7203270  41.4108510
 106.9726260  24.4150750  47.0021530 106.1586100  24.8447910  47.2647320
 107.3800460  25.0269160  46.3890580 109.0351700  22.4698440  33.9021800
 109.3100540  23.3777320  33.7741020 108.8462440  22.4060970  34.8383790
 105.4327310  15.4943290  35.1975430 105.8512190  15.3074270  34.3572090
 105.1263370  14.6422340  35.5078360 108.9317040  20.4067430  38.8951230
 108.5560640  19.6395360  38.4632520 108.2020160  20.7890130  39.3826160
  93.5212800  21.0854570  45.5160280  93.8885840  20.9981970  46.3956300
  92.9523620  20.3221120  45.4167140 108.3216660  19.5538950  48.5290750
 108.0902750  19.3251700  47.6288700 108.5821210  20.4738500  48.4835640
  93.0728800  17.9963660  49.4218700  92.1784850  17.9630420  49.7612410
  93.6126350  18.1950450  50.1869950 106.7604730  14.7795380  51.3070450
 107.6374910  14.7878780  51.6904450 106.7725570  14.0426220  50.6962800
  91.6974950  17.9100930  36.9182270  90.7939030  18.1731130  36.7433930
  92.1815570  18.1812100  36.1382230 108.2068000  18.6324920  42.1958470
 108.7305480  18.1387570  41.5648640 108.7927420  18.7675280  42.9406040
 108.3857720  18.7164790  45.7178020 107.4360430  18.6828330  45.8323010
 108.5670730  19.6264900  45.4827790  94.2402160  16.9666470  34.8276650
  94.9493860  16.5449690  34.3423930  93.5242100  17.0341700  34.1960000
  93.8876320  13.0205800  33.8679300  94.6104450  13.5614740  34.1860520
  94.1600840  12.7469220  32.9920840 107.6967970  17.8898270  38.1350880
 108.1927090  17.6569140  38.9199760 107.4984040  17.0510110  37.7188520
  93.5768510  12.2711990  43.7701920  94.2244700  11.7209370  43.3297080
  93.9970350  12.5255140  44.5917730 109.1255130  16.5259220  40.6688560
 109.0154410  16.3715260  41.6070830 109.8862720  15.9980160  40.4263970
 107.4720850  12.4653350  47.1271560 108.1093070  13.0787490  47.4930750
 107.6195740  12.5014010  46.1820790 110.0145400  14.3567140  33.9094700
 110.9394710  14.2248320  33.7012990 109.9921190  14.4359960  34.8631150
 110.0883890  15.1277800  36.5351410 109.2935390  15.0622920  37.0644320
 110.2927170  16.0628440  36.5236760 107.0302310  29.1669350  40.5289800
 107.6261380  28.8453920  39.8524220 107.2880460  28.6941170  41.3203070
  93.3300510  12.4267660  46.5127240  92.9815330  12.8831480  47.2785420
  92.9988210  11.5324790  46.5949670  94.9364880  25.5987260  50.6780430
  94.8934510  25.2280170  51.5594890  95.0675890  26.5364830  50.8182250
  98.6370910  27.1546850  46.2790150  98.3962270  27.4221410  45.3920670
  99.5773550  27.3252580  46.3341010 100.8425330  13.6179540  50.0346660
 100.7814220  14.2101370  50.7842070 101.7825710  13.5105500  49.8896920
 103.4799890  13.2749600  49.6738950 104.0940300  13.5928890  49.0120030
 104.0249450  12.7898190  50.2934810 109.8975070  29.1741230  47.0800790
 109.4033350  29.5710100  46.3627920 109.2888360  28.5490440  47.4738070
  94.0021150  11.9543860  49.7878010  94.5504140  11.7731910  49.0244120
  94.0676460  11.1637970  50.3234320  94.7752910  28.5449510  47.7978210
  94.1813230  28.4134210  48.5368250  94.7676750  27.7087650  47.3320310
 104.2207930  11.8381740  46.0008240 103.3467770  12.1716850  45.7981170
 104.1118680  11.3654920  46.8260110 105.1279910  14.0452610  47.3849960
 104.7993270  13.2304370  47.0051690 106.0762210  14.0022420  47.2615650
 107.5814520  29.8164650  44.3587530 107.1217490  30.5680460  43.9845550
 106.9526980  29.0971120  44.3002330  94.4065140  25.9107890  46.7486250
  93.6799200  25.2913180  46.6812200  94.4674290  26.3048500  45.8784330
  98.0110240  28.1252890  43.5335660  98.5275260  27.5140250  43.0083920
  98.6607620  28.6281670  44.0246670 100.7505740  29.0161380  44.3604640
 101.0383550  28.7615680  43.4837650 101.2628960  28.4638740  44.9510210
 101.9682750  12.7551580  44.9401150 101.1854540  13.2297080  45.2197910
 101.6745680  11.8506410  44.8314330 106.5203820  13.4574680  42.9850240
 106.9611910  13.4019780  42.1371840 106.2511410  14.3732690  43.0560420
 108.3842390  13.0889920  40.9959060 108.3230790  12.1451140  40.8490080
 109.1634420  13.1970010  41.5412520  92.6895140  29.2282280  39.9583010
  92.5217180  28.5952960  40.6564900  91.8229650  29.4341680  39.6077200
  93.3123160  13.0599060  37.4614870  94.0702520  13.1727940  36.8878900
  92.8500330  13.8968260  37.4158300  99.8536970  15.1738330  40.4517180
  99.0411480  14.7995220  40.1113060 100.3578610  14.4183410  40.7538370
 104.3561950  11.8380780  41.6900250 104.9591320  12.4100990  42.1648770
 103.6154940  12.4020220  41.4674150 107.4996550  12.2402340  36.9640530
 107.6947180  13.1385790  37.2307960 106.7126420  12.0089420  37.4573480
  94.2957840  27.9215510  37.4033150  93.7705460  28.3023540  36.6995110
  94.2202420  28.5466280  38.1242860  95.6848310  13.5863110  36.0016840
  96.2141070  12.7992910  35.8724790  96.3176630  14.2654300  36.2352370
  97.8786150  13.3238250  39.0562230  97.2488890  12.6225560  39.2232360
  97.3391290  14.0842380  38.8395390 100.8178100  29.9377480  51.7272840
 101.7445410  29.7021750  51.7708800 100.8028530  30.7649480  51.2458870
 109.0523160  29.4803050  38.7247090 109.2275350  28.7940790  38.0808010
 108.3544730  30.0050100  38.3323760  98.0041710  12.6022230  51.4914720
  97.7225980  13.1055830  50.7275540  98.3861410  11.8043980  51.1256850
  96.8950810  29.8697890  36.2782400  97.6269630  29.5857170  35.7306290
  97.1544480  29.6311170  37.1681780  96.0565600  25.9862620  36.2828730
  95.4274480  26.4547720  36.8314560  96.1713430  25.1411840  36.7174920
 104.6057170  12.0175810  52.0695190 104.4922620  12.3370420  52.9646710
 105.4226910  12.4188320  51.7732470 107.3855660  29.1647340  51.5513880
 108.1780980  28.6696570  51.3439840 107.6788810  29.8437480  52.1589490
 103.5115320  20.0368280  22.4329930 103.4309370  19.1222890  22.1621640
 103.0979740  20.5335350  21.7269640 101.6433360  21.8147300  24.3139200
 100.8675460  21.3347740  24.6037770 102.2946290  21.1352950  24.1395360
  95.6599190  22.1267110  25.1914960  94.8284070  21.8715820  25.5911470
  96.2680170  22.1977880  25.9272880 105.6640790  26.2207490  23.0938330
 105.2022320  25.4494730  23.4225500 106.4766340  26.2473560  23.5990780
  95.6400450  26.1607200  25.3872980  95.9428490  25.2704940  25.2083200
  96.3844040  26.7177420  25.1595230  94.0691140  17.0869000  18.9757350
  93.1807840  17.4284970  18.8737230  94.3532330  16.8869320  18.0838180
  92.0324150  19.6874650  24.8597050  92.6040260  18.9196850  24.8600690
  92.0325690  19.9863410  23.9503660 101.8904100  28.5065500  22.7142320
 101.2715540  28.9623000  22.1436760 102.7455880  28.6616960  22.3132020
 101.0842350  24.4904490  24.3209360 101.0150630  23.5494430  24.1598490
 101.8462210  24.5805900  24.8931930  93.2749020  15.0959010  26.6465980
  93.0951860  14.1984760  26.9268740  92.8729100  15.6430880  27.3212930
 102.1147520  17.2974870  24.5478290 102.4912340  16.4246750  24.4351960
 102.0167030  17.6333570  23.6568730  96.2452530  15.6700500  20.0095730
  96.3519280  16.5704230  20.3164490  95.3344890  15.6218470  19.7190380
 105.8971640  14.7925310  21.4806630 106.7181260  14.3021880  21.5232110
 105.9305720  15.3822970  22.2338470  93.8935690  17.5919510  25.2548320
  94.5745800  17.8557880  25.8735720  93.5783740  16.7520380  25.5886330
  98.0860260  18.6386870  24.3420910  98.5938480  19.1367840  24.9825930
  98.6173500  17.8622070  24.1660270 110.1871190  16.8092060  28.0450260
 109.4823360  17.1973770  27.5265370 110.4529110  17.5042350  28.6471190
  96.3696360  13.2785430  28.6084330  96.3714800  13.7957820  27.8030230
  95.5400670  12.8015610  28.5854260 102.7567450  23.3904740  20.1074230
 102.1384720  23.8554190  19.5436950 103.2690700  24.0832220  20.5243740
  97.6199210  22.9180610  26.7857830  97.2868590  23.5449530  27.4278900
  97.7965890  23.4442490  26.0059500 106.1333120  16.7325690  24.2534170
 105.4288690  17.0210580  24.8337280 106.4945280  17.5425800  23.8933730
  96.0511690  14.9895390  26.6154780  96.3928500  15.8337440  26.3208650
  95.1127500  15.1379130  26.7320120  96.8318310  24.8861410  28.6007010
  97.4492310  25.5612490  28.3191460  95.9711430  25.2949390  28.5094510
  92.1250650  24.0761270  17.4813860  91.7478630  24.5648370  16.7498760
  92.3823720  24.7486550  18.1120390 107.7495900  26.3500820  26.5161650
 107.0659420  27.0199930  26.5078320 108.2890190  26.5481470  25.7506510
 109.2020040  16.1780480  24.6443380 108.2544950  16.2119460  24.7758810
 109.5270030  16.9919430  25.0292740  99.7339580  12.4777660  22.9399370
 100.0414560  11.9224550  22.2234870  98.8040280  12.6122120  22.7572360
 105.2854640  28.1944950  25.2306830 105.2981800  27.7907240  24.3629090
 104.7329860  28.9692240  25.1268260 106.5800060  24.9161170  20.3197000
 106.4696390  23.9735500  20.4446420 106.5768310  25.2776810  21.2059760
 104.6840080  23.0974790  26.5589440 105.1008870  22.8834900  25.7242900
 105.4079900  23.3547580  27.1298060 102.1220340  20.5426490  19.6759490
 101.1949620  20.4763870  19.9047960 102.2745160  21.4806620  19.5614730
 102.1089420  16.8143490  16.6726650 101.1693090  16.9757450  16.7579110
 102.4272680  17.5329170  16.1262640 108.6302180  21.4962010  26.6505680
 107.8020810  21.5655100  26.1755810 109.2252660  22.0816320  26.1821510
 106.1517630  22.1046790  20.1794740 105.5330050  21.7666340  19.5321040
 106.1342080  21.4606550  20.8873930 105.5944190  18.2831330  27.5960550
 105.1815370  19.1085040  27.8500540 104.8620140  17.6976370  27.4036910
  97.7276980  21.0691230  22.4579220  97.3233980  20.3568480  21.9625120
  97.8140100  20.7244470  23.3467260  98.1958680  24.7558790  24.6218430
  97.8986970  24.1504260  23.9426210  99.1458500  24.7936100  24.5107790
  96.4405600  17.8434440  26.2378260  96.9920190  17.9529780  25.4631510
  96.9549110  18.2172040  26.9533490 106.2844290  28.3290660  28.2841530
 105.8074850  29.1362850  28.0914140 105.6006080  27.6768990  28.4367740
  97.2877110  24.4940480  31.2726230  96.3905640  24.7180450  31.5199630
  97.3129980  24.6175420  30.3237630 104.3282330  21.3433600  17.1867490
 104.7675610  20.5056030  17.0405310 105.0410750  21.9763000  17.2731630
  96.1148330  21.3653800  29.8483600  95.9756100  22.2376600  30.2171000
  95.2329690  21.0226610  29.7031540 102.4377710  26.2829670  21.1548730
 102.8773620  27.0254000  20.7404120 102.3764600  26.5256240  22.0787690
  97.9128680  27.3075500  32.0568750  97.8844110  27.7118450  31.1897180
  97.7493650  26.3785860  31.8940350 107.9099470  12.5976410  15.5008530
 107.5972130  12.6903240  16.4007600 108.6711940  13.1757440  15.4505960
  94.4281610  19.9636210  19.9585870  94.3079210  20.6898300  19.3467140
  94.1182500  19.1939120  19.4813780 109.8643500  28.0902600  33.3532920
 110.3403220  28.5685490  34.0322000 110.4850660  28.0220090  32.6278420
  92.0666980  23.1351350  25.7654510  92.1447400  23.2700120  24.8210230
  92.6808660  22.4267240  25.9582630  93.3114610  24.8351540  22.1760690
  92.9042690  24.9766130  21.3214290  94.2027620  24.5511700  21.9731900
 109.2676750  25.2815450  30.5132930 109.3939810  25.0427330  29.5950110
 109.3098130  24.4499990  30.9855010 103.1293490  28.9843450  29.0827740
 103.6438160  28.8951460  29.8850170 102.2862570  29.3303150  29.3755650
 105.1047890  29.2698790  18.5111740 104.9449030  28.9801730  19.4093570
 104.9394600  28.4938920  17.9756970  97.5836270  29.0497320  20.2883360
  97.4078750  28.1332860  20.0751160  96.7292010  29.4084610  20.5281160
 104.8074020  26.7786350  17.0709740 104.1139180  26.7763640  16.4112020
 105.5496880  26.3545670  16.6403910 104.3723950  28.4049060  21.1458230
 104.8280900  27.6238440  21.4596850 104.7116470  29.1155880  21.6899410
 109.1200760  17.3347910  31.4782670 108.5045030  17.8427580  30.9498130
 108.7997180  16.4346240  31.4208610  92.1226500  24.1765520  28.3048970
  92.2857540  23.7070880  27.4868340  92.5878950  23.6689080  28.9697810
  96.8945270  13.3071280  23.3409540  96.4513420  14.0880820  23.0094060
  97.4530260  13.6301170  24.0480480 101.1815080  16.1739800  28.9444860
 100.7194450  16.3822820  29.7564800 100.7793190  15.3599150  28.6415530
 106.1819590  17.3948750  30.0741520 105.3313180  17.0954500  30.3950590
 106.0221380  17.6390760  29.1625340 103.2769300  18.8950500  32.1740310
 103.6022710  18.0614250  31.8342540 104.0649630  19.4179020  32.3218640
 100.0104090  12.9281980  18.2215370  99.3858270  12.9241850  18.9468680
  99.9234210  12.0612940  17.8251340  98.9321170  13.8518610  25.1999140
  99.2293500  14.7581440  25.1191160  99.4806730  13.3637390  24.5858710
  96.6859490  18.4304850  21.0690790  96.4600410  18.2142020  21.9737410
  95.9052020  18.8633310  20.7236760 103.9157250  18.4368220  19.6681440
 103.3166140  19.1604020  19.4845060 104.4636860  18.3745000  18.8857890
  99.1258700  19.3290430  31.7351060  99.0302300  18.3885160  31.5851460
  99.9690680  19.5505500  31.3399130 102.5222120  17.0731760  21.6984720
 102.9151690  17.3903960  20.8853410 102.8838970  16.1943640  21.8129240
  94.2569240  15.7404100  29.8884840  93.8632630  16.5879310  30.0957620
  93.5687640  15.1030470  30.0793480 100.8314290  15.8239070  32.9581580
 100.1412610  15.6311270  33.5927670 101.5746590  16.1073710  33.4905880
  91.5586290  13.6632560  23.9214920  91.2699340  14.2335420  24.6339900
  92.3032050  13.1837010  24.2846150  91.7456520  17.6052680  15.1317640
  91.6631190  18.5483440  15.2732630  91.3939580  17.4627590  14.2529990
 103.1077260  19.6637510  25.7935500 102.3758380  20.1724320  26.1425600
 102.7101600  18.8467490  25.4924280  99.5454650  16.3391710  24.1987990
  99.5490710  15.8981660  23.3492530 100.4405770  16.6609040  24.3059810
  95.3957030  16.2218200  23.1582200  95.0557080  16.6993430  23.9149250
  94.6334350  15.7683320  22.7983300  99.6074800  17.3403790  17.1894750
  99.7287620  17.2990270  18.1380570  99.2223310  18.2027940  17.0341480
 103.5703170  15.1171190  25.2058440 103.5875910  15.5679840  26.0500290
 103.3218750  14.2176830  25.4191880  98.6196300  19.6504930  16.5878050
  98.0513200  19.2023180  15.9613960  99.3285300  20.0097710  16.0543200
 106.9973920  12.5303370  31.0444820 107.3219690  11.7993030  31.5702800
 107.0330430  12.2117010  30.1425810  93.6965480  23.5516950  30.4644780
  93.3120270  22.9110620  31.0627740  94.0077670  24.2553070  31.0339510
  99.8462620  20.3993490  25.9453400 100.2132750  19.9252060  26.6914740
  99.6567680  21.2735060  26.2861740  92.7103110  15.1437180  22.0746870
  92.4250030  14.7792850  22.9125490  92.6481970  14.4117640  21.4610010
  97.6361990  19.4402130  28.2637610  97.3319060  20.3194110  28.4887970
  98.5908450  19.5001920  28.2995050  96.1643780  23.6463120  18.8604460
  95.3906040  23.1060740  18.7003180  96.8938410  23.1269730  18.5222220
 106.9231760  22.6428480  24.6530850 107.6430880  23.1383770  24.2626960
 106.7213580  21.9646370  24.0084720 102.3841700  14.0366440  18.7960240
 101.5706310  13.5379610  18.7205550 102.1903650  14.8764690  18.3796590
 102.3050560  22.7137540  30.5399850 102.2387870  21.7933210  30.2857440
 101.6755700  22.8112980  31.2544490 105.0990090  18.4086090  17.0922400
 105.9869710  18.7203320  16.9173740 105.0695180  17.5358340  16.7002980
  96.2081180  23.3143500  22.4983270  96.7259850  22.5111760  22.4440160
  95.7565200  23.2522640  23.3400100 101.0950680  24.5809780  17.7710570
 101.4366380  25.3252010  17.2753890 100.2663390  24.8940900  18.1335400
  93.6925720  20.2804870  29.4108970  93.3340660  20.9458720  29.9982310
  93.3980280  19.4488420  29.7821590  96.8938840  20.7389110  32.2948520
  96.5938980  20.8846290  31.3976340  97.6650080  20.1794400  32.2021910
 102.2367290  25.5358110  30.2903650 102.2511830  24.6039070  30.0722560
 101.5292390  25.6217870  30.9293420 107.3704360  19.7197930  16.5602260
 107.2868080  20.1512150  15.7098700 108.0898550  20.1796280  16.9929080
 108.4478500  22.1765450  29.6372230 107.7226690  22.7694230  29.4401620
 108.9753960  22.1688990  28.8385600 108.3991610  26.5740190  19.2884390
 107.7567770  25.9195810  19.5628110 108.0122270  26.9795280  18.5125060
 103.9778090  23.9025620  23.1356080 104.3301910  23.3053750  22.4757450
 103.0940420  23.5769850  23.3064330 100.0641370  24.6623310  20.5426490
 100.7512500  25.2092520  20.9234080  99.2773790  25.2064040  20.5776100
  92.2033770  20.2796130  16.0343570  93.0728620  20.5620930  16.3179490
  91.7124090  21.0932000  15.9192380  99.3668580  21.6669340  20.1551850
  99.8231360  22.4774590  20.3812040  99.0156790  21.3492480  20.9870340
 101.6701190  27.1775680  27.3844150 102.3143410  27.3835060  28.0617570
 102.0330630  26.4164080  26.9315000  95.2680360  12.0106990  20.6274370
  95.1394990  12.0024890  21.5759290  94.4442380  12.3490080  20.2765380
 102.9433270  25.1808030  26.1021600 103.5855500  24.4801190  26.2153770
 103.4682620  25.9606470  25.9218490 106.7888990  25.4656650  15.8260740
 106.5626570  24.7487090  16.4185380 106.3985190  25.2169090  14.9882490
 104.7170890  25.9802930  29.3057660 105.0527130  26.5669620  29.9835580
 103.7971230  25.8495640  29.5355450  92.5705020  29.4923510  16.6005200
  92.9302660  30.0912850  15.9462470  92.4297360  30.0383400  17.3740230
  92.2674290  13.7698110  30.0881070  91.5532810  13.9695030  30.6933680
  92.6869330  12.9937680  30.4595870 106.3705240  23.3828590  17.4874900
 106.0826940  23.8441280  18.2752780 107.1657410  22.9226360  17.7559120
  92.5546880  27.7578370  31.0747600  92.6638000  26.8173110  30.9342990
  91.9027440  28.0233120  30.4261330 100.5459470  26.0294260  32.4745720
 100.2256340  25.3103500  33.0191410  99.8717830  26.7049330  32.5481780
  98.5873640  26.8754710  17.4178870  98.5783740  27.6084400  16.8023380
  97.6672000  26.6286290  17.5105830  94.1880280  22.0969600  18.1625630
  93.5808230  22.8368500  18.1720930  94.6629630  22.1868960  17.3363830
 103.7613070  16.2620420  27.8382520 104.1293890  15.4415630  28.1662090
 102.9011270  16.3222310  28.2538170 107.1275100  15.2177360  18.6470080
 106.4988260  15.3223030  17.9328310 106.6327020  15.4374140  19.4363960
 101.5733240  26.9382950  16.0804060 101.6745220  26.7346940  15.1506040
 100.6734980  26.6841230  16.2851840  99.0959130  17.4963310  20.0627960
  98.3875280  17.9649650  20.5041570  99.3803610  16.8385320  20.6973150
 100.7215060  18.9160010  28.0620490 101.2200310  19.3905830  28.7272340
 100.8638010  17.9923530  28.2690520 103.1274560  14.2213970  21.5023750
 103.0042340  14.2400100  20.5533260 104.0759120  14.2692910  21.6222150
 100.2151350  29.4569270  20.7751730 100.4692850  29.4190660  19.8531100
  99.2663830  29.3302600  20.7679980  97.2994150  15.8048390  17.4378670
  98.1484680  16.2418540  17.3718860  96.9325420  16.1168650  18.2650730
 107.9281920  15.1327970  28.9048880 107.4255520  15.8733370  29.2442690
 108.7438580  15.5211970  28.5885670 106.2203930  20.3761150  22.3510240
 105.2794070  20.3911380  22.5257930 106.5348000  19.5897110  22.7970540
  96.1985570  22.0580750  15.9114200  96.9648840  21.9462110  16.4739630
  96.2760260  21.3618720  15.2590970  94.8932330  19.4905820  16.5947090
  94.9735920  18.5433330  16.7064490  95.7852080  19.8212700  16.7007750
 108.2229510  27.5470000  24.0264500 108.3476930  28.3701170  24.4988310
 109.0895070  27.3360730  23.6788650  95.6947040  29.6401210  23.6981630
  96.4309520  29.0916670  23.9690200  96.0787960  30.5057220  23.5587620
  92.5792520  25.7074780  19.5723140  91.6532300  25.9495920  19.5628550
  93.0448950  26.5349040  19.4507890  94.7005320  28.8247280  32.8867210
  95.5018050  29.1459330  33.3002610  94.1857140  28.4642860  33.6087120
  98.8049350  28.8131520  15.5207200  99.5977960  29.1020350  15.0688990
  98.2853700  28.3823690  14.8419680 103.5369950  24.9327150  32.8342620
 102.9308110  24.9558750  32.0938370 103.2324060  24.2010190  33.3709870
 104.9670320  28.6607440  31.4452030 105.9192070  28.5765460  31.3952270
 104.8198540  29.3249150  32.1185820 107.8579520  28.0401650  16.9443940
 107.5721030  27.6266790  16.1298120 107.6599070  28.9689360  16.8244460
  92.4203130  21.3120740  31.8303260  92.9242150  20.7328020  32.4019490
  91.6810550  21.5960970  32.3679630  99.3226750  24.0334930  15.3849550
  99.2177390  23.4187280  16.1110930  99.1550970  23.5100820  14.6012560
  99.4741070  22.7191730  31.3638780  98.7086740  23.2876730  31.2793450
  99.6557030  22.4267940  30.4707010 102.5629480  23.0954960  15.9891540
 102.0139580  23.5424260  16.6334280 103.1848740  22.5904210  16.5129210
 106.6164420  24.4497060  31.9213800 107.3573890  24.7872820  31.4181260
 105.8537100  24.6189120  31.3683570  94.4526210  19.4550330  32.7253330
  94.4931550  19.1564200  33.6338560  95.3071710  19.8557940  32.5660850
  98.2304600  22.0545880  17.8856840  98.6521020  21.8885750  18.7288230
  98.3555440  21.2446110  17.3911980  96.3932020  18.0342430  30.6927820
  95.8628480  17.5433380  30.0651160  97.0620090  18.4626630  30.1585750
 100.7432240  21.0783490  15.1333940 101.2637900  20.3632510  14.7675090
 101.3900640  21.7169360  15.4334450 105.2910080  22.5011890  30.4569010
 105.7051100  22.6556970  31.3059430 104.3561080  22.6267110  30.6194790
 105.7632250  19.8408050  32.4608160 106.3453020  19.0860370  32.3728640
 105.9394020  20.3715490  31.6839640  96.8804320  15.0004800  30.7725110
  96.7861190  14.3825550  30.0475980  96.3001710  15.7271090  30.5455020
  99.6465760  13.5578040  27.8052500  99.1983060  13.5802300  26.9598050
  99.0130960  13.1597060  28.4022800 100.0525310  22.4532370  28.4264940
 100.4713420  23.2965100  28.2541180  99.1333940  22.5904410  28.1971720
 102.3889210  20.1848550  29.8102780 102.5085420  19.5889690  30.5497620
 103.2483210  20.2218240  29.3904080 104.7277110  20.7385740  28.3865290
 104.2012330  21.2628360  27.7830430 105.0708450  21.3713130  29.0175020
  97.1263500  18.1279110  14.8315000  96.9252560  17.2646470  15.1928340
  96.9555550  18.0412470  13.8936600  97.9032730  28.7585380  29.5422670
  97.3653820  29.4831440  29.2231370  98.1566690  28.2815720  28.7520010
  99.1557980  16.7269900  31.0678600  99.7457670  16.4185750  31.7556420
  98.3378220  16.2549650  31.2238500 103.9751410  16.3435710  31.3011620
 103.2866930  15.6817250  31.2361610 104.6957430  15.8973980  31.7460080
 104.6051810  12.9387340  17.3601880 104.8854100  12.0955240  17.7161300
 103.8317540  13.1710450  17.8740630  95.9246300  15.2279730  14.8192880
  96.2272200  15.2347160  13.9112030  96.6640890  14.8777590  15.3160540
 100.7594940  29.9936590  29.8009320 100.6853640  30.8971730  30.1081690
  99.8573780  29.6748490  29.7731390  99.1431230  14.1714350  15.8049080
  98.7953230  13.4938340  15.2251530  99.3444000  13.7103860  16.6192470
 101.3080270  29.1595100  17.4235680 102.2031060  29.4980070  17.4454440
 101.3397900  28.4374510  16.7959960  94.9476430  24.5322150  15.6522680
  95.3851300  25.0751820  16.3080260  95.4324160  23.7069100  15.6619020
  92.1622230  27.3211180  23.1042940  92.4925240  26.4532240  22.8721580
  92.5913230  27.5269700  23.9347900  96.7584150  25.6520190  20.7644910
  96.4579690  25.5285160  21.6648820  96.6521640  24.7928780  20.3560640
  92.6512440  28.1881770  25.8424570  92.2143430  28.3682570  26.6748720
  93.2190120  28.9456390  25.7006290 108.2874620  27.6898770  30.1301880
 107.6876610  27.7491330  29.3865800 108.4168520  26.7503750  30.2598730
 109.5276070  25.4316590  15.4671590 108.6969030  25.4993240  15.9378820
 109.7047900  26.3220710  15.1638450 108.9832530  22.1764070  17.9705790
 109.7451440  22.7460720  18.0765480 108.9986900  21.6091270  18.7414100
  92.4836870  20.7002000  22.2013450  91.8285710  20.4313640  21.5573150
  93.3214820  20.5906480  21.7515430 109.9892500  23.0314170  22.8147720
 110.3601330  22.2481490  22.4083690 110.6294430  23.7203270  22.6365020
 106.9726260  24.4150750  28.2278040 106.1586100  24.8447910  28.4903830
 107.3800460  25.0269160  27.6147090 109.0351700  22.4698440  15.1278310
 109.3100540  23.3777320  14.9997530 108.8462440  22.4060970  16.0640300
 105.4327310  15.4943290  16.4231940 105.8512190  15.3074270  15.5828600
 105.1263370  14.6422340  16.7334870 108.9317040  20.4067430  20.1207740
 108.5560640  19.6395360  19.6889030 108.2020160  20.7890130  20.6082670
  93.5212800  21.0854570  26.7416790  93.8885840  20.9981970  27.6212810
  92.9523620  20.3221120  26.6423650 108.3216660  19.5538950  29.7547260
 108.0902750  19.3251700  28.8545210 108.5821210  20.4738500  29.7092150
  93.0728800  17.9963660  30.6475210  92.1784850  17.9630420  30.9868920
  93.6126350  18.1950450  31.4126460 106.7604730  14.7795380  32.5326960
 107.6374910  14.7878780  32.9160960 106.7725570  14.0426220  31.9219310
  91.6974950  17.9100930  18.1438780  90.7939030  18.1731130  17.9690440
  92.1815570  18.1812100  17.3638740 108.2068000  18.6324920  23.4214980
 108.7305480  18.1387570  22.7905150 108.7927420  18.7675280  24.1662550
 108.3857720  18.7164790  26.9434530 107.4360430  18.6828330  27.0579520
 108.5670730  19.6264900  26.7084300  94.2402160  16.9666470  16.0533160
  94.9493860  16.5449690  15.5680440  93.5242100  17.0341700  15.4216510
  93.8876320  13.0205800  15.0935810  94.6104450  13.5614740  15.4117030
  94.1600840  12.7469220  14.2177350 107.6967970  17.8898270  19.3607390
 108.1927090  17.6569140  20.1456270 107.4984040  17.0510110  18.9445030
  93.5768510  12.2711990  24.9958430  94.2244700  11.7209370  24.5553590
  93.9970350  12.5255140  25.8174240 109.1255130  16.5259220  21.8945070
 109.0154410  16.3715260  22.8327340 109.8862720  15.9980160  21.6520480
 107.4720850  12.4653350  28.3528070 108.1093070  13.0787490  28.7187260
 107.6195740  12.5014010  27.4077300 110.0145400  14.3567140  15.1351210
 110.9394710  14.2248320  14.9269500 109.9921190  14.4359960  16.0887660
 110.0883890  15.1277800  17.7607920 109.2935390  15.0622920  18.2900830
 110.2927170  16.0628440  17.7493270 107.0302310  29.1669350  21.7546310
 107.6261380  28.8453920  21.0780730 107.2880460  28.6941170  22.5459580
  93.3300510  12.4267660  27.7383750  92.9815330  12.8831480  28.5041930
  92.9988210  11.5324790  27.8206180  94.9364880  25.5987260  31.9036940
  94.8934510  25.2280170  32.7851400  95.0675890  26.5364830  32.0438760
  98.6370910  27.1546850  27.5046660  98.3962270  27.4221410  26.6177180
  99.5773550  27.3252580  27.5597520 100.8425330  13.6179540  31.2603170
 100.7814220  14.2101370  32.0098580 101.7825710  13.5105500  31.1153430
 103.4799890  13.2749600  30.8995460 104.0940300  13.5928890  30.2376540
 104.0249450  12.7898190  31.5191320 109.8975070  29.1741230  28.3057300
 109.4033350  29.5710100  27.5884430 109.2888360  28.5490440  28.6994580
  94.0021150  11.9543860  31.0134520  94.5504140  11.7731910  30.2500630
  94.0676460  11.1637970  31.5490830  94.7752910  28.5449510  29.0234720
  94.1813230  28.4134210  29.7624760  94.7676750  27.7087650  28.5576820
 104.2207930  11.8381740  27.2264750 103.3467770  12.1716850  27.0237680
 104.1118680  11.3654920  28.0516620 105.1279910  14.0452610  28.6106470
 104.7993270  13.2304370  28.2308200 106.0762210  14.0022420  28.4872160
 107.5814520  29.8164650  25.5844040 107.1217490  30.5680460  25.2102060
 106.9526980  29.0971120  25.5258840  94.4065140  25.9107890  27.9742760
  93.6799200  25.2913180  27.9068710  94.4674290  26.3048500  27.1040840
  98.0110240  28.1252890  24.7592170  98.5275260  27.5140250  24.2340430
  98.6607620  28.6281670  25.2503180 100.7505740  29.0161380  25.5861150
 101.0383550  28.7615680  24.7094160 101.2628960  28.4638740  26.1766720
 101.9682750  12.7551580  26.1657660 101.1854540  13.2297080  26.4454420
 101.6745680  11.8506410  26.0570840 106.5203820  13.4574680  24.2106750
 106.9611910  13.4019780  23.3628350 106.2511410  14.3732690  24.2816930
 108.3842390  13.0889920  22.2215570 108.3230790  12.1451140  22.0746590
 109.1634420  13.1970010  22.7669030  92.6895140  29.2282280  21.1839520
  92.5217180  28.5952960  21.8821410  91.8229650  29.4341680  20.8333710
  93.3123160  13.0599060  18.6871380  94.0702520  13.1727940  18.1135410
  92.8500330  13.8968260  18.6414810  99.8536970  15.1738330  21.6773690
  99.0411480  14.7995220  21.3369570 100.3578610  14.4183410  21.9794880
 104.3561950  11.8380780  22.9156760 104.9591320  12.4100990  23.3905280
 103.6154940  12.4020220  22.6930660 107.4996550  12.2402340  18.1897040
 107.6947180  13.1385790  18.4564470 106.7126420  12.0089420  18.6829990
  94.2957840  27.9215510  18.6289660  93.7705460  28.3023540  17.9251620
  94.2202420  28.5466280  19.3499370  95.6848310  13.5863110  17.2273350
  96.2141070  12.7992910  17.0981300  96.3176630  14.2654300  17.4608880
  97.8786150  13.3238250  20.2818740  97.2488890  12.6225560  20.4488870
  97.3391290  14.0842380  20.0651900 100.8178100  29.9377480  32.9529350
 101.7445410  29.7021750  32.9965310 100.8028530  30.7649480  32.4715380
 109.0523160  29.4803050  19.9503600 109.2275350  28.7940790  19.3064520
 108.3544730  30.0050100  19.5580270  98.0041710  12.6022230  32.7171230
  97.7225980  13.1055830  31.9532050  98.3861410  11.8043980  32.3513360
  96.8950810  29.8697890  17.5038910  97.6269630  29.5857170  16.9562800
  97.1544480  29.6311170  18.3938290  96.0565600  25.9862620  17.5085240
  95.4274480  26.4547720  18.0571070  96.1713430  25.1411840  17.9431430
 104.6057170  12.0175810  33.2951700 104.4922620  12.3370420  34.1903220
 105.4226910  12.4188320  32.9988980 107.3855660  29.1647340  32.7770390
 108.1780980  28.6696570  32.5696350 107.6788810  29.8437480  33.3846000
 103.5115320  20.0368280   3.6586440 103.4309370  19.1222890   3.3878150
 103.0979740  20.5335350   2.9526150 101.6433360  21.8147300   5.5395710
 100.8675460  21.3347740   5.8294280 102.2946290  21.1352950   5.3651870
  95.6599190  22.1267110   6.4171470  94.8284070  21.8715820   6.8167980
  96.2680170  22.1977880   7.1529390 105.6640790  26.2207490   4.3194840
 105.2022320  25.4494730   4.6482010 106.4766340  26.2473560   4.8247290
  95.6400450  26.1607200   6.6129490  95.9428490  25.2704940   6.4339710
  96.3844040  26.7177420   6.3851740  92.0324150  19.6874650   6.0853560
  92.6040260  18.9196850   6.0857200  92.0325690  19.9863410   5.1760170
 101.8904100  28.5065500   3.9398830 101.2715540  28.9623000   3.3693270
 102.7455880  28.6616960   3.5388530 101.0842350  24.4904490   5.5465870
 101.0150630  23.5494430   5.3855000 101.8462210  24.5805900   6.1188440
  93.2749020  15.0959010   7.8722490  93.0951860  14.1984760   8.1525250
  92.8729100  15.6430880   8.5469440 102.1147520  17.2974870   5.7734800
 102.4912340  16.4246750   5.6608470 102.0167030  17.6333570   4.8825240
 105.8971640  14.7925310   2.7063140 106.7181260  14.3021880   2.7488620
 105.9305720  15.3822970   3.4594980  93.8935690  17.5919510   6.4804830
  94.5745800  17.8557880   7.0992230  93.5783740  16.7520380   6.8142840
  98.0860260  18.6386870   5.5677420  98.5938480  19.1367840   6.2082440
  98.6173500  17.8622070   5.3916780 110.1871190  16.8092060   9.2706770
 109.4823360  17.1973770   8.7521880 110.4529110  17.5042350   9.8727700
  96.3696360  13.2785430   9.8340840  96.3714800  13.7957820   9.0286740
  95.5400670  12.8015610   9.8110770  97.6199210  22.9180610   8.0114340
  97.2868590  23.5449530   8.6535410  97.7965890  23.4442490   7.2316010
 106.1333120  16.7325690   5.4790680 105.4288690  17.0210580   6.0593790
 106.4945280  17.5425800   5.1190240  96.0511690  14.9895390   7.8411290
  96.3928500  15.8337440   7.5465160  95.1127500  15.1379130   7.9576630
  96.8318310  24.8861410   9.8263520  97.4492310  25.5612490   9.5447970
  95.9711430  25.2949390   9.7351020 107.7495900  26.3500820   7.7418160
 107.0659420  27.0199930   7.7334830 108.2890190  26.5481470   6.9763020
 109.2020040  16.1780480   5.8699890 108.2544950  16.2119460   6.0015320
 109.5270030  16.9919430   6.2549250  99.7339580  12.4777660   4.1655880
 100.0414560  11.9224550   3.4491380  98.8040280  12.6122120   3.9828870
 105.2854640  28.1944950   6.4563340 105.2981800  27.7907240   5.5885600
 104.7329860  28.9692240   6.3524770 104.6840080  23.0974790   7.7845950
 105.1008870  22.8834900   6.9499410 105.4079900  23.3547580   8.3554570
 108.6302180  21.4962010   7.8762190 107.8020810  21.5655100   7.4012320
 109.2252660  22.0816320   7.4078020 105.5944190  18.2831330   8.8217060
 105.1815370  19.1085040   9.0757050 104.8620140  17.6976370   8.6293420
  97.7276980  21.0691230   3.6835730  97.3233980  20.3568480   3.1881630
  97.8140100  20.7244470   4.5723770  98.1958680  24.7558790   5.8474940
  97.8986970  24.1504260   5.1682720  99.1458500  24.7936100   5.7364300
  96.4405600  17.8434440   7.4634770  96.9920190  17.9529780   6.6888020
  96.9549110  18.2172040   8.1790000 106.2844290  28.3290660   9.5098040
 105.8074850  29.1362850   9.3170650 105.6006080  27.6768990   9.6624250
  97.2877110  24.4940480  12.4982740  96.3905640  24.7180450  12.7456140
  97.3129980  24.6175420  11.5494140  96.1148330  21.3653800  11.0740110
  95.9756100  22.2376600  11.4427510  95.2329690  21.0226610  10.9288050
 102.4377710  26.2829670   2.3805240 102.8773620  27.0254000   1.9660630
 102.3764600  26.5256240   3.3044200  97.9128680  27.3075500  13.2825260
  97.8844110  27.7118450  12.4153690  97.7493650  26.3785860  13.1196860
 109.8643500  28.0902600  14.5789430 110.3403220  28.5685490  15.2578510
 110.4850660  28.0220090  13.8534930  92.0666980  23.1351350   6.9911020
  92.1447400  23.2700120   6.0466740  92.6808660  22.4267240   7.1839140
  93.3114610  24.8351540   3.4017200  92.9042690  24.9766130   2.5470800
  94.2027620  24.5511700   3.1988410 109.2676750  25.2815450  11.7389440
 109.3939810  25.0427330  10.8206620 109.3098130  24.4499990  12.2111520
 103.1293490  28.9843450  10.3084250 103.6438160  28.8951460  11.1106680
 102.2862570  29.3303150  10.6012160 104.3723950  28.4049060   2.3714740
 104.8280900  27.6238440   2.6853360 104.7116470  29.1155880   2.9155920
 109.1200760  17.3347910  12.7039180 108.5045030  17.8427580  12.1754640
 108.7997180  16.4346240  12.6465120  92.1226500  24.1765520   9.5305480
  92.2857540  23.7070880   8.7124850  92.5878950  23.6689080  10.1954320
  96.8945270  13.3071280   4.5666050  96.4513420  14.0880820   4.2350570
  97.4530260  13.6301170   5.2736990 101.1815080  16.1739800  10.1701370
 100.7194450  16.3822820  10.9821310 100.7793190  15.3599150   9.8672040
 106.1819590  17.3948750  11.2998030 105.3313180  17.0954500  11.6207100
 106.0221380  17.6390760  10.3881850 103.2769300  18.8950500  13.3996820
 103.6022710  18.0614250  13.0599050 104.0649630  19.4179020  13.5475150
  98.9321170  13.8518610   6.4255650  99.2293500  14.7581440   6.3447670
  99.4806730  13.3637390   5.8115220  96.6859490  18.4304850   2.2947300
  96.4600410  18.2142020   3.1993920  95.9052020  18.8633310   1.9493270
  99.1258700  19.3290430  12.9607570  99.0302300  18.3885160  12.8107970
  99.9690680  19.5505500  12.5655640 102.5222120  17.0731760   2.9241230
 102.9151690  17.3903960   2.1109920 102.8838970  16.1943640   3.0385750
  94.2569240  15.7404100  11.1141350  93.8632630  16.5879310  11.3214130
  93.5687640  15.1030470  11.3049990 100.8314290  15.8239070  14.1838090
 100.1412610  15.6311270  14.8184180 101.5746590  16.1073710  14.7162390
  91.5586290  13.6632560   5.1471430  91.2699340  14.2335420   5.8596410
  92.3032050  13.1837010   5.5102660 103.1077260  19.6637510   7.0192010
 102.3758380  20.1724320   7.3682110 102.7101600  18.8467490   6.7180790
  99.5454650  16.3391710   5.4244500  99.5490710  15.8981660   4.5749040
 100.4405770  16.6609040   5.5316320  95.3957030  16.2218200   4.3838710
  95.0557080  16.6993430   5.1405760  94.6334350  15.7683320   4.0239810
 103.5703170  15.1171190   6.4314950 103.5875910  15.5679840   7.2756800
 103.3218750  14.2176830   6.6448390 106.9973920  12.5303370  12.2701330
 107.3219690  11.7993030  12.7959310 107.0330430  12.2117010  11.3682320
  93.6965480  23.5516950  11.6901290  93.3120270  22.9110620  12.2884250
  94.0077670  24.2553070  12.2596020  99.8462620  20.3993490   7.1709910
 100.2132750  19.9252060   7.9171250  99.6567680  21.2735060   7.5118250
  92.7103110  15.1437180   3.3003380  92.4250030  14.7792850   4.1382000
  92.6481970  14.4117640   2.6866520  97.6361990  19.4402130   9.4894120
  97.3319060  20.3194110   9.7144480  98.5908450  19.5001920   9.5251560
 106.9231760  22.6428480   5.8787360 107.6430880  23.1383770   5.4883470
 106.7213580  21.9646370   5.2341230 102.3050560  22.7137540  11.7656360
 102.2387870  21.7933210  11.5113950 101.6755700  22.8112980  12.4801000
  96.2081180  23.3143500   3.7239780  96.7259850  22.5111760   3.6696670
  95.7565200  23.2522640   4.5656610  93.6925720  20.2804870  10.6365480
  93.3340660  20.9458720  11.2238820  93.3980280  19.4488420  11.0078100
  96.8938840  20.7389110  13.5205030  96.5938980  20.8846290  12.6232850
  97.6650080  20.1794400  13.4278420 102.2367290  25.5358110  11.5160160
 102.2511830  24.6039070  11.2979070 101.5292390  25.6217870  12.1549930
 108.4478500  22.1765450  10.8628740 107.7226690  22.7694230  10.6658130
 108.9753960  22.1688990  10.0642110 103.9778090  23.9025620   4.3612590
 104.3301910  23.3053750   3.7013960 103.0940420  23.5769850   4.5320840
 100.0641370  24.6623310   1.7683000 100.7512500  25.2092520   2.1490590
  99.2773790  25.2064040   1.8032610 101.6701190  27.1775680   8.6100660
 102.3143410  27.3835060   9.2874080 102.0330630  26.4164080   8.1571510
 102.9433270  25.1808030   7.3278110 103.5855500  24.4801190   7.4410280
 103.4682620  25.9606470   7.1475000 104.7170890  25.9802930  10.5314170
 105.0527130  26.5669620  11.2092090 103.7971230  25.8495640  10.7611960
  92.2674290  13.7698110  11.3137580  91.5532810  13.9695030  11.9190190
  92.6869330  12.9937680  11.6852380  92.5546880  27.7578370  12.3004110
  92.6638000  26.8173110  12.1599500  91.9027440  28.0233120  11.6517840
 100.5459470  26.0294260  13.7002230 100.2256340  25.3103500  14.2447920
  99.8717830  26.7049330  13.7738290 103.7613070  16.2620420   9.0639030
 104.1293890  15.4415630   9.3918600 102.9011270  16.3222310   9.4794680
 100.7215060  18.9160010   9.2877000 101.2200310  19.3905830   9.9528850
 100.8638010  17.9923530   9.4947030 103.1274560  14.2213970   2.7280260
 103.0042340  14.2400100   1.7789770 104.0759120  14.2692910   2.8478660
 107.9281920  15.1327970  10.1305390 107.4255520  15.8733370  10.4699200
 108.7438580  15.5211970   9.8142180 106.2203930  20.3761150   3.5766750
 105.2794070  20.3911380   3.7514440 106.5348000  19.5897110   4.0227050
 108.2229510  27.5470000   5.2521010 108.3476930  28.3701170   5.7244820
 109.0895070  27.3360730   4.9045160  95.6947040  29.6401210   4.9238140
  96.4309520  29.0916670   5.1946710  96.0787960  30.5057220   4.7844130
  94.7005320  28.8247280  14.1123720  95.5018050  29.1459330  14.5259120
  94.1857140  28.4642860  14.8343630 103.5369950  24.9327150  14.0599130
 102.9308110  24.9558750  13.3194880 103.2324060  24.2010190  14.5966380
 104.9670320  28.6607440  12.6708540 105.9192070  28.5765460  12.6208780
 104.8198540  29.3249150  13.3442330  92.4203130  21.3120740  13.0559770
  92.9242150  20.7328020  13.6276000  91.6810550  21.5960970  13.5936140
  99.4741070  22.7191730  12.5895290  98.7086740  23.2876730  12.5049960
  99.6557030  22.4267940  11.6963520 106.6164420  24.4497060  13.1470310
 107.3573890  24.7872820  12.6437770 105.8537100  24.6189120  12.5940080
  94.4526210  19.4550330  13.9509840  94.4931550  19.1564200  14.8595070
  95.3071710  19.8557940  13.7917360  96.3932020  18.0342430  11.9184330
  95.8628480  17.5433380  11.2907670  97.0620090  18.4626630  11.3842260
 105.2910080  22.5011890  11.6825520 105.7051100  22.6556970  12.5315940
 104.3561080  22.6267110  11.8451300 105.7632250  19.8408050  13.6864670
 106.3453020  19.0860370  13.5985150 105.9394020  20.3715490  12.9096150
  96.8804320  15.0004800  11.9981620  96.7861190  14.3825550  11.2732490
  96.3001710  15.7271090  11.7711530  99.6465760  13.5578040   9.0309010
  99.1983060  13.5802300   8.1854560  99.0130960  13.1597060   9.6279310
 100.0525310  22.4532370   9.6521450 100.4713420  23.2965100   9.4797690
  99.1333940  22.5904410   9.4228230 102.3889210  20.1848550  11.0359290
 102.5085420  19.5889690  11.7754130 103.2483210  20.2218240  10.6160590
 104.7277110  20.7385740   9.6121800 104.2012330  21.2628360   9.0086940
 105.0708450  21.3713130  10.2431530  97.9032730  28.7585380  10.7679180
  97.3653820  29.4831440  10.4487880  98.1566690  28.2815720   9.9776520
  99.1557980  16.7269900  12.2935110  99.7457670  16.4185750  12.9812930
  98.3378220  16.2549650  12.4495010 103.9751410  16.3435710  12.5268130
 103.2866930  15.6817250  12.4618120 104.6957430  15.8973980  12.9716590
 100.7594940  29.9936590  11.0265830 100.6853640  30.8971730  11.3338200
  99.8573780  29.6748490  10.9987900  92.1622230  27.3211180   4.3299450
  92.4925240  26.4532240   4.0978090  92.5913230  27.5269700   5.1604410
  92.6512440  28.1881770   7.0681080  92.2143430  28.3682570   7.9005230
  93.2190120  28.9456390   6.9262800 108.2874620  27.6898770  11.3558390
 107.6876610  27.7491330  10.6122310 108.4168520  26.7503750  11.4855240
  92.4836870  20.7002000   3.4269960  91.8285710  20.4313640   2.7829660
  93.3214820  20.5906480   2.9771940 109.9892500  23.0314170   4.0404230
 110.3601330  22.2481490   3.6340200 110.6294430  23.7203270   3.8621530
 106.9726260  24.4150750   9.4534550 106.1586100  24.8447910   9.7160340
 107.3800460  25.0269160   8.8403600  93.5212800  21.0854570   7.9673300
  93.8885840  20.9981970   8.8469320  92.9523620  20.3221120   7.8680160
 108.3216660  19.5538950  10.9803770 108.0902750  19.3251700  10.0801720
 108.5821210  20.4738500  10.9348660  93.0728800  17.9963660  11.8731720
  92.1784850  17.9630420  12.2125430  93.6126350  18.1950450  12.6382970
 106.7604730  14.7795380  13.7583470 107.6374910  14.7878780  14.1417470
 106.7725570  14.0426220  13.1475820 108.2068000  18.6324920   4.6471490
 108.7305480  18.1387570   4.0161660 108.7927420  18.7675280   5.3919060
 108.3857720  18.7164790   8.1691040 107.4360430  18.6828330   8.2836030
 108.5670730  19.6264900   7.9340810  93.5768510  12.2711990   6.2214940
  94.2244700  11.7209370   5.7810100  93.9970350  12.5255140   7.0430750
 109.1255130  16.5259220   3.1201580 109.0154410  16.3715260   4.0583850
 109.8862720  15.9980160   2.8776990 107.4720850  12.4653350   9.5784580
 108.1093070  13.0787490   9.9443770 107.6195740  12.5014010   8.6333810
 107.0302310  29.1669350   2.9802820 107.6261380  28.8453920   2.3037240
 107.2880460  28.6941170   3.7716090  93.3300510  12.4267660   8.9640260
  92.9815330  12.8831480   9.7298440  92.9988210  11.5324790   9.0462690
  94.9364880  25.5987260  13.1293450  94.8934510  25.2280170  14.0107910
  95.0675890  26.5364830  13.2695270  98.6370910  27.1546850   8.7303170
  98.3962270  27.4221410   7.8433690  99.5773550  27.3252580   8.7854030
 100.8425330  13.6179540  12.4859680 100.7814220  14.2101370  13.2355090
 101.7825710  13.5105500  12.3409940 103.4799890  13.2749600  12.1251970
 104.0940300  13.5928890  11.4633050 104.0249450  12.7898190  12.7447830
 109.8975070  29.1741230   9.5313810 109.4033350  29.5710100   8.8140940
 109.2888360  28.5490440   9.9251090  94.0021150  11.9543860  12.2391030
  94.5504140  11.7731910  11.4757140  94.0676460  11.1637970  12.7747340
  94.7752910  28.5449510  10.2491230  94.1813230  28.4134210  10.9881270
  94.7676750  27.7087650   9.7833330 104.2207930  11.8381740   8.4521260
 103.3467770  12.1716850   8.2494190 104.1118680  11.3654920   9.2773130
 105.1279910  14.0452610   9.8362980 104.7993270  13.2304370   9.4564710
 106.0762210  14.0022420   9.7128670 107.5814520  29.8164650   6.8100550
 107.1217490  30.5680460   6.4358570 106.9526980  29.0971120   6.7515350
  94.4065140  25.9107890   9.1999270  93.6799200  25.2913180   9.1325220
  94.4674290  26.3048500   8.3297350  98.0110240  28.1252890   5.9848680
  98.5275260  27.5140250   5.4596940  98.6607620  28.6281670   6.4759690
 100.7505740  29.0161380   6.8117660 101.0383550  28.7615680   5.9350670
 101.2628960  28.4638740   7.4023230 101.9682750  12.7551580   7.3914170
 101.1854540  13.2297080   7.6710930 101.6745680  11.8506410   7.2827350
 106.5203820  13.4574680   5.4363260 106.9611910  13.4019780   4.5884860
 106.2511410  14.3732690   5.5073440 108.3842390  13.0889920   3.4472080
 108.3230790  12.1451140   3.3003100 109.1634420  13.1970010   3.9925540
  92.6895140  29.2282280   2.4096030  92.5217180  28.5952960   3.1077920
  91.8229650  29.4341680   2.0590220  99.8536970  15.1738330   2.9030200
  99.0411480  14.7995220   2.5626080 100.3578610  14.4183410   3.2051390
 104.3561950  11.8380780   4.1413270 104.9591320  12.4100990   4.6161790
 103.6154940  12.4020220   3.9187170 100.8178100  29.9377480  14.1785860
 101.7445410  29.7021750  14.2221820 100.8028530  30.7649480  13.6971890
  98.0041710  12.6022230  13.9427740  97.7225980  13.1055830  13.1788560
  98.3861410  11.8043980  13.5769870 104.6057170  12.0175810  14.5208210
 104.4922620  12.3370420  15.4159730 105.4226910  12.4188320  14.2245490
 107.3855660  29.1647340  14.0026900 108.1780980  28.6696570  13.7952860
 107.6788810  29.8437480  14.6102510 101.6433360   3.0403810  99.4113160
 100.8675460   2.5604250  99.7011730 102.2946290   2.3609460  99.2369320
  95.6599190   3.3523620 100.2888920  94.8284070   3.0972330 100.6885430
  96.2680170   3.4234390 101.0246840 105.6640790   7.4464000  98.1912290
 105.2022320   6.6751240  98.5199460 106.4766340   7.4730070  98.6964740
  95.6400450   7.3863710 100.4846940  95.9428490   6.4961450 100.3057160
  96.3844040   7.9433930 100.2569190 101.8904100   9.7322010  97.8116280
 101.2715540  10.1879510  97.2410720 102.7455880   9.8873470  97.4105980
 101.0842350   5.7161000  99.4183320 101.0150630   4.7750940  99.2572450
 101.8462210   5.8062410  99.9905890 102.7567450   4.6161250  95.2048190
 102.1384720   5.0810700  94.6410910 103.2690700   5.3088730  95.6217700
  97.6199210   4.1437120 101.8831790  97.2868590   4.7706040 102.5252860
  97.7965890   4.6699000 101.1033460  92.1250650   5.3017780  92.5787820
  91.7478630   5.7904880  91.8472720  92.3823720   5.9743060  93.2094350
 107.7495900   7.5757330 101.6135610 107.0659420   8.2456440 101.6052280
 108.2890190   7.7737980 100.8480470 105.2854640   9.4201460 100.3280790
 105.2981800   9.0163750  99.4603050 104.7329860  10.1948750 100.2242220
 106.5800060   6.1417680  95.4170960 106.4696390   5.1992010  95.5420380
 106.5768310   6.5033320  96.3033720 104.6840080   4.3231300 101.6563400
 105.1008870   4.1091410 100.8216860 105.4079900   4.5804090 102.2272020
 102.1220340   1.7683000  94.7733450 101.1949620   1.7020380  95.0021920
 102.2745160   2.7063130  94.6588690 108.6302180   2.7218520 101.7479640
 107.8020810   2.7911610 101.2729770 109.2252660   3.3072830 101.2795470
 106.1517630   3.3303300  95.2768700 105.5330050   2.9922850  94.6295000
 106.1342080   2.6863060  95.9847890  97.7276980   2.2947740  97.5553180
  97.3233980   1.5824990  97.0599080  97.8140100   1.9500980  98.4441220
  98.1958680   5.9815300  99.7192390  97.8986970   5.3760770  99.0400170
  99.1458500   6.0192610  99.6081750 104.3282330   2.5690110  92.2841450
 104.7675610   1.7312540  92.1379270 105.0410750   3.2019510  92.3705590
 102.4377710   7.5086180  96.2522690 102.8773620   8.2510510  95.8378080
 102.3764600   7.7512750  97.1761650  92.0666980   4.3607860 100.8628470
  92.1447400   4.4956630  99.9184190  92.6808660   3.6523750 101.0556590
  93.3114610   6.0608050  97.2734650  92.9042690   6.2022640  96.4188250
  94.2027620   5.7768210  97.0705860 105.1047890  10.4955300  93.6085700
 104.9449030  10.2058240  94.5067530 104.9394600   9.7195430  93.0730930
  97.5836270  10.2753830  95.3857320  97.4078750   9.3589370  95.1725120
  96.7292010  10.6341120  95.6255120 104.8074020   8.0042860  92.1683700
 104.1139180   8.0020150  91.5085980 105.5496880   7.5802180  91.7377870
 104.3723950   9.6305570  96.2432190 104.8280900   8.8494950  96.5570810
 104.7116470  10.3412390  96.7873370  96.1643780   4.8719630  93.9578420
  95.3906040   4.3317250  93.7977140  96.8938410   4.3526240  93.6196180
 106.9231760   3.8684990  99.7504810 107.6430880   4.3640280  99.3600920
 106.7213580   3.1902880  99.1058680  96.2081180   4.5400010  97.5957230
  96.7259850   3.7368270  97.5414120  95.7565200   4.4779150  98.4374060
 101.0950680   5.8066290  92.8684530 101.4366380   6.5508520  92.3727850
 100.2663390   6.1197410  93.2309360 108.3991610   7.7996700  94.3858350
 107.7567770   7.1452320  94.6602070 108.0122270   8.2051790  93.6099020
 103.9778090   5.1282130  98.2330040 104.3301910   4.5310260  97.5731410
 103.0940420   4.8026360  98.4038290 100.0641370   5.8879820  95.6400450
 100.7512500   6.4349030  96.0208040  99.2773790   6.4320550  95.6750060
  99.3668580   2.8925850  95.2525810  99.8231360   3.7031100  95.4786000
  99.0156790   2.5748990  96.0844300 102.9433270   6.4064540 101.1995560
 103.5855500   5.7057700 101.3127730 103.4682620   7.1862980 101.0192450
 106.7888990   6.6913160  90.9234700 106.5626570   5.9743600  91.5159340
 106.3985190   6.4425600  90.0856450  92.5705020  10.7180020  91.6979160
  92.9302660  11.3169360  91.0436430  92.4297360  11.2639910  92.4714190
 106.3705240   4.6085100  92.5848860 106.0826940   5.0697790  93.3726740
 107.1657410   4.1482870  92.8533080  98.5873640   8.1011220  92.5152830
  98.5783740   8.8340910  91.8997340  97.6672000   7.8542800  92.6079790
  94.1880280   3.3226110  93.2599590  93.5808230   4.0625010  93.2694890
  94.6629630   3.4125470  92.4337790 101.5733240   8.1639460  91.1778020
 101.6745220   7.9603450  90.2480000 100.6734980   7.9097740  91.3825800
 100.2151350  10.6825780  95.8725690 100.4692850  10.6447170  94.9505060
  99.2663830  10.5559110  95.8653940  96.1985570   3.2837260  91.0088160
  96.9648840   3.1718620  91.5713590  96.2760260   2.5875230  90.3564930
 108.2229510   8.7726510  99.1238460 108.3476930   9.5957680  99.5962270
 109.0895070   8.5617240  98.7762610  95.6947040  10.8657720  98.7955590
  96.4309520  10.3173180  99.0664160  96.0787960  11.7313730  98.6561580
  92.5792520   6.9331290  94.6697100  91.6532300   7.1752430  94.6602510
  93.0448950   7.7605550  94.5481850  98.8049350  10.0388030  90.6181160
  99.5977960  10.3276860  90.1662950  98.2853700   9.6080200  89.9393640
 107.8579520   9.2658160  92.0417900 107.5721030   8.8523300  91.2272080
 107.6599070  10.1945870  91.9218420  99.3226750   5.2591440  90.4823510
  99.2177390   4.6443790  91.2084890  99.1550970   4.7357330  89.6986520
 102.5629480   4.3211470  91.0865500 102.0139580   4.7680770  91.7308240
 103.1848740   3.8160720  91.6103170  98.2304600   3.2802390  92.9830800
  98.6521020   3.1142260  93.8262190  98.3555440   2.4702620  92.4885940
 100.7432240   2.3040000  90.2307900 101.2637900   1.5889020  89.8649050
 101.3900640   2.9425870  90.5308410 101.3080270  10.3851610  92.5209640
 102.2031060  10.7236580  92.5428400 101.3397900   9.6631020  91.8933920
  94.9476430   5.7578660  90.7496640  95.3851300   6.3008330  91.4054220
  95.4324160   4.9325610  90.7592980  92.1622230   8.5467690  98.2016900
  92.4925240   7.6788750  97.9695540  92.5913230   8.7526210  99.0321860
  96.7584150   6.8776700  95.8618870  96.4579690   6.7541670  96.7622780
  96.6521640   6.0185290  95.4534600  92.6512440   9.4138280 100.9398530
  92.2143430   9.5939080 101.7722680  93.2190120  10.1712900 100.7980250
 109.5276070   6.6573100  90.5645550 108.6969030   6.7249750  91.0352780
 109.7047900   7.5477220  90.2612410 108.9832530   3.4020580  93.0679750
 109.7451440   3.9717230  93.1739440 108.9986900   2.8347780  93.8388060
  92.4836870   1.9258510  97.2987410  91.8285710   1.6570150  96.6547110
  93.3214820   1.8162990  96.8489390 109.9892500   4.2570680  97.9121680
 110.3601330   3.4738000  97.5057650 110.6294430   4.9459780  97.7338980
 109.0351700   3.6954950  90.2252270 109.3100540   4.6033830  90.0971490
 108.8462440   3.6317480  91.1614260  93.5212800   2.3111080 101.8390750
  93.8885840   2.2238480 102.7186770  92.9523620   1.5477630 101.7397610
 107.0302310  10.3925860  96.8520270 107.6261380  10.0710430  96.1754690
 107.2880460   9.9197680  97.6433540  98.6370910   8.3803360 102.6020620
  98.3962270   8.6477920 101.7151140  99.5773550   8.5509090 102.6571480
 107.5814520  11.0421160 100.6818000 107.1217490  11.7936970 100.3076020
 106.9526980  10.3227630 100.6232800  98.0110240   9.3509400  99.8566130
  98.5275260   8.7396760  99.3314390  98.6607620   9.8538180 100.3477140
 100.7505740  10.2417890 100.6835110 101.0383550   9.9872190  99.8068120
 101.2628960   9.6895250 101.2740680  92.6895140  10.4538790  96.2813480
  92.5217180   9.8209470  96.9795370  91.8229650  10.6598190  95.9307670
  94.2957840   9.1472020  93.7263620  93.7705460   9.5280050  93.0225580
  94.2202420   9.7722790  94.4473330 109.0523160  10.7059560  95.0477560
 109.2275350  10.0197300  94.4038480 108.3544730  11.2306610  94.6554230
  96.8950810  11.0954400  92.6012870  97.6269630  10.8113680  92.0536760
  97.1544480  10.8567680  93.4912250  96.0565600   7.2119130  92.6059200
  95.4274480   7.6804230  93.1545030  96.1713430   6.3668350  93.0405390
 101.6433360   3.0403810  80.6369670 100.8675460   2.5604250  80.9268240
 102.2946290   2.3609460  80.4625830  95.6599190   3.3523620  81.5145430
  94.8284070   3.0972330  81.9141940  96.2680170   3.4234390  82.2503350
 105.6640790   7.4464000  79.4168800 105.2022320   6.6751240  79.7455970
 106.4766340   7.4730070  79.9221250  95.6400450   7.3863710  81.7103450
  95.9428490   6.4961450  81.5313670  96.3844040   7.9433930  81.4825700
 101.8904100   9.7322010  79.0372790 101.2715540  10.1879510  78.4667230
 102.7455880   9.8873470  78.6362490 101.0842350   5.7161000  80.6439830
 101.0150630   4.7750940  80.4828960 101.8462210   5.8062410  81.2162400
 102.7567450   4.6161250  76.4304700 102.1384720   5.0810700  75.8667420
 103.2690700   5.3088730  76.8474210  97.6199210   4.1437120  83.1088300
  97.2868590   4.7706040  83.7509370  97.7965890   4.6699000  82.3289970
  96.8318310   6.1117920  84.9237480  97.4492310   6.7869000  84.6421930
  95.9711430   6.5205900  84.8324980  92.1250650   5.3017780  73.8044330
  91.7478630   5.7904880  73.0729230  92.3823720   5.9743060  74.4350860
 107.7495900   7.5757330  82.8392120 107.0659420   8.2456440  82.8308790
 108.2890190   7.7737980  82.0736980 105.2854640   9.4201460  81.5537300
 105.2981800   9.0163750  80.6859560 104.7329860  10.1948750  81.4498730
 106.5800060   6.1417680  76.6427470 106.4696390   5.1992010  76.7676890
 106.5768310   6.5033320  77.5290230 104.6840080   4.3231300  82.8819910
 105.1008870   4.1091410  82.0473370 105.4079900   4.5804090  83.4528530
 102.1220340   1.7683000  75.9989960 101.1949620   1.7020380  76.2278430
 102.2745160   2.7063130  75.8845200 108.6302180   2.7218520  82.9736150
 107.8020810   2.7911610  82.4986280 109.2252660   3.3072830  82.5051980
 106.1517630   3.3303300  76.5025210 105.5330050   2.9922850  75.8551510
 106.1342080   2.6863060  77.2104400  97.7276980   2.2947740  78.7809690
  97.3233980   1.5824990  78.2855590  97.8140100   1.9500980  79.6697730
  98.1958680   5.9815300  80.9448900  97.8986970   5.3760770  80.2656680
  99.1458500   6.0192610  80.8338260 106.2844290   9.5547170  84.6072000
 105.8074850  10.3619360  84.4144610 105.6006080   8.9025500  84.7598210
  97.2877110   5.7196990  87.5956700  96.3905640   5.9436960  87.8430100
  97.3129980   5.8431930  86.6468100 104.3282330   2.5690110  73.5097960
 104.7675610   1.7312540  73.3635780 105.0410750   3.2019510  73.5962100
  96.1148330   2.5910310  86.1714070  95.9756100   3.4633110  86.5401470
  95.2329690   2.2483120  86.0262010 102.4377710   7.5086180  77.4779200
 102.8773620   8.2510510  77.0634590 102.3764600   7.7512750  78.4018160
  97.9128680   8.5332010  88.3799220  97.8844110   8.9374960  87.5127650
  97.7493650   7.6042370  88.2170820 109.8643500   9.3159110  89.6763390
 110.3403220   9.7942000  90.3552470 110.4850660   9.2476600  88.9508890
  92.0666980   4.3607860  82.0884980  92.1447400   4.4956630  81.1440700
  92.6808660   3.6523750  82.2813100  93.3114610   6.0608050  78.4991160
  92.9042690   6.2022640  77.6444760  94.2027620   5.7768210  78.2962370
 109.2676750   6.5071960  86.8363400 109.3939810   6.2683840  85.9180580
 109.3098130   5.6756500  87.3085480 103.1293490  10.2099960  85.4058210
 103.6438160  10.1207970  86.2080640 102.2862570  10.5559660  85.6986120
 105.1047890  10.4955300  74.8342210 104.9449030  10.2058240  75.7324040
 104.9394600   9.7195430  74.2987440  97.5836270  10.2753830  76.6113830
  97.4078750   9.3589370  76.3981630  96.7292010  10.6341120  76.8511630
 104.8074020   8.0042860  73.3940210 104.1139180   8.0020150  72.7342490
 105.5496880   7.5802180  72.9634380 104.3723950   9.6305570  77.4688700
 104.8280900   8.8494950  77.7827320 104.7116470  10.3412390  78.0129880
  92.1226500   5.4022030  84.6279440  92.2857540   4.9327390  83.8098810
  92.5878950   4.8945590  85.2928280  93.6965480   4.7773460  86.7875250
  93.3120270   4.1367130  87.3858210  94.0077670   5.4809580  87.3569980
  96.1643780   4.8719630  75.1834930  95.3906040   4.3317250  75.0233650
  96.8938410   4.3526240  74.8452690 106.9231760   3.8684990  80.9761320
 107.6430880   4.3640280  80.5857430 106.7213580   3.1902880  80.3315190
 102.3050560   3.9394050  86.8630320 102.2387870   3.0189720  86.6087910
 101.6755700   4.0369490  87.5774960  96.2081180   4.5400010  78.8213740
  96.7259850   3.7368270  78.7670630  95.7565200   4.4779150  79.6630570
 101.0950680   5.8066290  74.0941040 101.4366380   6.5508520  73.5984360
 100.2663390   6.1197410  74.4565870 102.2367290   6.7614620  86.6134120
 102.2511830   5.8295580  86.3953030 101.5292390   6.8474380  87.2523890
 108.4478500   3.4021960  85.9602700 107.7226690   3.9950740  85.7632090
 108.9753960   3.3945500  85.1616070 108.3991610   7.7996700  75.6114860
 107.7567770   7.1452320  75.8858580 108.0122270   8.2051790  74.8355530
 103.9778090   5.1282130  79.4586550 104.3301910   4.5310260  78.7987920
 103.0940420   4.8026360  79.6294800 100.0641370   5.8879820  76.8656960
 100.7512500   6.4349030  77.2464550  99.2773790   6.4320550  76.9006570
  99.3668580   2.8925850  76.4782320  99.8231360   3.7031100  76.7042510
  99.0156790   2.5748990  77.3100810 101.6701190   8.4032190  83.7074620
 102.3143410   8.6091570  84.3848040 102.0330630   7.6420590  83.2545470
 102.9433270   6.4064540  82.4252070 103.5855500   5.7057700  82.5384240
 103.4682620   7.1862980  82.2448960 106.7888990   6.6913160  72.1491210
 106.5626570   5.9743600  72.7415850 106.3985190   6.4425600  71.3112960
 104.7170890   7.2059440  85.6288130 105.0527130   7.7926130  86.3066050
 103.7971230   7.0752150  85.8585920  92.5705020  10.7180020  72.9235670
  92.9302660  11.3169360  72.2692940  92.4297360  11.2639910  73.6970700
 106.3705240   4.6085100  73.8105370 106.0826940   5.0697790  74.5983250
 107.1657410   4.1482870  74.0789590  92.5546880   8.9834880  87.3978070
  92.6638000   8.0429620  87.2573460  91.9027440   9.2489630  86.7491800
 100.5459470   7.2550770  88.7976190 100.2256340   6.5360010  89.3421880
  99.8717830   7.9305840  88.8712250  98.5873640   8.1011220  73.7409340
  98.5783740   8.8340910  73.1253850  97.6672000   7.8542800  73.8336300
  94.1880280   3.3226110  74.4856100  93.5808230   4.0625010  74.4951400
  94.6629630   3.4125470  73.6594300 101.5733240   8.1639460  72.4034530
 101.6745220   7.9603450  71.4736510 100.6734980   7.9097740  72.6082310
 100.2151350  10.6825780  77.0982200 100.4692850  10.6447170  76.1761570
  99.2663830  10.5559110  77.0910450  96.1985570   3.2837260  72.2344670
  96.9648840   3.1718620  72.7970100  96.2760260   2.5875230  71.5821440
 108.2229510   8.7726510  80.3494970 108.3476930   9.5957680  80.8218780
 109.0895070   8.5617240  80.0019120  95.6947040  10.8657720  80.0212100
  96.4309520  10.3173180  80.2920670  96.0787960  11.7313730  79.8818090
  92.5792520   6.9331290  75.8953610  91.6532300   7.1752430  75.8859020
  93.0448950   7.7605550  75.7738360  94.7005320  10.0503790  89.2097680
  95.5018050  10.3715840  89.6233080  94.1857140   9.6899370  89.9317590
  98.8049350  10.0388030  71.8437670  99.5977960  10.3276860  71.3919460
  98.2853700   9.6080200  71.1650150 103.5369950   6.1583660  89.1573090
 102.9308110   6.1815260  88.4168840 103.2324060   5.4266700  89.6940340
 104.9670320   9.8863950  87.7682500 105.9192070   9.8021970  87.7182740
 104.8198540  10.5505660  88.4416290 107.8579520   9.2658160  73.2674410
 107.5721030   8.8523300  72.4528590 107.6599070  10.1945870  73.1474930
  92.4203130   2.5377250  88.1533730  92.9242150   1.9584530  88.7249960
  91.6810550   2.8217480  88.6910100  99.3226750   5.2591440  71.7080020
  99.2177390   4.6443790  72.4341400  99.1550970   4.7357330  70.9243030
  99.4741070   3.9448240  87.6869250  98.7086740   4.5133240  87.6023920
  99.6557030   3.6524450  86.7937480 102.5629480   4.3211470  72.3122010
 102.0139580   4.7680770  72.9564750 103.1848740   3.8160720  72.8359680
 106.6164420   5.6753570  88.2444270 107.3573890   6.0129330  87.7411730
 105.8537100   5.8445630  87.6914040  98.2304600   3.2802390  74.2087310
  98.6521020   3.1142260  75.0518700  98.3555440   2.4702620  73.7142450
 100.7432240   2.3040000  71.4564410 101.2637900   1.5889020  71.0905560
 101.3900640   2.9425870  71.7564920 105.2910080   3.7268400  86.7799480
 105.7051100   3.8813480  87.6289900 104.3561080   3.8523620  86.9425260
 100.0525310   3.6788880  84.7495410 100.4713420   4.5221610  84.5771650
  99.1333940   3.8160920  84.5202190 104.7277110   1.9642250  84.7095760
 104.2012330   2.4884870  84.1060900 105.0708450   2.5969640  85.3405490
  97.9032730   9.9841890  85.8653140  97.3653820  10.7087950  85.5461840
  98.1566690   9.5072230  85.0750480 100.7594940  11.2193100  86.1239790
 100.6853640  12.1228240  86.4312160  99.8573780  10.9005000  86.0961860
 101.3080270  10.3851610  73.7466150 102.2031060  10.7236580  73.7684910
 101.3397900   9.6631020  73.1190430  94.9476430   5.7578660  71.9753150
  95.3851300   6.3008330  72.6310730  95.4324160   4.9325610  71.9849490
  92.1622230   8.5467690  79.4273410  92.4925240   7.6788750  79.1952050
  92.5913230   8.7526210  80.2578370  96.7584150   6.8776700  77.0875380
  96.4579690   6.7541670  77.9879290  96.6521640   6.0185290  76.6791110
  92.6512440   9.4138280  82.1655040  92.2143430   9.5939080  82.9979190
  93.2190120  10.1712900  82.0236760 108.2874620   8.9155280  86.4532350
 107.6876610   8.9747840  85.7096270 108.4168520   7.9760260  86.5829200
 109.5276070   6.6573100  71.7902060 108.6969030   6.7249750  72.2609290
 109.7047900   7.5477220  71.4868920 108.9832530   3.4020580  74.2936260
 109.7451440   3.9717230  74.3995950 108.9986900   2.8347780  75.0644570
  92.4836870   1.9258510  78.5243920  91.8285710   1.6570150  77.8803620
  93.3214820   1.8162990  78.0745900 109.9892500   4.2570680  79.1378190
 110.3601330   3.4738000  78.7314160 110.6294430   4.9459780  78.9595490
 106.9726260   5.6407260  84.5508510 106.1586100   6.0704420  84.8134300
 107.3800460   6.2525670  83.9377560 109.0351700   3.6954950  71.4508780
 109.3100540   4.6033830  71.3228000 108.8462440   3.6317480  72.3870770
  93.5212800   2.3111080  83.0647260  93.8885840   2.2238480  83.9443280
  92.9523620   1.5477630  82.9654120 107.0302310  10.3925860  78.0776780
 107.6261380  10.0710430  77.4011200 107.2880460   9.9197680  78.8690050
  94.9364880   6.8243770  88.2267410  94.8934510   6.4536680  89.1081870
  95.0675890   7.7621340  88.3669230  98.6370910   8.3803360  83.8277130
  98.3962270   8.6477920  82.9407650  99.5773550   8.5509090  83.8827990
 109.8975070  10.3997740  84.6287770 109.4033350  10.7966610  83.9114900
 109.2888360   9.7746950  85.0225050  94.7752910   9.7706020  85.3465190
  94.1813230   9.6390720  86.0855230  94.7676750   8.9344160  84.8807290
 107.5814520  11.0421160  81.9074510 107.1217490  11.7936970  81.5332530
 106.9526980  10.3227630  81.8489310  94.4065140   7.1364400  84.2973230
  93.6799200   6.5169690  84.2299180  94.4674290   7.5305010  83.4271310
  98.0110240   9.3509400  81.0822640  98.5275260   8.7396760  80.5570900
  98.6607620   9.8538180  81.5733650 100.7505740  10.2417890  81.9091620
 101.0383550   9.9872190  81.0324630 101.2628960   9.6895250  82.4997190
  92.6895140  10.4538790  77.5069990  92.5217180   9.8209470  78.2051880
  91.8229650  10.6598190  77.1564180  94.2957840   9.1472020  74.9520130
  93.7705460   9.5280050  74.2482090  94.2202420   9.7722790  75.6729840
 100.8178100  11.1633990  89.2759820 101.7445410  10.9278260  89.3195780
 100.8028530  11.9905990  88.7945850 109.0523160  10.7059560  76.2734070
 109.2275350  10.0197300  75.6294990 108.3544730  11.2306610  75.8810740
  96.8950810  11.0954400  73.8269380  97.6269630  10.8113680  73.2793270
  97.1544480  10.8567680  74.7168760  96.0565600   7.2119130  73.8315710
  95.4274480   7.6804230  74.3801540  96.1713430   6.3668350  74.2661900
 107.3855660  10.3903850  89.1000860 108.1780980   9.8953080  88.8926820
 107.6788810  11.0693990  89.7076470 101.6433360   3.0403810  61.8626180
 100.8675460   2.5604250  62.1524750 102.2946290   2.3609460  61.6882340
  95.6599190   3.3523620  62.7401940  94.8284070   3.0972330  63.1398450
  96.2680170   3.4234390  63.4759860 105.6640790   7.4464000  60.6425310
 105.2022320   6.6751240  60.9712480 106.4766340   7.4730070  61.1477760
  95.6400450   7.3863710  62.9359960  95.9428490   6.4961450  62.7570180
  96.3844040   7.9433930  62.7082210 101.8904100   9.7322010  60.2629300
 101.2715540  10.1879510  59.6923740 102.7455880   9.8873470  59.8619000
 101.0842350   5.7161000  61.8696340 101.0150630   4.7750940  61.7085470
 101.8462210   5.8062410  62.4418910 102.7567450   4.6161250  57.6561210
 102.1384720   5.0810700  57.0923930 103.2690700   5.3088730  58.0730720
  97.6199210   4.1437120  64.3344810  97.2868590   4.7706040  64.9765880
  97.7965890   4.6699000  63.5546480  96.8318310   6.1117920  66.1493990
  97.4492310   6.7869000  65.8678440  95.9711430   6.5205900  66.0581490
  92.1250650   5.3017780  55.0300840  91.7478630   5.7904880  54.2985740
  92.3823720   5.9743060  55.6607370 107.7495900   7.5757330  64.0648630
 107.0659420   8.2456440  64.0565300 108.2890190   7.7737980  63.2993490
 105.2854640   9.4201460  62.7793810 105.2981800   9.0163750  61.9116070
 104.7329860  10.1948750  62.6755240 106.5800060   6.1417680  57.8683980
 106.4696390   5.1992010  57.9933400 106.5768310   6.5033320  58.7546740
 104.6840080   4.3231300  64.1076420 105.1008870   4.1091410  63.2729880
 105.4079900   4.5804090  64.6785040 102.1220340   1.7683000  57.2246470
 101.1949620   1.7020380  57.4534940 102.2745160   2.7063130  57.1101710
 108.6302180   2.7218520  64.1992660 107.8020810   2.7911610  63.7242790
 109.2252660   3.3072830  63.7308490 106.1517630   3.3303300  57.7281720
 105.5330050   2.9922850  57.0808020 106.1342080   2.6863060  58.4360910
  97.7276980   2.2947740  60.0066200  97.3233980   1.5824990  59.5112100
  97.8140100   1.9500980  60.8954240  98.1958680   5.9815300  62.1705410
  97.8986970   5.3760770  61.4913190  99.1458500   6.0192610  62.0594770
 106.2844290   9.5547170  65.8328510 105.8074850  10.3619360  65.6401120
 105.6006080   8.9025500  65.9854720  97.2877110   5.7196990  68.8213210
  96.3905640   5.9436960  69.0686610  97.3129980   5.8431930  67.8724610
 104.3282330   2.5690110  54.7354470 104.7675610   1.7312540  54.5892290
 105.0410750   3.2019510  54.8218610  96.1148330   2.5910310  67.3970580
  95.9756100   3.4633110  67.7657980  95.2329690   2.2483120  67.2518520
 102.4377710   7.5086180  58.7035710 102.8773620   8.2510510  58.2891100
 102.3764600   7.7512750  59.6274670  97.9128680   8.5332010  69.6055730
  97.8844110   8.9374960  68.7384160  97.7493650   7.6042370  69.4427330
 109.8643500   9.3159110  70.9019900 110.3403220   9.7942000  71.5808980
 110.4850660   9.2476600  70.1765400  92.0666980   4.3607860  63.3141490
  92.1447400   4.4956630  62.3697210  92.6808660   3.6523750  63.5069610
  93.3114610   6.0608050  59.7247670  92.9042690   6.2022640  58.8701270
  94.2027620   5.7768210  59.5218880 109.2676750   6.5071960  68.0619910
 109.3939810   6.2683840  67.1437090 109.3098130   5.6756500  68.5341990
 103.1293490  10.2099960  66.6314720 103.6438160  10.1207970  67.4337150
 102.2862570  10.5559660  66.9242630 105.1047890  10.4955300  56.0598720
 104.9449030  10.2058240  56.9580550 104.9394600   9.7195430  55.5243950
  97.5836270  10.2753830  57.8370340  97.4078750   9.3589370  57.6238140
  96.7292010  10.6341120  58.0768140 104.8074020   8.0042860  54.6196720
 104.1139180   8.0020150  53.9599000 105.5496880   7.5802180  54.1890890
 104.3723950   9.6305570  58.6945210 104.8280900   8.8494950  59.0083830
 104.7116470  10.3412390  59.2386390  92.1226500   5.4022030  65.8535950
  92.2857540   4.9327390  65.0355320  92.5878950   4.8945590  66.5184790
  93.6965480   4.7773460  68.0131760  93.3120270   4.1367130  68.6114720
  94.0077670   5.4809580  68.5826490  96.1643780   4.8719630  56.4091440
  95.3906040   4.3317250  56.2490160  96.8938410   4.3526240  56.0709200
 106.9231760   3.8684990  62.2017830 107.6430880   4.3640280  61.8113940
 106.7213580   3.1902880  61.5571700 102.3050560   3.9394050  68.0886830
 102.2387870   3.0189720  67.8344420 101.6755700   4.0369490  68.8031470
  96.2081180   4.5400010  60.0470250  96.7259850   3.7368270  59.9927140
  95.7565200   4.4779150  60.8887080 101.0950680   5.8066290  55.3197550
 101.4366380   6.5508520  54.8240870 100.2663390   6.1197410  55.6822380
 102.2367290   6.7614620  67.8390630 102.2511830   5.8295580  67.6209540
 101.5292390   6.8474380  68.4780400 108.4478500   3.4021960  67.1859210
 107.7226690   3.9950740  66.9888600 108.9753960   3.3945500  66.3872580
 108.3991610   7.7996700  56.8371370 107.7567770   7.1452320  57.1115090
 108.0122270   8.2051790  56.0612040 103.9778090   5.1282130  60.6843060
 104.3301910   4.5310260  60.0244430 103.0940420   4.8026360  60.8551310
 100.0641370   5.8879820  58.0913470 100.7512500   6.4349030  58.4721060
  99.2773790   6.4320550  58.1263080  99.3668580   2.8925850  57.7038830
  99.8231360   3.7031100  57.9299020  99.0156790   2.5748990  58.5357320
 101.6701190   8.4032190  64.9331130 102.3143410   8.6091570  65.6104550
 102.0330630   7.6420590  64.4801980 102.9433270   6.4064540  63.6508580
 103.5855500   5.7057700  63.7640750 103.4682620   7.1862980  63.4705470
 106.7888990   6.6913160  53.3747720 106.5626570   5.9743600  53.9672360
 106.3985190   6.4425600  52.5369470 104.7170890   7.2059440  66.8544640
 105.0527130   7.7926130  67.5322560 103.7971230   7.0752150  67.0842430
  92.5705020  10.7180020  54.1492180  92.9302660  11.3169360  53.4949450
  92.4297360  11.2639910  54.9227210 106.3705240   4.6085100  55.0361880
 106.0826940   5.0697790  55.8239760 107.1657410   4.1482870  55.3046100
  92.5546880   8.9834880  68.6234580  92.6638000   8.0429620  68.4829970
  91.9027440   9.2489630  67.9748310 100.5459470   7.2550770  70.0232700
 100.2256340   6.5360010  70.5678390  99.8717830   7.9305840  70.0968760
  98.5873640   8.1011220  54.9665850  98.5783740   8.8340910  54.3510360
  97.6672000   7.8542800  55.0592810  94.1880280   3.3226110  55.7112610
  93.5808230   4.0625010  55.7207910  94.6629630   3.4125470  54.8850810
 101.5733240   8.1639460  53.6291040 101.6745220   7.9603450  52.6993020
 100.6734980   7.9097740  53.8338820 100.2151350  10.6825780  58.3238710
 100.4692850  10.6447170  57.4018080  99.2663830  10.5559110  58.3166960
  96.1985570   3.2837260  53.4601180  96.9648840   3.1718620  54.0226610
  96.2760260   2.5875230  52.8077950 108.2229510   8.7726510  61.5751480
 108.3476930   9.5957680  62.0475290 109.0895070   8.5617240  61.2275630
  95.6947040  10.8657720  61.2468610  96.4309520  10.3173180  61.5177180
  96.0787960  11.7313730  61.1074600  92.5792520   6.9331290  57.1210120
  91.6532300   7.1752430  57.1115530  93.0448950   7.7605550  56.9994870
  94.7005320  10.0503790  70.4354190  95.5018050  10.3715840  70.8489590
  94.1857140   9.6899370  71.1574100  98.8049350  10.0388030  53.0694180
  99.5977960  10.3276860  52.6175970  98.2853700   9.6080200  52.3906660
 103.5369950   6.1583660  70.3829600 102.9308110   6.1815260  69.6425350
 103.2324060   5.4266700  70.9196850 104.9670320   9.8863950  68.9939010
 105.9192070   9.8021970  68.9439250 104.8198540  10.5505660  69.6672800
 107.8579520   9.2658160  54.4930920 107.5721030   8.8523300  53.6785100
 107.6599070  10.1945870  54.3731440  92.4203130   2.5377250  69.3790240
  92.9242150   1.9584530  69.9506470  91.6810550   2.8217480  69.9166610
  99.3226750   5.2591440  52.9336530  99.2177390   4.6443790  53.6597910
  99.1550970   4.7357330  52.1499540  99.4741070   3.9448240  68.9125760
  98.7086740   4.5133240  68.8280430  99.6557030   3.6524450  68.0193990
 102.5629480   4.3211470  53.5378520 102.0139580   4.7680770  54.1821260
 103.1848740   3.8160720  54.0616190 106.6164420   5.6753570  69.4700780
 107.3573890   6.0129330  68.9668240 105.8537100   5.8445630  68.9170550
  98.2304600   3.2802390  55.4343820  98.6521020   3.1142260  56.2775210
  98.3555440   2.4702620  54.9398960 100.7432240   2.3040000  52.6820920
 101.2637900   1.5889020  52.3162070 101.3900640   2.9425870  52.9821430
 105.2910080   3.7268400  68.0055990 105.7051100   3.8813480  68.8546410
 104.3561080   3.8523620  68.1681770 100.0525310   3.6788880  65.9751920
 100.4713420   4.5221610  65.8028160  99.1333940   3.8160920  65.7458700
 104.7277110   1.9642250  65.9352270 104.2012330   2.4884870  65.3317410
 105.0708450   2.5969640  66.5662000  97.9032730   9.9841890  67.0909650
  97.3653820  10.7087950  66.7718350  98.1566690   9.5072230  66.3006990
 100.7594940  11.2193100  67.3496300 100.6853640  12.1228240  67.6568670
  99.8573780  10.9005000  67.3218370 101.3080270  10.3851610  54.9722660
 102.2031060  10.7236580  54.9941420 101.3397900   9.6631020  54.3446940
  94.9476430   5.7578660  53.2009660  95.3851300   6.3008330  53.8567240
  95.4324160   4.9325610  53.2106000  92.1622230   8.5467690  60.6529920
  92.4925240   7.6788750  60.4208560  92.5913230   8.7526210  61.4834880
  96.7584150   6.8776700  58.3131890  96.4579690   6.7541670  59.2135800
  96.6521640   6.0185290  57.9047620  92.6512440   9.4138280  63.3911550
  92.2143430   9.5939080  64.2235700  93.2190120  10.1712900  63.2493270
 108.2874620   8.9155280  67.6788860 107.6876610   8.9747840  66.9352780
 108.4168520   7.9760260  67.8085710 109.5276070   6.6573100  53.0158570
 108.6969030   6.7249750  53.4865800 109.7047900   7.5477220  52.7125430
 108.9832530   3.4020580  55.5192770 109.7451440   3.9717230  55.6252460
 108.9986900   2.8347780  56.2901080  92.4836870   1.9258510  59.7500430
  91.8285710   1.6570150  59.1060130  93.3214820   1.8162990  59.3002410
 109.9892500   4.2570680  60.3634700 110.3601330   3.4738000  59.9570670
 110.6294430   4.9459780  60.1852000 106.9726260   5.6407260  65.7765020
 106.1586100   6.0704420  66.0390810 107.3800460   6.2525670  65.1634070
 109.0351700   3.6954950  52.6765290 109.3100540   4.6033830  52.5484510
 108.8462440   3.6317480  53.6127280  93.5212800   2.3111080  64.2903770
  93.8885840   2.2238480  65.1699790  92.9523620   1.5477630  64.1910630
 107.0302310  10.3925860  59.3033290 107.6261380  10.0710430  58.6267710
 107.2880460   9.9197680  60.0946560  94.9364880   6.8243770  69.4523920
  94.8934510   6.4536680  70.3338380  95.0675890   7.7621340  69.5925740
  98.6370910   8.3803360  65.0533640  98.3962270   8.6477920  64.1664160
  99.5773550   8.5509090  65.1084500 109.8975070  10.3997740  65.8544280
 109.4033350  10.7966610  65.1371410 109.2888360   9.7746950  66.2481560
  94.7752910   9.7706020  66.5721700  94.1813230   9.6390720  67.3111740
  94.7676750   8.9344160  66.1063800 107.5814520  11.0421160  63.1331020
 107.1217490  11.7936970  62.7589040 106.9526980  10.3227630  63.0745820
  94.4065140   7.1364400  65.5229740  93.6799200   6.5169690  65.4555690
  94.4674290   7.5305010  64.6527820  98.0110240   9.3509400  62.3079150
  98.5275260   8.7396760  61.7827410  98.6607620   9.8538180  62.7990160
 100.7505740  10.2417890  63.1348130 101.0383550   9.9872190  62.2581140
 101.2628960   9.6895250  63.7253700  92.6895140  10.4538790  58.7326500
  92.5217180   9.8209470  59.4308390  91.8229650  10.6598190  58.3820690
  94.2957840   9.1472020  56.1776640  93.7705460   9.5280050  55.4738600
  94.2202420   9.7722790  56.8986350 100.8178100  11.1633990  70.5016330
 101.7445410  10.9278260  70.5452290 100.8028530  11.9905990  70.0202360
 109.0523160  10.7059560  57.4990580 109.2275350  10.0197300  56.8551500
 108.3544730  11.2306610  57.1067250  96.8950810  11.0954400  55.0525890
  97.6269630  10.8113680  54.5049780  97.1544480  10.8567680  55.9425270
  96.0565600   7.2119130  55.0572220  95.4274480   7.6804230  55.6058050
  96.1713430   6.3668350  55.4918410 107.3855660  10.3903850  70.3257370
 108.1780980   9.8953080  70.1183330 107.6788810  11.0693990  70.9332980
 101.6433360   3.0403810  43.0882690 100.8675460   2.5604250  43.3781260
 102.2946290   2.3609460  42.9138850  95.6599190   3.3523620  43.9658450
  94.8284070   3.0972330  44.3654960  96.2680170   3.4234390  44.7016370
 105.6640790   7.4464000  41.8681820 105.2022320   6.6751240  42.1968990
 106.4766340   7.4730070  42.3734270  95.6400450   7.3863710  44.1616470
  95.9428490   6.4961450  43.9826690  96.3844040   7.9433930  43.9338720
 101.8904100   9.7322010  41.4885810 101.2715540  10.1879510  40.9180250
 102.7455880   9.8873470  41.0875510 101.0842350   5.7161000  43.0952850
 101.0150630   4.7750940  42.9341980 101.8462210   5.8062410  43.6675420
 102.7567450   4.6161250  38.8817720 102.1384720   5.0810700  38.3180440
 103.2690700   5.3088730  39.2987230  97.6199210   4.1437120  45.5601320
  97.2868590   4.7706040  46.2022390  97.7965890   4.6699000  44.7802990
  96.8318310   6.1117920  47.3750500  97.4492310   6.7869000  47.0934950
  95.9711430   6.5205900  47.2838000  92.1250650   5.3017780  36.2557350
  91.7478630   5.7904880  35.5242250  92.3823720   5.9743060  36.8863880
 107.7495900   7.5757330  45.2905140 107.0659420   8.2456440  45.2821810
 108.2890190   7.7737980  44.5250000 105.2854640   9.4201460  44.0050320
 105.2981800   9.0163750  43.1372580 104.7329860  10.1948750  43.9011750
 106.5800060   6.1417680  39.0940490 106.4696390   5.1992010  39.2189910
 106.5768310   6.5033320  39.9803250 104.6840080   4.3231300  45.3332930
 105.1008870   4.1091410  44.4986390 105.4079900   4.5804090  45.9041550
 102.1220340   1.7683000  38.4502980 101.1949620   1.7020380  38.6791450
 102.2745160   2.7063130  38.3358220 108.6302180   2.7218520  45.4249170
 107.8020810   2.7911610  44.9499300 109.2252660   3.3072830  44.9565000
 106.1517630   3.3303300  38.9538230 105.5330050   2.9922850  38.3064530
 106.1342080   2.6863060  39.6617420  97.7276980   2.2947740  41.2322710
  97.3233980   1.5824990  40.7368610  97.8140100   1.9500980  42.1210750
  98.1958680   5.9815300  43.3961920  97.8986970   5.3760770  42.7169700
  99.1458500   6.0192610  43.2851280 106.2844290   9.5547170  47.0585020
 105.8074850  10.3619360  46.8657630 105.6006080   8.9025500  47.2111230
  97.2877110   5.7196990  50.0469720  96.3905640   5.9436960  50.2943120
  97.3129980   5.8431930  49.0981120 104.3282330   2.5690110  35.9610980
 104.7675610   1.7312540  35.8148800 105.0410750   3.2019510  36.0475120
  96.1148330   2.5910310  48.6227090  95.9756100   3.4633110  48.9914490
  95.2329690   2.2483120  48.4775030 102.4377710   7.5086180  39.9292220
 102.8773620   8.2510510  39.5147610 102.3764600   7.7512750  40.8531180
  97.9128680   8.5332010  50.8312240  97.8844110   8.9374960  49.9640670
  97.7493650   7.6042370  50.6683840 109.8643500   9.3159110  52.1276410
 110.3403220   9.7942000  52.8065490 110.4850660   9.2476600  51.4021910
  92.0666980   4.3607860  44.5398000  92.1447400   4.4956630  43.5953720
  92.6808660   3.6523750  44.7326120  93.3114610   6.0608050  40.9504180
  92.9042690   6.2022640  40.0957780  94.2027620   5.7768210  40.7475390
 109.2676750   6.5071960  49.2876420 109.3939810   6.2683840  48.3693600
 109.3098130   5.6756500  49.7598500 103.1293490  10.2099960  47.8571230
 103.6438160  10.1207970  48.6593660 102.2862570  10.5559660  48.1499140
 105.1047890  10.4955300  37.2855230 104.9449030  10.2058240  38.1837060
 104.9394600   9.7195430  36.7500460  97.5836270  10.2753830  39.0626850
  97.4078750   9.3589370  38.8494650  96.7292010  10.6341120  39.3024650
 104.8074020   8.0042860  35.8453230 104.1139180   8.0020150  35.1855510
 105.5496880   7.5802180  35.4147400 104.3723950   9.6305570  39.9201720
 104.8280900   8.8494950  40.2340340 104.7116470  10.3412390  40.4642900
  92.1226500   5.4022030  47.0792460  92.2857540   4.9327390  46.2611830
  92.5878950   4.8945590  47.7441300  93.6965480   4.7773460  49.2388270
  93.3120270   4.1367130  49.8371230  94.0077670   5.4809580  49.8083000
  96.1643780   4.8719630  37.6347950  95.3906040   4.3317250  37.4746670
  96.8938410   4.3526240  37.2965710 106.9231760   3.8684990  43.4274340
 107.6430880   4.3640280  43.0370450 106.7213580   3.1902880  42.7828210
 102.3050560   3.9394050  49.3143340 102.2387870   3.0189720  49.0600930
 101.6755700   4.0369490  50.0287980  96.2081180   4.5400010  41.2726760
  96.7259850   3.7368270  41.2183650  95.7565200   4.4779150  42.1143590
 101.0950680   5.8066290  36.5454060 101.4366380   6.5508520  36.0497380
 100.2663390   6.1197410  36.9078890 102.2367290   6.7614620  49.0647140
 102.2511830   5.8295580  48.8466050 101.5292390   6.8474380  49.7036910
 108.4478500   3.4021960  48.4115720 107.7226690   3.9950740  48.2145110
 108.9753960   3.3945500  47.6129090 108.3991610   7.7996700  38.0627880
 107.7567770   7.1452320  38.3371600 108.0122270   8.2051790  37.2868550
 103.9778090   5.1282130  41.9099570 104.3301910   4.5310260  41.2500940
 103.0940420   4.8026360  42.0807820 100.0641370   5.8879820  39.3169980
 100.7512500   6.4349030  39.6977570  99.2773790   6.4320550  39.3519590
  99.3668580   2.8925850  38.9295340  99.8231360   3.7031100  39.1555530
  99.0156790   2.5748990  39.7613830 101.6701190   8.4032190  46.1587640
 102.3143410   8.6091570  46.8361060 102.0330630   7.6420590  45.7058490
 102.9433270   6.4064540  44.8765090 103.5855500   5.7057700  44.9897260
 103.4682620   7.1862980  44.6961980 106.7888990   6.6913160  34.6004230
 106.5626570   5.9743600  35.1928870 106.3985190   6.4425600  33.7625980
 104.7170890   7.2059440  48.0801150 105.0527130   7.7926130  48.7579070
 103.7971230   7.0752150  48.3098940  92.5705020  10.7180020  35.3748690
  92.9302660  11.3169360  34.7205960  92.4297360  11.2639910  36.1483720
 106.3705240   4.6085100  36.2618390 106.0826940   5.0697790  37.0496270
 107.1657410   4.1482870  36.5302610  92.5546880   8.9834880  49.8491090
  92.6638000   8.0429620  49.7086480  91.9027440   9.2489630  49.2004820
 100.5459470   7.2550770  51.2489210 100.2256340   6.5360010  51.7934900
  99.8717830   7.9305840  51.3225270  98.5873640   8.1011220  36.1922360
  98.5783740   8.8340910  35.5766870  97.6672000   7.8542800  36.2849320
  94.1880280   3.3226110  36.9369120  93.5808230   4.0625010  36.9464420
  94.6629630   3.4125470  36.1107320 101.5733240   8.1639460  34.8547550
 101.6745220   7.9603450  33.9249530 100.6734980   7.9097740  35.0595330
 100.2151350  10.6825780  39.5495220 100.4692850  10.6447170  38.6274590
  99.2663830  10.5559110  39.5423470  96.1985570   3.2837260  34.6857690
  96.9648840   3.1718620  35.2483120  96.2760260   2.5875230  34.0334460
 108.2229510   8.7726510  42.8007990 108.3476930   9.5957680  43.2731800
 109.0895070   8.5617240  42.4532140  95.6947040  10.8657720  42.4725120
  96.4309520  10.3173180  42.7433690  96.0787960  11.7313730  42.3331110
  92.5792520   6.9331290  38.3466630  91.6532300   7.1752430  38.3372040
  93.0448950   7.7605550  38.2251380  94.7005320  10.0503790  51.6610700
  95.5018050  10.3715840  52.0746100  94.1857140   9.6899370  52.3830610
  98.8049350  10.0388030  34.2950690  99.5977960  10.3276860  33.8432480
  98.2853700   9.6080200  33.6163170 103.5369950   6.1583660  51.6086110
 102.9308110   6.1815260  50.8681860 103.2324060   5.4266700  52.1453360
 104.9670320   9.8863950  50.2195520 105.9192070   9.8021970  50.1695760
 104.8198540  10.5505660  50.8929310 107.8579520   9.2658160  35.7187430
 107.5721030   8.8523300  34.9041610 107.6599070  10.1945870  35.5987950
  92.4203130   2.5377250  50.6046750  92.9242150   1.9584530  51.1762980
  91.6810550   2.8217480  51.1423120  99.3226750   5.2591440  34.1593040
  99.2177390   4.6443790  34.8854420  99.1550970   4.7357330  33.3756050
  99.4741070   3.9448240  50.1382270  98.7086740   4.5133240  50.0536940
  99.6557030   3.6524450  49.2450500 102.5629480   4.3211470  34.7635030
 102.0139580   4.7680770  35.4077770 103.1848740   3.8160720  35.2872700
 106.6164420   5.6753570  50.6957290 107.3573890   6.0129330  50.1924750
 105.8537100   5.8445630  50.1427060  98.2304600   3.2802390  36.6600330
  98.6521020   3.1142260  37.5031720  98.3555440   2.4702620  36.1655470
 100.7432240   2.3040000  33.9077430 101.2637900   1.5889020  33.5418580
 101.3900640   2.9425870  34.2077940 105.2910080   3.7268400  49.2312500
 105.7051100   3.8813480  50.0802920 104.3561080   3.8523620  49.3938280
 100.0525310   3.6788880  47.2008430 100.4713420   4.5221610  47.0284670
  99.1333940   3.8160920  46.9715210 104.7277110   1.9642250  47.1608780
 104.2012330   2.4884870  46.5573920 105.0708450   2.5969640  47.7918510
  97.9032730   9.9841890  48.3166160  97.3653820  10.7087950  47.9974860
  98.1566690   9.5072230  47.5263500 100.7594940  11.2193100  48.5752810
 100.6853640  12.1228240  48.8825180  99.8573780  10.9005000  48.5474880
 101.3080270  10.3851610  36.1979170 102.2031060  10.7236580  36.2197930
 101.3397900   9.6631020  35.5703450  94.9476430   5.7578660  34.4266170
  95.3851300   6.3008330  35.0823750  95.4324160   4.9325610  34.4362510
  92.1622230   8.5467690  41.8786430  92.4925240   7.6788750  41.6465070
  92.5913230   8.7526210  42.7091390  96.7584150   6.8776700  39.5388400
  96.4579690   6.7541670  40.4392310  96.6521640   6.0185290  39.1304130
  92.6512440   9.4138280  44.6168060  92.2143430   9.5939080  45.4492210
  93.2190120  10.1712900  44.4749780 108.2874620   8.9155280  48.9045370
 107.6876610   8.9747840  48.1609290 108.4168520   7.9760260  49.0342220
 109.5276070   6.6573100  34.2415080 108.6969030   6.7249750  34.7122310
 109.7047900   7.5477220  33.9381940 108.9832530   3.4020580  36.7449280
 109.7451440   3.9717230  36.8508970 108.9986900   2.8347780  37.5157590
  92.4836870   1.9258510  40.9756940  91.8285710   1.6570150  40.3316640
  93.3214820   1.8162990  40.5258920 109.9892500   4.2570680  41.5891210
 110.3601330   3.4738000  41.1827180 110.6294430   4.9459780  41.4108510
 106.9726260   5.6407260  47.0021530 106.1586100   6.0704420  47.2647320
 107.3800460   6.2525670  46.3890580 109.0351700   3.6954950  33.9021800
 109.3100540   4.6033830  33.7741020 108.8462440   3.6317480  34.8383790
  93.5212800   2.3111080  45.5160280  93.8885840   2.2238480  46.3956300
  92.9523620   1.5477630  45.4167140 107.0302310  10.3925860  40.5289800
 107.6261380  10.0710430  39.8524220 107.2880460   9.9197680  41.3203070
  94.9364880   6.8243770  50.6780430  94.8934510   6.4536680  51.5594890
  95.0675890   7.7621340  50.8182250  98.6370910   8.3803360  46.2790150
  98.3962270   8.6477920  45.3920670  99.5773550   8.5509090  46.3341010
 109.8975070  10.3997740  47.0800790 109.4033350  10.7966610  46.3627920
 109.2888360   9.7746950  47.4738070  94.7752910   9.7706020  47.7978210
  94.1813230   9.6390720  48.5368250  94.7676750   8.9344160  47.3320310
 107.5814520  11.0421160  44.3587530 107.1217490  11.7936970  43.9845550
 106.9526980  10.3227630  44.3002330  94.4065140   7.1364400  46.7486250
  93.6799200   6.5169690  46.6812200  94.4674290   7.5305010  45.8784330
  98.0110240   9.3509400  43.5335660  98.5275260   8.7396760  43.0083920
  98.6607620   9.8538180  44.0246670 100.7505740  10.2417890  44.3604640
 101.0383550   9.9872190  43.4837650 101.2628960   9.6895250  44.9510210
  92.6895140  10.4538790  39.9583010  92.5217180   9.8209470  40.6564900
  91.8229650  10.6598190  39.6077200  94.2957840   9.1472020  37.4033150
  93.7705460   9.5280050  36.6995110  94.2202420   9.7722790  38.1242860
 100.8178100  11.1633990  51.7272840 101.7445410  10.9278260  51.7708800
 100.8028530  11.9905990  51.2458870 109.0523160  10.7059560  38.7247090
 109.2275350  10.0197300  38.0808010 108.3544730  11.2306610  38.3323760
  96.8950810  11.0954400  36.2782400  97.6269630  10.8113680  35.7306290
  97.1544480  10.8567680  37.1681780  96.0565600   7.2119130  36.2828730
  95.4274480   7.6804230  36.8314560  96.1713430   6.3668350  36.7174920
 107.3855660  10.3903850  51.5513880 108.1780980   9.8953080  51.3439840
 107.6788810  11.0693990  52.1589490 101.6433360   3.0403810  24.3139200
 100.8675460   2.5604250  24.6037770 102.2946290   2.3609460  24.1395360
  95.6599190   3.3523620  25.1914960  94.8284070   3.0972330  25.5911470
  96.2680170   3.4234390  25.9272880 105.6640790   7.4464000  23.0938330
 105.2022320   6.6751240  23.4225500 106.4766340   7.4730070  23.5990780
  95.6400450   7.3863710  25.3872980  95.9428490   6.4961450  25.2083200
  96.3844040   7.9433930  25.1595230 101.8904100   9.7322010  22.7142320
 101.2715540  10.1879510  22.1436760 102.7455880   9.8873470  22.3132020
 101.0842350   5.7161000  24.3209360 101.0150630   4.7750940  24.1598490
 101.8462210   5.8062410  24.8931930 102.7567450   4.6161250  20.1074230
 102.1384720   5.0810700  19.5436950 103.2690700   5.3088730  20.5243740
  97.6199210   4.1437120  26.7857830  97.2868590   4.7706040  27.4278900
  97.7965890   4.6699000  26.0059500  96.8318310   6.1117920  28.6007010
  97.4492310   6.7869000  28.3191460  95.9711430   6.5205900  28.5094510
  92.1250650   5.3017780  17.4813860  91.7478630   5.7904880  16.7498760
  92.3823720   5.9743060  18.1120390 107.7495900   7.5757330  26.5161650
 107.0659420   8.2456440  26.5078320 108.2890190   7.7737980  25.7506510
 105.2854640   9.4201460  25.2306830 105.2981800   9.0163750  24.3629090
 104.7329860  10.1948750  25.1268260 106.5800060   6.1417680  20.3197000
 106.4696390   5.1992010  20.4446420 106.5768310   6.5033320  21.2059760
 104.6840080   4.3231300  26.5589440 105.1008870   4.1091410  25.7242900
 105.4079900   4.5804090  27.1298060 102.1220340   1.7683000  19.6759490
 101.1949620   1.7020380  19.9047960 102.2745160   2.7063130  19.5614730
 108.6302180   2.7218520  26.6505680 107.8020810   2.7911610  26.1755810
 109.2252660   3.3072830  26.1821510 106.1517630   3.3303300  20.1794740
 105.5330050   2.9922850  19.5321040 106.1342080   2.6863060  20.8873930
  97.7276980   2.2947740  22.4579220  97.3233980   1.5824990  21.9625120
  97.8140100   1.9500980  23.3467260  98.1958680   5.9815300  24.6218430
  97.8986970   5.3760770  23.9426210  99.1458500   6.0192610  24.5107790
 106.2844290   9.5547170  28.2841530 105.8074850  10.3619360  28.0914140
 105.6006080   8.9025500  28.4367740  97.2877110   5.7196990  31.2726230
  96.3905640   5.9436960  31.5199630  97.3129980   5.8431930  30.3237630
 104.3282330   2.5690110  17.1867490 104.7675610   1.7312540  17.0405310
 105.0410750   3.2019510  17.2731630  96.1148330   2.5910310  29.8483600
  95.9756100   3.4633110  30.2171000  95.2329690   2.2483120  29.7031540
 102.4377710   7.5086180  21.1548730 102.8773620   8.2510510  20.7404120
 102.3764600   7.7512750  22.0787690  97.9128680   8.5332010  32.0568750
  97.8844110   8.9374960  31.1897180  97.7493650   7.6042370  31.8940350
 109.8643500   9.3159110  33.3532920 110.3403220   9.7942000  34.0322000
 110.4850660   9.2476600  32.6278420  92.0666980   4.3607860  25.7654510
  92.1447400   4.4956630  24.8210230  92.6808660   3.6523750  25.9582630
  93.3114610   6.0608050  22.1760690  92.9042690   6.2022640  21.3214290
  94.2027620   5.7768210  21.9731900 109.2676750   6.5071960  30.5132930
 109.3939810   6.2683840  29.5950110 109.3098130   5.6756500  30.9855010
 103.1293490  10.2099960  29.0827740 103.6438160  10.1207970  29.8850170
 102.2862570  10.5559660  29.3755650 105.1047890  10.4955300  18.5111740
 104.9449030  10.2058240  19.4093570 104.9394600   9.7195430  17.9756970
  97.5836270  10.2753830  20.2883360  97.4078750   9.3589370  20.0751160
  96.7292010  10.6341120  20.5281160 104.8074020   8.0042860  17.0709740
 104.1139180   8.0020150  16.4112020 105.5496880   7.5802180  16.6403910
 104.3723950   9.6305570  21.1458230 104.8280900   8.8494950  21.4596850
 104.7116470  10.3412390  21.6899410  92.1226500   5.4022030  28.3048970
  92.2857540   4.9327390  27.4868340  92.5878950   4.8945590  28.9697810
  93.6965480   4.7773460  30.4644780  93.3120270   4.1367130  31.0627740
  94.0077670   5.4809580  31.0339510  96.1643780   4.8719630  18.8604460
  95.3906040   4.3317250  18.7003180  96.8938410   4.3526240  18.5222220
 106.9231760   3.8684990  24.6530850 107.6430880   4.3640280  24.2626960
 106.7213580   3.1902880  24.0084720 102.3050560   3.9394050  30.5399850
 102.2387870   3.0189720  30.2857440 101.6755700   4.0369490  31.2544490
  96.2081180   4.5400010  22.4983270  96.7259850   3.7368270  22.4440160
  95.7565200   4.4779150  23.3400100 101.0950680   5.8066290  17.7710570
 101.4366380   6.5508520  17.2753890 100.2663390   6.1197410  18.1335400
 102.2367290   6.7614620  30.2903650 102.2511830   5.8295580  30.0722560
 101.5292390   6.8474380  30.9293420 108.4478500   3.4021960  29.6372230
 107.7226690   3.9950740  29.4401620 108.9753960   3.3945500  28.8385600
 108.3991610   7.7996700  19.2884390 107.7567770   7.1452320  19.5628110
 108.0122270   8.2051790  18.5125060 103.9778090   5.1282130  23.1356080
 104.3301910   4.5310260  22.4757450 103.0940420   4.8026360  23.3064330
 100.0641370   5.8879820  20.5426490 100.7512500   6.4349030  20.9234080
  99.2773790   6.4320550  20.5776100  99.3668580   2.8925850  20.1551850
  99.8231360   3.7031100  20.3812040  99.0156790   2.5748990  20.9870340
 101.6701190   8.4032190  27.3844150 102.3143410   8.6091570  28.0617570
 102.0330630   7.6420590  26.9315000 102.9433270   6.4064540  26.1021600
 103.5855500   5.7057700  26.2153770 103.4682620   7.1862980  25.9218490
 106.7888990   6.6913160  15.8260740 106.5626570   5.9743600  16.4185380
 106.3985190   6.4425600  14.9882490 104.7170890   7.2059440  29.3057660
 105.0527130   7.7926130  29.9835580 103.7971230   7.0752150  29.5355450
  92.5705020  10.7180020  16.6005200  92.9302660  11.3169360  15.9462470
  92.4297360  11.2639910  17.3740230 106.3705240   4.6085100  17.4874900
 106.0826940   5.0697790  18.2752780 107.1657410   4.1482870  17.7559120
  92.5546880   8.9834880  31.0747600  92.6638000   8.0429620  30.9342990
  91.9027440   9.2489630  30.4261330 100.5459470   7.2550770  32.4745720
 100.2256340   6.5360010  33.0191410  99.8717830   7.9305840  32.5481780
  98.5873640   8.1011220  17.4178870  98.5783740   8.8340910  16.8023380
  97.6672000   7.8542800  17.5105830  94.1880280   3.3226110  18.1625630
  93.5808230   4.0625010  18.1720930  94.6629630   3.4125470  17.3363830
 101.5733240   8.1639460  16.0804060 101.6745220   7.9603450  15.1506040
 100.6734980   7.9097740  16.2851840 100.2151350  10.6825780  20.7751730
 100.4692850  10.6447170  19.8531100  99.2663830  10.5559110  20.7679980
  96.1985570   3.2837260  15.9114200  96.9648840   3.1718620  16.4739630
  96.2760260   2.5875230  15.2590970 108.2229510   8.7726510  24.0264500
 108.3476930   9.5957680  24.4988310 109.0895070   8.5617240  23.6788650
  95.6947040  10.8657720  23.6981630  96.4309520  10.3173180  23.9690200
  96.0787960  11.7313730  23.5587620  92.5792520   6.9331290  19.5723140
  91.6532300   7.1752430  19.5628550  93.0448950   7.7605550  19.4507890
  94.7005320  10.0503790  32.8867210  95.5018050  10.3715840  33.3002610
  94.1857140   9.6899370  33.6087120  98.8049350  10.0388030  15.5207200
  99.5977960  10.3276860  15.0688990  98.2853700   9.6080200  14.8419680
 103.5369950   6.1583660  32.8342620 102.9308110   6.1815260  32.0938370
 103.2324060   5.4266700  33.3709870 104.9670320   9.8863950  31.4452030
 105.9192070   9.8021970  31.3952270 104.8198540  10.5505660  32.1185820
 107.8579520   9.2658160  16.9443940 107.5721030   8.8523300  16.1298120
 107.6599070  10.1945870  16.8244460  92.4203130   2.5377250  31.8303260
  92.9242150   1.9584530  32.4019490  91.6810550   2.8217480  32.3679630
  99.3226750   5.2591440  15.3849550  99.2177390   4.6443790  16.1110930
  99.1550970   4.7357330  14.6012560  99.4741070   3.9448240  31.3638780
  98.7086740   4.5133240  31.2793450  99.6557030   3.6524450  30.4707010
 102.5629480   4.3211470  15.9891540 102.0139580   4.7680770  16.6334280
 103.1848740   3.8160720  16.5129210 106.6164420   5.6753570  31.9213800
 107.3573890   6.0129330  31.4181260 105.8537100   5.8445630  31.3683570
  98.2304600   3.2802390  17.8856840  98.6521020   3.1142260  18.7288230
  98.3555440   2.4702620  17.3911980 100.7432240   2.3040000  15.1333940
 101.2637900   1.5889020  14.7675090 101.3900640   2.9425870  15.4334450
 105.2910080   3.7268400  30.4569010 105.7051100   3.8813480  31.3059430
 104.3561080   3.8523620  30.6194790 100.0525310   3.6788880  28.4264940
 100.4713420   4.5221610  28.2541180  99.1333940   3.8160920  28.1971720
 104.7277110   1.9642250  28.3865290 104.2012330   2.4884870  27.7830430
 105.0708450   2.5969640  29.0175020  97.9032730   9.9841890  29.5422670
  97.3653820  10.7087950  29.2231370  98.1566690   9.5072230  28.7520010
 100.7594940  11.2193100  29.8009320 100.6853640  12.1228240  30.1081690
  99.8573780  10.9005000  29.7731390 101.3080270  10.3851610  17.4235680
 102.2031060  10.7236580  17.4454440 101.3397900   9.6631020  16.7959960
  94.9476430   5.7578660  15.6522680  95.3851300   6.3008330  16.3080260
  95.4324160   4.9325610  15.6619020  92.1622230   8.5467690  23.1042940
  92.4925240   7.6788750  22.8721580  92.5913230   8.7526210  23.9347900
  96.7584150   6.8776700  20.7644910  96.4579690   6.7541670  21.6648820
  96.6521640   6.0185290  20.3560640  92.6512440   9.4138280  25.8424570
  92.2143430   9.5939080  26.6748720  93.2190120  10.1712900  25.7006290
 108.2874620   8.9155280  30.1301880 107.6876610   8.9747840  29.3865800
 108.4168520   7.9760260  30.2598730 109.5276070   6.6573100  15.4671590
 108.6969030   6.7249750  15.9378820 109.7047900   7.5477220  15.1638450
 108.9832530   3.4020580  17.9705790 109.7451440   3.9717230  18.0765480
 108.9986900   2.8347780  18.7414100  92.4836870   1.9258510  22.2013450
  91.8285710   1.6570150  21.5573150  93.3214820   1.8162990  21.7515430
 109.9892500   4.2570680  22.8147720 110.3601330   3.4738000  22.4083690
 110.6294430   4.9459780  22.6365020 106.9726260   5.6407260  28.2278040
 106.1586100   6.0704420  28.4903830 107.3800460   6.2525670  27.6147090
 109.0351700   3.6954950  15.1278310 109.3100540   4.6033830  14.9997530
 108.8462440   3.6317480  16.0640300  93.5212800   2.3111080  26.7416790
  93.8885840   2.2238480  27.6212810  92.9523620   1.5477630  26.6423650
 107.0302310  10.3925860  21.7546310 107.6261380  10.0710430  21.0780730
 107.2880460   9.9197680  22.5459580  94.9364880   6.8243770  31.9036940
  94.8934510   6.4536680  32.7851400  95.0675890   7.7621340  32.0438760
  98.6370910   8.3803360  27.5046660  98.3962270   8.6477920  26.6177180
  99.5773550   8.5509090  27.5597520 109.8975070  10.3997740  28.3057300
 109.4033350  10.7966610  27.5884430 109.2888360   9.7746950  28.6994580
  94.7752910   9.7706020  29.0234720  94.1813230   9.6390720  29.7624760
  94.7676750   8.9344160  28.5576820 107.5814520  11.0421160  25.5844040
 107.1217490  11.7936970  25.2102060 106.9526980  10.3227630  25.5258840
  94.4065140   7.1364400  27.9742760  93.6799200   6.5169690  27.9068710
  94.4674290   7.5305010  27.1040840  98.0110240   9.3509400  24.7592170
  98.5275260   8.7396760  24.2340430  98.6607620   9.8538180  25.2503180
 100.7505740  10.2417890  25.5861150 101.0383550   9.9872190  24.7094160
 101.2628960   9.6895250  26.1766720  92.6895140  10.4538790  21.1839520
  92.5217180   9.8209470  21.8821410  91.8229650  10.6598190  20.8333710
  94.2957840   9.1472020  18.6289660  93.7705460   9.5280050  17.9251620
  94.2202420   9.7722790  19.3499370 100.8178100  11.1633990  32.9529350
 101.7445410  10.9278260  32.9965310 100.8028530  11.9905990  32.4715380
 109.0523160  10.7059560  19.9503600 109.2275350  10.0197300  19.3064520
 108.3544730  11.2306610  19.5580270  96.8950810  11.0954400  17.5038910
  97.6269630  10.8113680  16.9562800  97.1544480  10.8567680  18.3938290
  96.0565600   7.2119130  17.5085240  95.4274480   7.6804230  18.0571070
  96.1713430   6.3668350  17.9431430 107.3855660  10.3903850  32.7770390
 108.1780980   9.8953080  32.5696350 107.6788810  11.0693990  33.3846000
 101.6433360   3.0403810   5.5395710 100.8675460   2.5604250   5.8294280
 102.2946290   2.3609460   5.3651870  95.6599190   3.3523620   6.4171470
  94.8284070   3.0972330   6.8167980  96.2680170   3.4234390   7.1529390
 105.6640790   7.4464000   4.3194840 105.2022320   6.6751240   4.6482010
 106.4766340   7.4730070   4.8247290  95.6400450   7.3863710   6.6129490
  95.9428490   6.4961450   6.4339710  96.3844040   7.9433930   6.3851740
 101.8904100   9.7322010   3.9398830 101.2715540  10.1879510   3.3693270
 102.7455880   9.8873470   3.5388530 101.0842350   5.7161000   5.5465870
 101.0150630   4.7750940   5.3855000 101.8462210   5.8062410   6.1188440
  97.6199210   4.1437120   8.0114340  97.2868590   4.7706040   8.6535410
  97.7965890   4.6699000   7.2316010  96.8318310   6.1117920   9.8263520
  97.4492310   6.7869000   9.5447970  95.9711430   6.5205900   9.7351020
 107.7495900   7.5757330   7.7418160 107.0659420   8.2456440   7.7334830
 108.2890190   7.7737980   6.9763020 105.2854640   9.4201460   6.4563340
 105.2981800   9.0163750   5.5885600 104.7329860  10.1948750   6.3524770
 104.6840080   4.3231300   7.7845950 105.1008870   4.1091410   6.9499410
 105.4079900   4.5804090   8.3554570 108.6302180   2.7218520   7.8762190
 107.8020810   2.7911610   7.4012320 109.2252660   3.3072830   7.4078020
  97.7276980   2.2947740   3.6835730  97.3233980   1.5824990   3.1881630
  97.8140100   1.9500980   4.5723770  98.1958680   5.9815300   5.8474940
  97.8986970   5.3760770   5.1682720  99.1458500   6.0192610   5.7364300
 106.2844290   9.5547170   9.5098040 105.8074850  10.3619360   9.3170650
 105.6006080   8.9025500   9.6624250  97.2877110   5.7196990  12.4982740
  96.3905640   5.9436960  12.7456140  97.3129980   5.8431930  11.5494140
  96.1148330   2.5910310  11.0740110  95.9756100   3.4633110  11.4427510
  95.2329690   2.2483120  10.9288050 102.4377710   7.5086180   2.3805240
 102.8773620   8.2510510   1.9660630 102.3764600   7.7512750   3.3044200
  97.9128680   8.5332010  13.2825260  97.8844110   8.9374960  12.4153690
  97.7493650   7.6042370  13.1196860 109.8643500   9.3159110  14.5789430
 110.3403220   9.7942000  15.2578510 110.4850660   9.2476600  13.8534930
  92.0666980   4.3607860   6.9911020  92.1447400   4.4956630   6.0466740
  92.6808660   3.6523750   7.1839140  93.3114610   6.0608050   3.4017200
  92.9042690   6.2022640   2.5470800  94.2027620   5.7768210   3.1988410
 109.2676750   6.5071960  11.7389440 109.3939810   6.2683840  10.8206620
 109.3098130   5.6756500  12.2111520 103.1293490  10.2099960  10.3084250
 103.6438160  10.1207970  11.1106680 102.2862570  10.5559660  10.6012160
 104.3723950   9.6305570   2.3714740 104.8280900   8.8494950   2.6853360
 104.7116470  10.3412390   2.9155920  92.1226500   5.4022030   9.5305480
  92.2857540   4.9327390   8.7124850  92.5878950   4.8945590  10.1954320
  93.6965480   4.7773460  11.6901290  93.3120270   4.1367130  12.2884250
  94.0077670   5.4809580  12.2596020 106.9231760   3.8684990   5.8787360
 107.6430880   4.3640280   5.4883470 106.7213580   3.1902880   5.2341230
 102.3050560   3.9394050  11.7656360 102.2387870   3.0189720  11.5113950
 101.6755700   4.0369490  12.4801000  96.2081180   4.5400010   3.7239780
  96.7259850   3.7368270   3.6696670  95.7565200   4.4779150   4.5656610
 102.2367290   6.7614620  11.5160160 102.2511830   5.8295580  11.2979070
 101.5292390   6.8474380  12.1549930 108.4478500   3.4021960  10.8628740
 107.7226690   3.9950740  10.6658130 108.9753960   3.3945500  10.0642110
 103.9778090   5.1282130   4.3612590 104.3301910   4.5310260   3.7013960
 103.0940420   4.8026360   4.5320840 100.0641370   5.8879820   1.7683000
 100.7512500   6.4349030   2.1490590  99.2773790   6.4320550   1.8032610
 101.6701190   8.4032190   8.6100660 102.3143410   8.6091570   9.2874080
 102.0330630   7.6420590   8.1571510 102.9433270   6.4064540   7.3278110
 103.5855500   5.7057700   7.4410280 103.4682620   7.1862980   7.1475000
 104.7170890   7.2059440  10.5314170 105.0527130   7.7926130  11.2092090
 103.7971230   7.0752150  10.7611960  92.5546880   8.9834880  12.3004110
  92.6638000   8.0429620  12.1599500  91.9027440   9.2489630  11.6517840
 100.5459470   7.2550770  13.7002230 100.2256340   6.5360010  14.2447920
  99.8717830   7.9305840  13.7738290 108.2229510   8.7726510   5.2521010
 108.3476930   9.5957680   5.7244820 109.0895070   8.5617240   4.9045160
  95.6947040  10.8657720   4.9238140  96.4309520  10.3173180   5.1946710
  96.0787960  11.7313730   4.7844130  94.7005320  10.0503790  14.1123720
  95.5018050  10.3715840  14.5259120  94.1857140   9.6899370  14.8343630
 103.5369950   6.1583660  14.0599130 102.9308110   6.1815260  13.3194880
 103.2324060   5.4266700  14.5966380 104.9670320   9.8863950  12.6708540
 105.9192070   9.8021970  12.6208780 104.8198540  10.5505660  13.3442330
  92.4203130   2.5377250  13.0559770  92.9242150   1.9584530  13.6276000
  91.6810550   2.8217480  13.5936140  99.4741070   3.9448240  12.5895290
  98.7086740   4.5133240  12.5049960  99.6557030   3.6524450  11.6963520
 106.6164420   5.6753570  13.1470310 107.3573890   6.0129330  12.6437770
 105.8537100   5.8445630  12.5940080 105.2910080   3.7268400  11.6825520
 105.7051100   3.8813480  12.5315940 104.3561080   3.8523620  11.8451300
 100.0525310   3.6788880   9.6521450 100.4713420   4.5221610   9.4797690
  99.1333940   3.8160920   9.4228230 104.7277110   1.9642250   9.6121800
 104.2012330   2.4884870   9.0086940 105.0708450   2.5969640  10.2431530
  97.9032730   9.9841890  10.7679180  97.3653820  10.7087950  10.4487880
  98.1566690   9.5072230   9.9776520 100.7594940  11.2193100  11.0265830
 100.6853640  12.1228240  11.3338200  99.8573780  10.9005000  10.9987900
  92.1622230   8.5467690   4.3299450  92.4925240   7.6788750   4.0978090
  92.5913230   8.7526210   5.1604410  92.6512440   9.4138280   7.0681080
  92.2143430   9.5939080   7.9005230  93.2190120  10.1712900   6.9262800
 108.2874620   8.9155280  11.3558390 107.6876610   8.9747840  10.6122310
 108.4168520   7.9760260  11.4855240  92.4836870   1.9258510   3.4269960
  91.8285710   1.6570150   2.7829660  93.3214820   1.8162990   2.9771940
 109.9892500   4.2570680   4.0404230 110.3601330   3.4738000   3.6340200
 110.6294430   4.9459780   3.8621530 106.9726260   5.6407260   9.4534550
 106.1586100   6.0704420   9.7160340 107.3800460   6.2525670   8.8403600
  93.5212800   2.3111080   7.9673300  93.8885840   2.2238480   8.8469320
  92.9523620   1.5477630   7.8680160 107.0302310  10.3925860   2.9802820
 107.6261380  10.0710430   2.3037240 107.2880460   9.9197680   3.7716090
  94.9364880   6.8243770  13.1293450  94.8934510   6.4536680  14.0107910
  95.0675890   7.7621340  13.2695270  98.6370910   8.3803360   8.7303170
  98.3962270   8.6477920   7.8433690  99.5773550   8.5509090   8.7854030
 109.8975070  10.3997740   9.5313810 109.4033350  10.7966610   8.8140940
 109.2888360   9.7746950   9.9251090  94.7752910   9.7706020  10.2491230
  94.1813230   9.6390720  10.9881270  94.7676750   8.9344160   9.7833330
 107.5814520  11.0421160   6.8100550 107.1217490  11.7936970   6.4358570
 106.9526980  10.3227630   6.7515350  94.4065140   7.1364400   9.1999270
  93.6799200   6.5169690   9.1325220  94.4674290   7.5305010   8.3297350
  98.0110240   9.3509400   5.9848680  98.5275260   8.7396760   5.4596940
  98.6607620   9.8538180   6.4759690 100.7505740  10.2417890   6.8117660
 101.0383550   9.9872190   5.9350670 101.2628960   9.6895250   7.4023230
  92.6895140  10.4538790   2.4096030  92.5217180   9.8209470   3.1077920
  91.8229650  10.6598190   2.0590220 100.8178100  11.1633990  14.1785860
 101.7445410  10.9278260  14.2221820 100.8028530  11.9905990  13.6971890
 107.3855660  10.3903850  14.0026900 108.1780980   9.8953080  13.7952860
 107.6788810  11.0693990  14.6102510  84.7371830 113.9085730  97.5303890
  84.6565880 112.9940340  97.2595600  84.3236250 114.4052800  96.8243600
  75.2947650 110.9586450  94.0731310  74.4064350 111.3002420  93.9711190
  75.5788840 110.7586770  93.1812140  73.2580660 113.5592100  99.9571010
  73.8296770 112.7914300  99.9574650  73.2582200 113.8580860  99.0477620
  74.5005530 108.9676460 101.7439940  74.3208370 108.0702210 102.0242700
  74.0985610 109.5148330 102.4186890  83.3404030 111.1692320  99.6452250
  83.7168850 110.2964200  99.5325920  83.2423540 111.5051020  98.7542690
  77.4709040 109.5417950  95.1069690  77.5775790 110.4421680  95.4138450
  76.5601400 109.4935920  94.8164340  87.1228150 108.6642760  96.5780590
  87.9437770 108.1739330  96.6206070  87.1562230 109.2540420  97.3312430
  75.1192200 111.4636960 100.3522280  75.8002310 111.7275330 100.9709680
  74.8040250 110.6237830 100.6860290  79.3116770 112.5104320  99.4394870
  79.8194990 113.0085290 100.0799890  79.8430010 111.7339520  99.2634230
  87.3589630 110.6043140  99.3508130  86.6545200 110.8928030  99.9311240
  87.7201790 111.4143250  98.9907690  77.2768200 108.8612840 101.7128740
  77.6185010 109.7054890 101.4182610  76.3384010 109.0096580 101.8294080
  90.4276550 110.0497930  99.7417340  89.4801460 110.0836910  99.8732770
  90.7526540 110.8636880 100.1266700  80.9596090 106.3495110  98.0373330
  81.2671070 105.7942000  97.3208830  80.0296790 106.4839570  97.8546320
  83.3345930 110.6860940  91.7700610  82.3949600 110.8474900  91.8553070
  83.6529190 111.4046620  91.2236600  78.9533490 114.9408680  97.5553180
  78.5490490 114.2285930  97.0599080  79.0396610 114.5961920  98.4441220
  77.6662110 111.7151890 101.3352220  78.2176700 111.8247230 100.5605470
  78.1805620 112.0889490 102.0507450  89.1355980 106.4693860  90.5982490
  88.8228640 106.5620690  91.4981560  89.8968450 107.0474890  90.5479920
  75.6538120 113.8353660  95.0559830  75.5335720 114.5615750  94.4441100
  75.3439010 113.0656570  94.5787740  78.1201780 107.1788730  98.4383500
  77.6769930 107.9598270  98.1068020  78.6786770 107.5018620  99.1454440
  81.2360600 106.7999430  93.3189330  80.6114780 106.7959300  94.0442640
  81.1490720 105.9330390  92.9225300  80.1577680 107.7236060 100.2973100
  80.4550010 108.6298890 100.2165120  80.7063240 107.2354840  99.6832670
  77.9116000 112.3022300  96.1664750  77.6856920 112.0859470  97.0711370
  77.1308530 112.7350760  95.8210720  85.1413760 112.3085670  94.7655400
  84.5422650 113.0321470  94.5819020  85.6893370 112.2462450  93.9831850
  83.7478630 110.9449210  96.7958680  84.1408200 111.2621410  95.9827370
  84.1095480 110.0661090  96.9103200  72.7842800 107.5350010  99.0188880
  72.4955850 108.1052870  99.7313860  73.5288560 107.0554460  99.3820110
  72.9713030 111.4770130  90.2291600  72.8887700 112.4200890  90.3706590
  72.6196090 111.3345040  89.3503950  84.3333770 113.5354960 100.8909460
  83.6014890 114.0441770 101.2399560  83.9358110 112.7184940 100.5898240
  80.7711160 110.2109160  99.2961950  80.7747220 109.7699110  98.4466490
  81.6662280 110.5326490  99.4033770  76.6213540 110.0935650  98.2556160
  76.2813590 110.5710880  99.0123210  75.8590860 109.6400770  97.8957260
  80.8331310 111.2121240  92.2868710  80.9544130 111.1707720  93.2354530
  80.4479820 112.0745390  92.1315440  84.7959680 108.9888640 100.3032400
  84.8132420 109.4397290 101.1474250  84.5475260 108.0894280 100.5165840
  79.8452810 113.5222380  91.6852010  79.2769710 113.0740630  91.0587920
  80.5541810 113.8815160  91.1517160  81.0719130 114.2710940 101.0427360
  81.4389260 113.7969510 101.7888700  80.8824190 115.1452510 101.3835700
  73.9359620 109.0154630  97.1720830  73.6506540 108.6510300  98.0099450
  73.8738480 108.2835090  96.5583970  83.6098210 107.9083890  93.8934200
  82.7962820 107.4097060  93.8179510  83.4160160 108.7482140  93.4770550
  86.3246600 112.2803540  92.1896360  87.2126220 112.5920770  92.0147700
  86.2951690 111.4075790  91.7976940  88.5960870 113.5915380  91.6576220
  88.5124590 114.0229600  90.8072660  89.3155060 114.0513730  92.0903040
  73.4290280 114.1513580  91.1317530  74.2985130 114.4338380  91.4153450
  72.9380600 114.9649450  91.0166340  76.4936870 105.8824440  95.7248330
  76.3651500 105.8742340  96.6733250  75.6698890 106.2207530  95.3739340
  88.3531610 109.0894810  93.7444040  87.7244770 109.1940480  93.0302270
  87.8583530 109.3091590  94.5337920  80.3215640 111.3680760  95.1601920
  79.6131790 111.8367100  95.6015530  80.6060120 110.7102770  95.7947110
  84.3531070 108.0931420  96.5997710  84.2298850 108.1117550  95.6507220
  85.3015630 108.1410360  96.7196110  78.5250660 109.6765840  92.5352630
  79.3741190 110.1135990  92.4692820  78.1581930 109.9886100  93.3624690
  87.4460440 114.2478600  97.4484200  86.5050580 114.2628830  97.6231890
  87.7604510 113.4614560  97.8944500  76.1188840 113.3623270  91.6921050
  76.1992430 112.4150780  91.8038450  77.0108590 113.6930150  91.7981710
  78.3520010 111.9996560  89.9288960  78.1509070 111.1363920  90.2902300
  78.1812060 111.9129920  88.9910560  85.8308320 106.8104790  92.4575840
  86.1110610 105.9672690  92.8135260  85.0574050 107.0427900  92.9714590
  77.1502810 109.0997180  89.9166840  77.4528710 109.1064610  89.0085990
  77.8897400 108.7495040  90.4134500  80.3687740 108.0431800  90.9023040
  80.0209740 107.3655790  90.3225490  80.5700510 107.5821310  91.7166430
  73.7093380 114.5719450  97.2987410  73.0542220 114.3031090  96.6547110
  74.5471330 114.4623930  96.8489390  86.6583820 109.3660740  91.5205900
  87.0768700 109.1791720  90.6802560  86.3519880 108.5139790  91.8308830
  90.1573550 114.2784880  95.2181700  89.7817150 113.5112810  94.7862990
  89.4276670 114.6607580  95.7056630  74.7469310 114.9572020 101.8390750
  75.1142350 114.8699420 102.7186770  74.1780130 114.1938570 101.7397610
  72.9231460 111.7818380  93.2412740  72.0195540 112.0448580  93.0664400
  73.4072080 112.0529550  92.4612700  89.4324510 112.5042370  98.5188940
  89.9561990 112.0105020  97.8879110  90.0183930 112.6392730  99.2636510
  89.6114230 112.5882240 102.0408490  88.6616940 112.5545780 102.1553480
  89.7927240 113.4982350 101.8058260  75.4658670 110.8383920  91.1507120
  76.1750370 110.4167140  90.6654400  74.7498610 110.9059150  90.5190470
  75.1132830 106.8923250  90.1909770  75.8360960 107.4332190  90.5090990
  75.3857350 106.6186670  89.3151310  88.9224480 111.7615720  94.4581350
  89.4183600 111.5286590  95.2430230  88.7240550 110.9227560  94.0418990
  74.8025020 106.1429440 100.0932390  75.4501210 105.5926820  99.6527550
  75.2226860 106.3972590 100.9148200  90.3511640 110.3976670  96.9919030
  90.2410920 110.2432710  97.9301300  91.1119230 109.8697610  96.7494440
  91.2401910 108.2284590  90.2325170  92.1651220 108.0965770  90.0243460
  91.2177700 108.3077410  91.1861620  91.3140400 108.9995250  92.8581880
  90.5191900 108.9340370  93.3874790  91.5183680 109.9345890  92.8467230
  83.1939260 106.6269030 101.2631620  82.4111050 107.1014530 101.5428380
  82.9002190 105.7223860 101.1544800  87.7460330 107.3292130  99.3080710
  88.1868420 107.2737230  98.4602310  87.4767920 108.2450140  99.3790890
  89.6098900 106.9607370  97.3189530  89.5487300 106.0168590  97.1720550
  90.3890930 107.0687460  97.8642990  74.5379670 106.9316510  93.7845340
  75.2959030 107.0445390  93.2109370  74.0756840 107.7685710  93.7388770
  81.0793480 109.0455780  96.7747650  80.2667990 108.6712670  96.4343530
  81.5835120 108.2900860  97.0768840  85.5818460 105.7098230  98.0130720
  86.1847830 106.2818440  98.4879240  84.8411450 106.2737670  97.7904620
  88.7253060 106.1119790  93.2871000  88.9203690 107.0103240  93.5538430
  87.9382930 105.8806870  93.7803950  76.9104820 107.4580560  92.3247310
  77.4397580 106.6710360  92.1955260  77.5433140 108.1371750  92.5582840
  79.1042660 107.1955700  95.3792700  78.4745400 106.4943010  95.5462830
  78.5647800 107.9559830  95.1625860  84.7371830 113.9085730  78.7560400
  84.6565880 112.9940340  78.4852110  84.3236250 114.4052800  78.0500110
  75.2947650 110.9586450  75.2987820  74.4064350 111.3002420  75.1967700
  75.5788840 110.7586770  74.4068650  73.2580660 113.5592100  81.1827520
  73.8296770 112.7914300  81.1831160  73.2582200 113.8580860  80.2734130
  74.5005530 108.9676460  82.9696450  74.3208370 108.0702210  83.2499210
  74.0985610 109.5148330  83.6443400  83.3404030 111.1692320  80.8708760
  83.7168850 110.2964200  80.7582430  83.2423540 111.5051020  79.9799200
  77.4709040 109.5417950  76.3326200  77.5775790 110.4421680  76.6394960
  76.5601400 109.4935920  76.0420850  87.1228150 108.6642760  77.8037100
  87.9437770 108.1739330  77.8462580  87.1562230 109.2540420  78.5568940
  75.1192200 111.4636960  81.5778790  75.8002310 111.7275330  82.1966190
  74.8040250 110.6237830  81.9116800  79.3116770 112.5104320  80.6651380
  79.8194990 113.0085290  81.3056400  79.8430010 111.7339520  80.4890740
  91.4127700 110.6809510  84.3680730  90.7079870 111.0691220  83.8495840
  91.6785620 111.3759800  84.9701660  77.5952870 107.1502880  84.9314800
  77.5971310 107.6675270  84.1260700  76.7657180 106.6733060  84.9084730
  87.3589630 110.6043140  80.5764640  86.6545200 110.8928030  81.1567750
  87.7201790 111.4143250  80.2164200  77.2768200 108.8612840  82.9385250
  77.6185010 109.7054890  82.6439120  76.3384010 109.0096580  83.0550590
  90.4276550 110.0497930  80.9673850  89.4801460 110.0836910  81.0989280
  90.7526540 110.8636880  81.3523210  80.9596090 106.3495110  79.2629840
  81.2671070 105.7942000  78.5465340  80.0296790 106.4839570  79.0802830
  83.3345930 110.6860940  72.9957120  82.3949600 110.8474900  73.0809580
  83.6529190 111.4046620  72.4493110  86.8200700 112.1548780  83.9191020
  86.4071880 112.9802490  84.1731010  86.0876650 111.5693820  83.7267380
  78.9533490 114.9408680  78.7809690  78.5490490 114.2285930  78.2855590
  79.0396610 114.5961920  79.6697730  77.6662110 111.7151890  82.5608730
  78.2176700 111.8247230  81.7861980  78.1805620 112.0889490  83.2763960
  89.1355980 106.4693860  71.8239000  88.8228640 106.5620690  72.7238070
  89.8968450 107.0474890  71.7736430  75.6538120 113.8353660  76.2816340
  75.5335720 114.5615750  75.6697610  75.3439010 113.0656570  75.8044250
  90.3457270 111.2065360  87.8013140  89.7301540 111.7145030  87.2728600
  90.0253690 110.3063690  87.7439080  78.1201780 107.1788730  79.6640010
  77.6769930 107.9598270  79.3324530  78.6786770 107.5018620  80.3710950
  82.4071590 110.0457250  85.2675330  81.9450960 110.2540270  86.0795270
  82.0049700 109.2316600  84.9646000  87.4076100 111.2666200  86.3971990
  86.5569690 110.9671950  86.7181060  87.2477890 111.5108210  85.4855810
  84.5025810 112.7667950  88.4970780  84.8279220 111.9331700  88.1573010
  85.2906140 113.2896470  88.6449110  81.2360600 106.7999430  74.5445840
  80.6114780 106.7959300  75.2699150  81.1490720 105.9330390  74.1481810
  80.1577680 107.7236060  81.5229610  80.4550010 108.6298890  81.4421630
  80.7063240 107.2354840  80.9089180  77.9116000 112.3022300  77.3921260
  77.6856920 112.0859470  78.2967880  77.1308530 112.7350760  77.0467230
  85.1413760 112.3085670  75.9911910  84.5422650 113.0321470  75.8075530
  85.6893370 112.2462450  75.2088360  80.3515210 113.2007880  88.0581530
  80.2558810 112.2602610  87.9081930  81.1947190 113.4222950  87.6629600
  83.7478630 110.9449210  78.0215190  84.1408200 111.2621410  77.2083880
  84.1095480 110.0661090  78.1359710  75.4825750 109.6121550  86.2115310
  75.0889140 110.4596760  86.4188090  74.7944150 108.9747920  86.4023950
  82.0570800 109.6956520  89.2812050  81.3669120 109.5028720  89.9158140
  82.8003100 109.9791160  89.8136350  72.7842800 107.5350010  80.2445390
  72.4955850 108.1052870  80.9570370  73.5288560 107.0554460  80.6076620
  72.9713030 111.4770130  71.4548110  72.8887700 112.4200890  71.5963100
  72.6196090 111.3345040  70.5760460  84.3333770 113.5354960  82.1165970
  83.6014890 114.0441770  82.4656070  83.9358110 112.7184940  81.8154750
  80.7711160 110.2109160  80.5218460  80.7747220 109.7699110  79.6723000
  81.6662280 110.5326490  80.6290280  76.6213540 110.0935650  79.4812670
  76.2813590 110.5710880  80.2379720  75.8590860 109.6400770  79.1213770
  80.8331310 111.2121240  73.5125220  80.9544130 111.1707720  74.4611040
  80.4479820 112.0745390  73.3571950  84.7959680 108.9888640  81.5288910
  84.8132420 109.4397290  82.3730760  84.5475260 108.0894280  81.7422350
  79.8452810 113.5222380  72.9108520  79.2769710 113.0740630  72.2844430
  80.5541810 113.8815160  72.3773670  88.2230430 106.4020820  87.3675290
  88.5476200 105.6710480  87.8933270  88.2586940 106.0834460  86.4656280
  81.0719130 114.2710940  82.2683870  81.4389260 113.7969510  83.0145210
  80.8824190 115.1452510  82.6092210  73.9359620 109.0154630  78.3977340
  73.6506540 108.6510300  79.2355960  73.8738480 108.2835090  77.7840480
  78.8618500 113.3119580  84.5868080  78.5575570 114.1911560  84.8118440
  79.8164960 113.3719370  84.6225520  83.6098210 107.9083890  75.1190710
  82.7962820 107.4097060  75.0436020  83.4160160 108.7482140  74.7027060
  86.3246600 112.2803540  73.4152870  87.2126220 112.5920770  73.2404210
  86.2951690 111.4075790  73.0233450  74.9182230 114.1522320  85.7339440
  74.5597170 114.8176170  86.3212780  74.6236790 113.3205870  86.1052060
  78.1195350 114.6106560  88.6178990  77.8195490 114.7563740  87.7206810
  78.8906590 114.0511850  88.5252380  88.5960870 113.5915380  72.8832730
  88.5124590 114.0229600  72.0329170  89.3155060 114.0513730  73.3159550
  73.4290280 114.1513580  72.3574040  74.2985130 114.4338380  72.6409960
  72.9380600 114.9649450  72.2422850  76.4936870 105.8824440  76.9504840
  76.3651500 105.8742340  77.8989760  75.6698890 106.2207530  76.5995850
  73.4930800 107.6415560  86.4111540  72.7789320 107.8412480  87.0164150
  73.9125840 106.8655130  86.7826340  84.9869580 110.1337870  84.1612990
  85.3550400 109.3133080  84.4892560  84.1267780 110.1939760  84.5768640
  88.3531610 109.0894810  74.9700550  87.7244770 109.1940480  74.2558780
  87.8583530 109.3091590  75.7594430  80.3215640 111.3680760  76.3858430
  79.6131790 111.8367100  76.8272040  80.6060120 110.7102770  77.0203620
  81.9471570 112.7877460  84.3850960  82.4456820 113.2623280  85.0502810
  82.0894520 111.8640980  84.5920990  84.3531070 108.0931420  77.8254220
  84.2298850 108.1117550  76.8763730  85.3015630 108.1410360  77.9452620
  78.5250660 109.6765840  73.7609140  79.3741190 110.1135990  73.6949330
  78.1581930 109.9886100  74.5881200  89.1538430 109.0045420  85.2279350
  88.6512030 109.7450820  85.5673160  89.9695090 109.3929420  84.9116140
  87.4460440 114.2478600  78.6740710  86.5050580 114.2628830  78.8488400
  87.7604510 113.4614560  79.1201010  76.1188840 113.3623270  72.9177560
  76.1992430 112.4150780  73.0294960  77.0108590 113.6930150  73.0238220
  75.6782720 113.3267780  89.0483800  75.7188060 113.0281650  89.9569030
  76.5328220 113.7275390  88.8891320  77.6188530 111.9059880  87.0158290
  77.0884990 111.4150830  86.3881630  78.2876600 112.3344080  86.4816220
  86.9888760 113.7125500  88.7838630  87.5709530 112.9577820  88.6959110
  87.1650530 114.2432940  88.0070110  78.1060830 108.8722250  87.0955580
  78.0117700 108.2543000  86.3706450  77.5258220 109.5988540  86.8685490
  80.8722270 107.4295490  84.1282970  80.4239570 107.4519750  83.2828520
  80.2387470 107.0314510  84.7253270  83.6145720 114.0566000  86.1333250
  83.7341930 113.4607140  86.8728090  84.4739720 114.0935690  85.7134550
  78.3520010 111.9996560  71.1545470  78.1509070 111.1363920  71.5158810
  78.1812060 111.9129920  70.2167070  80.3814490 110.5987350  87.3909070
  80.9714180 110.2903200  88.0786890  79.5634730 110.1267100  87.5468970
  85.2007920 110.2153160  87.6242090  84.5123440 109.5534700  87.5592080
  85.9213940 109.7691430  88.0690550  85.8308320 106.8104790  73.6832350
  86.1110610 105.9672690  74.0391770  85.0574050 107.0427900  74.1971100
  77.1502810 109.0997180  71.1423350  77.4528710 109.1064610  70.2342500
  77.8897400 108.7495040  71.6391010  80.3687740 108.0431800  72.1279550
  80.0209740 107.3655790  71.5482000  80.5700510 107.5821310  72.9422940
  73.7093380 114.5719450  78.5243920  73.0542220 114.3031090  77.8803620
  74.5471330 114.4623930  78.0745900  86.6583820 109.3660740  72.7462410
  87.0768700 109.1791720  71.9059070  86.3519880 108.5139790  73.0565340
  90.1573550 114.2784880  76.4438210  89.7817150 113.5112810  76.0119500
  89.4276670 114.6607580  76.9313140  74.7469310 114.9572020  83.0647260
  75.1142350 114.8699420  83.9443280  74.1780130 114.1938570  82.9654120
  89.5473170 113.4256400  86.0777730  89.3159260 113.1969150  85.1775680
  89.8077720 114.3455950  86.0322620  74.2985310 111.8681110  86.9705680
  73.4041360 111.8347870  87.3099390  74.8382860 112.0667900  87.7356930
  87.9861240 108.6512830  88.8557430  88.8631420 108.6596230  89.2391430
  87.9982080 107.9143670  88.2449780  72.9231460 111.7818380  74.4669250
  72.0195540 112.0448580  74.2920910  73.4072080 112.0529550  73.6869210
  89.4324510 112.5042370  79.7445450  89.9561990 112.0105020  79.1135620
  90.0183930 112.6392730  80.4893020  89.6114230 112.5882240  83.2665000
  88.6616940 112.5545780  83.3809990  89.7927240 113.4982350  83.0314770
  75.4658670 110.8383920  72.3763630  76.1750370 110.4167140  71.8910910
  74.7498610 110.9059150  71.7446980  75.1132830 106.8923250  71.4166280
  75.8360960 107.4332190  71.7347500  75.3857350 106.6186670  70.5407820
  88.9224480 111.7615720  75.6837860  89.4183600 111.5286590  76.4686740
  88.7240550 110.9227560  75.2675500  74.8025020 106.1429440  81.3188900
  75.4501210 105.5926820  80.8784060  75.2226860 106.3972590  82.1404710
  90.3511640 110.3976670  78.2175540  90.2410920 110.2432710  79.1557810
  91.1119230 109.8697610  77.9750950  88.6977360 106.3370800  84.6758540
  89.3349580 106.9504940  85.0417730  88.8452250 106.3731460  83.7307770
  91.2401910 108.2284590  71.4581680  92.1651220 108.0965770  71.2499970
  91.2177700 108.3077410  72.4118130  91.3140400 108.9995250  74.0838390
  90.5191900 108.9340370  74.6131300  91.5183680 109.9345890  74.0723740
  74.5557020 106.2985110  84.0614220  74.2071840 106.7548930  84.8272400
  74.2244720 105.4042240  84.1436650  82.0681840 107.4896990  87.5833640
  82.0070730 108.0818820  88.3329050  83.0082220 107.3822950  87.4383900
  84.7056400 107.1467050  87.2225930  85.3196810 107.4646340  86.5607010
  85.2505960 106.6615640  87.8421790  75.2277660 105.8261310  87.3364990
  75.7760650 105.6449360  86.5731100  75.2932970 105.0355420  87.8721300
  85.4464440 105.7099190  83.5495220  84.5724280 106.0434300  83.3468150
  85.3375190 105.2372370  84.3747090  86.3536420 107.9170060  84.9336940
  86.0249780 107.1021820  84.5538670  87.3018720 107.8739870  84.8102630
  83.1939260 106.6269030  82.4888130  82.4111050 107.1014530  82.7684890
  82.9002190 105.7223860  82.3801310  87.7460330 107.3292130  80.5337220
  88.1868420 107.2737230  79.6858820  87.4767920 108.2450140  80.6047400
  89.6098900 106.9607370  78.5446040  89.5487300 106.0168590  78.3977060
  90.3890930 107.0687460  79.0899500  74.5379670 106.9316510  75.0101850
  75.2959030 107.0445390  74.4365880  74.0756840 107.7685710  74.9645280
  81.0793480 109.0455780  78.0004160  80.2667990 108.6712670  77.6600040
  81.5835120 108.2900860  78.3025350  85.5818460 105.7098230  79.2387230
  86.1847830 106.2818440  79.7135750  84.8411450 106.2737670  79.0161130
  88.7253060 106.1119790  74.5127510  88.9203690 107.0103240  74.7794940
  87.9382930 105.8806870  75.0060460  76.9104820 107.4580560  73.5503820
  77.4397580 106.6710360  73.4211770  77.5433140 108.1371750  73.7839350
  79.1042660 107.1955700  76.6049210  78.4745400 106.4943010  76.7719340
  78.5647800 107.9559830  76.3882370  79.2298220 106.4739680  89.0401700
  78.9482490 106.9773280  88.2762520  79.6117920 105.6761430  88.6743830
  85.8313680 105.8893260  89.6182170  85.7179130 106.2087870  90.5133690
  86.6483420 106.2905770  89.3219450  84.7371830 113.9085730  59.9816910
  84.6565880 112.9940340  59.7108620  84.3236250 114.4052800  59.2756620
  75.2947650 110.9586450  56.5244330  74.4064350 111.3002420  56.4224210
  75.5788840 110.7586770  55.6325160  73.2580660 113.5592100  62.4084030
  73.8296770 112.7914300  62.4087670  73.2582200 113.8580860  61.4990640
  74.5005530 108.9676460  64.1952960  74.3208370 108.0702210  64.4755720
  74.0985610 109.5148330  64.8699910  83.3404030 111.1692320  62.0965270
  83.7168850 110.2964200  61.9838940  83.2423540 111.5051020  61.2055710
  77.4709040 109.5417950  57.5582710  77.5775790 110.4421680  57.8651470
  76.5601400 109.4935920  57.2677360  87.1228150 108.6642760  59.0293610
  87.9437770 108.1739330  59.0719090  87.1562230 109.2540420  59.7825450
  75.1192200 111.4636960  62.8035300  75.8002310 111.7275330  63.4222700
  74.8040250 110.6237830  63.1373310  79.3116770 112.5104320  61.8907890
  79.8194990 113.0085290  62.5312910  79.8430010 111.7339520  61.7147250
  91.4127700 110.6809510  65.5937240  90.7079870 111.0691220  65.0752350
  91.6785620 111.3759800  66.1958170  77.5952870 107.1502880  66.1571310
  77.5971310 107.6675270  65.3517210  76.7657180 106.6733060  66.1341240
  87.3589630 110.6043140  61.8021150  86.6545200 110.8928030  62.3824260
  87.7201790 111.4143250  61.4420710  77.2768200 108.8612840  64.1641760
  77.6185010 109.7054890  63.8695630  76.3384010 109.0096580  64.2807100
  90.4276550 110.0497930  62.1930360  89.4801460 110.0836910  62.3245790
  90.7526540 110.8636880  62.5779720  80.9596090 106.3495110  60.4886350
  81.2671070 105.7942000  59.7721850  80.0296790 106.4839570  60.3059340
  83.3345930 110.6860940  54.2213630  82.3949600 110.8474900  54.3066090
  83.6529190 111.4046620  53.6749620  86.8200700 112.1548780  65.1447530
  86.4071880 112.9802490  65.3987520  86.0876650 111.5693820  64.9523890
  78.9533490 114.9408680  60.0066200  78.5490490 114.2285930  59.5112100
  79.0396610 114.5961920  60.8954240  77.6662110 111.7151890  63.7865240
  78.2176700 111.8247230  63.0118490  78.1805620 112.0889490  64.5020470
  89.1355980 106.4693860  53.0495510  88.8228640 106.5620690  53.9494580
  89.8968450 107.0474890  52.9992940  75.6538120 113.8353660  57.5072850
  75.5335720 114.5615750  56.8954120  75.3439010 113.0656570  57.0300760
  90.3457270 111.2065360  69.0269650  89.7301540 111.7145030  68.4985110
  90.0253690 110.3063690  68.9695590  78.1201780 107.1788730  60.8896520
  77.6769930 107.9598270  60.5581040  78.6786770 107.5018620  61.5967460
  82.4071590 110.0457250  66.4931840  81.9450960 110.2540270  67.3051780
  82.0049700 109.2316600  66.1902510  87.4076100 111.2666200  67.6228500
  86.5569690 110.9671950  67.9437570  87.2477890 111.5108210  66.7112320
  84.5025810 112.7667950  69.7227290  84.8279220 111.9331700  69.3829520
  85.2906140 113.2896470  69.8705620  81.2360600 106.7999430  55.7702350
  80.6114780 106.7959300  56.4955660  81.1490720 105.9330390  55.3738320
  80.1577680 107.7236060  62.7486120  80.4550010 108.6298890  62.6678140
  80.7063240 107.2354840  62.1345690  77.9116000 112.3022300  58.6177770
  77.6856920 112.0859470  59.5224390  77.1308530 112.7350760  58.2723740
  85.1413760 112.3085670  57.2168420  84.5422650 113.0321470  57.0332040
  85.6893370 112.2462450  56.4344870  80.3515210 113.2007880  69.2838040
  80.2558810 112.2602610  69.1338440  81.1947190 113.4222950  68.8886110
  83.7478630 110.9449210  59.2471700  84.1408200 111.2621410  58.4340390
  84.1095480 110.0661090  59.3616220  75.4825750 109.6121550  67.4371820
  75.0889140 110.4596760  67.6444600  74.7944150 108.9747920  67.6280460
  82.0570800 109.6956520  70.5068560  81.3669120 109.5028720  71.1414650
  82.8003100 109.9791160  71.0392860  72.7842800 107.5350010  61.4701900
  72.4955850 108.1052870  62.1826880  73.5288560 107.0554460  61.8333130
  72.9713030 111.4770130  52.6804620  72.8887700 112.4200890  52.8219610
  72.6196090 111.3345040  51.8016970  84.3333770 113.5354960  63.3422480
  83.6014890 114.0441770  63.6912580  83.9358110 112.7184940  63.0411260
  80.7711160 110.2109160  61.7474970  80.7747220 109.7699110  60.8979510
  81.6662280 110.5326490  61.8546790  76.6213540 110.0935650  60.7069180
  76.2813590 110.5710880  61.4636230  75.8590860 109.6400770  60.3470280
  80.8331310 111.2121240  54.7381730  80.9544130 111.1707720  55.6867550
  80.4479820 112.0745390  54.5828460  84.7959680 108.9888640  62.7545420
  84.8132420 109.4397290  63.5987270  84.5475260 108.0894280  62.9678860
  79.8452810 113.5222380  54.1365030  79.2769710 113.0740630  53.5100940
  80.5541810 113.8815160  53.6030180  88.2230430 106.4020820  68.5931800
  88.5476200 105.6710480  69.1189780  88.2586940 106.0834460  67.6912790
  81.0719130 114.2710940  63.4940380  81.4389260 113.7969510  64.2401720
  80.8824190 115.1452510  63.8348720  73.9359620 109.0154630  59.6233850
  73.6506540 108.6510300  60.4612470  73.8738480 108.2835090  59.0096990
  78.8618500 113.3119580  65.8124590  78.5575570 114.1911560  66.0374950
  79.8164960 113.3719370  65.8482030  83.6098210 107.9083890  56.3447220
  82.7962820 107.4097060  56.2692530  83.4160160 108.7482140  55.9283570
  86.3246600 112.2803540  54.6409380  87.2126220 112.5920770  54.4660720
  86.2951690 111.4075790  54.2489960  74.9182230 114.1522320  66.9595950
  74.5597170 114.8176170  67.5469290  74.6236790 113.3205870  67.3308570
  78.1195350 114.6106560  69.8435500  77.8195490 114.7563740  68.9463320
  78.8906590 114.0511850  69.7508890  88.5960870 113.5915380  54.1089240
  88.5124590 114.0229600  53.2585680  89.3155060 114.0513730  54.5416060
  73.4290280 114.1513580  53.5830550  74.2985130 114.4338380  53.8666470
  72.9380600 114.9649450  53.4679360  76.4936870 105.8824440  58.1761350
  76.3651500 105.8742340  59.1246270  75.6698890 106.2207530  57.8252360
  73.4930800 107.6415560  67.6368050  72.7789320 107.8412480  68.2420660
  73.9125840 106.8655130  68.0082850  84.9869580 110.1337870  65.3869500
  85.3550400 109.3133080  65.7149070  84.1267780 110.1939760  65.8025150
  88.3531610 109.0894810  56.1957060  87.7244770 109.1940480  55.4815290
  87.8583530 109.3091590  56.9850940  80.3215640 111.3680760  57.6114940
  79.6131790 111.8367100  58.0528550  80.6060120 110.7102770  58.2460130
  81.9471570 112.7877460  65.6107470  82.4456820 113.2623280  66.2759320
  82.0894520 111.8640980  65.8177500  84.3531070 108.0931420  59.0510730
  84.2298850 108.1117550  58.1020240  85.3015630 108.1410360  59.1709130
  78.5250660 109.6765840  54.9865650  79.3741190 110.1135990  54.9205840
  78.1581930 109.9886100  55.8137710  89.1538430 109.0045420  66.4535860
  88.6512030 109.7450820  66.7929670  89.9695090 109.3929420  66.1372650
  87.4460440 114.2478600  59.8997220  86.5050580 114.2628830  60.0744910
  87.7604510 113.4614560  60.3457520  76.1188840 113.3623270  54.1434070
  76.1992430 112.4150780  54.2551470  77.0108590 113.6930150  54.2494730
  75.6782720 113.3267780  70.2740310  75.7188060 113.0281650  71.1825540
  76.5328220 113.7275390  70.1147830  77.6188530 111.9059880  68.2414800
  77.0884990 111.4150830  67.6138140  78.2876600 112.3344080  67.7072730
  86.9888760 113.7125500  70.0095140  87.5709530 112.9577820  69.9215620
  87.1650530 114.2432940  69.2326620  78.1060830 108.8722250  68.3212090
  78.0117700 108.2543000  67.5962960  77.5258220 109.5988540  68.0942000
  80.8722270 107.4295490  65.3539480  80.4239570 107.4519750  64.5085030
  80.2387470 107.0314510  65.9509780  83.6145720 114.0566000  67.3589760
  83.7341930 113.4607140  68.0984600  84.4739720 114.0935690  66.9391060
  78.3520010 111.9996560  52.3801980  78.1509070 111.1363920  52.7415320
  78.1812060 111.9129920  51.4423580  80.3814490 110.5987350  68.6165580
  80.9714180 110.2903200  69.3043400  79.5634730 110.1267100  68.7725480
  85.2007920 110.2153160  68.8498600  84.5123440 109.5534700  68.7848590
  85.9213940 109.7691430  69.2947060  85.8308320 106.8104790  54.9088860
  86.1110610 105.9672690  55.2648280  85.0574050 107.0427900  55.4227610
  77.1502810 109.0997180  52.3679860  77.4528710 109.1064610  51.4599010
  77.8897400 108.7495040  52.8647520  80.3687740 108.0431800  53.3536060
  80.0209740 107.3655790  52.7738510  80.5700510 107.5821310  54.1679450
  73.7093380 114.5719450  59.7500430  73.0542220 114.3031090  59.1060130
  74.5471330 114.4623930  59.3002410  86.6583820 109.3660740  53.9718920
  87.0768700 109.1791720  53.1315580  86.3519880 108.5139790  54.2821850
  90.1573550 114.2784880  57.6694720  89.7817150 113.5112810  57.2376010
  89.4276670 114.6607580  58.1569650  74.7469310 114.9572020  64.2903770
  75.1142350 114.8699420  65.1699790  74.1780130 114.1938570  64.1910630
  89.5473170 113.4256400  67.3034240  89.3159260 113.1969150  66.4032190
  89.8077720 114.3455950  67.2579130  74.2985310 111.8681110  68.1962190
  73.4041360 111.8347870  68.5355900  74.8382860 112.0667900  68.9613440
  87.9861240 108.6512830  70.0813940  88.8631420 108.6596230  70.4647940
  87.9982080 107.9143670  69.4706290  72.9231460 111.7818380  55.6925760
  72.0195540 112.0448580  55.5177420  73.4072080 112.0529550  54.9125720
  89.4324510 112.5042370  60.9701960  89.9561990 112.0105020  60.3392130
  90.0183930 112.6392730  61.7149530  89.6114230 112.5882240  64.4921510
  88.6616940 112.5545780  64.6066500  89.7927240 113.4982350  64.2571280
  75.4658670 110.8383920  53.6020140  76.1750370 110.4167140  53.1167420
  74.7498610 110.9059150  52.9703490  75.1132830 106.8923250  52.6422790
  75.8360960 107.4332190  52.9604010  75.3857350 106.6186670  51.7664330
  88.9224480 111.7615720  56.9094370  89.4183600 111.5286590  57.6943250
  88.7240550 110.9227560  56.4932010  74.8025020 106.1429440  62.5445410
  75.4501210 105.5926820  62.1040570  75.2226860 106.3972590  63.3661220
  90.3511640 110.3976670  59.4432050  90.2410920 110.2432710  60.3814320
  91.1119230 109.8697610  59.2007460  88.6977360 106.3370800  65.9015050
  89.3349580 106.9504940  66.2674240  88.8452250 106.3731460  64.9564280
  91.2401910 108.2284590  52.6838190  92.1651220 108.0965770  52.4756480
  91.2177700 108.3077410  53.6374640  91.3140400 108.9995250  55.3094900
  90.5191900 108.9340370  55.8387810  91.5183680 109.9345890  55.2980250
  74.5557020 106.2985110  65.2870730  74.2071840 106.7548930  66.0528910
  74.2244720 105.4042240  65.3693160  82.0681840 107.4896990  68.8090150
  82.0070730 108.0818820  69.5585560  83.0082220 107.3822950  68.6640410
  84.7056400 107.1467050  68.4482440  85.3196810 107.4646340  67.7863520
  85.2505960 106.6615640  69.0678300  75.2277660 105.8261310  68.5621500
  75.7760650 105.6449360  67.7987610  75.2932970 105.0355420  69.0977810
  85.4464440 105.7099190  64.7751730  84.5724280 106.0434300  64.5724660
  85.3375190 105.2372370  65.6003600  86.3536420 107.9170060  66.1593450
  86.0249780 107.1021820  65.7795180  87.3018720 107.8739870  66.0359140
  83.1939260 106.6269030  63.7144640  82.4111050 107.1014530  63.9941400
  82.9002190 105.7223860  63.6057820  87.7460330 107.3292130  61.7593730
  88.1868420 107.2737230  60.9115330  87.4767920 108.2450140  61.8303910
  89.6098900 106.9607370  59.7702550  89.5487300 106.0168590  59.6233570
  90.3890930 107.0687460  60.3156010  74.5379670 106.9316510  56.2358360
  75.2959030 107.0445390  55.6622390  74.0756840 107.7685710  56.1901790
  81.0793480 109.0455780  59.2260670  80.2667990 108.6712670  58.8856550
  81.5835120 108.2900860  59.5281860  85.5818460 105.7098230  60.4643740
  86.1847830 106.2818440  60.9392260  84.8411450 106.2737670  60.2417640
  88.7253060 106.1119790  55.7384020  88.9203690 107.0103240  56.0051450
  87.9382930 105.8806870  56.2316970  76.9104820 107.4580560  54.7760330
  77.4397580 106.6710360  54.6468280  77.5433140 108.1371750  55.0095860
  79.1042660 107.1955700  57.8305720  78.4745400 106.4943010  57.9975850
  78.5647800 107.9559830  57.6138880  79.2298220 106.4739680  70.2658210
  78.9482490 106.9773280  69.5019030  79.6117920 105.6761430  69.9000340
  85.8313680 105.8893260  70.8438680  85.7179130 106.2087870  71.7390200
  86.6483420 106.2905770  70.5475960  84.7371830 113.9085730  41.2073420
  84.6565880 112.9940340  40.9365130  84.3236250 114.4052800  40.5013130
  75.2947650 110.9586450  37.7500840  74.4064350 111.3002420  37.6480720
  75.5788840 110.7586770  36.8581670  73.2580660 113.5592100  43.6340540
  73.8296770 112.7914300  43.6344180  73.2582200 113.8580860  42.7247150
  74.5005530 108.9676460  45.4209470  74.3208370 108.0702210  45.7012230
  74.0985610 109.5148330  46.0956420  83.3404030 111.1692320  43.3221780
  83.7168850 110.2964200  43.2095450  83.2423540 111.5051020  42.4312220
  77.4709040 109.5417950  38.7839220  77.5775790 110.4421680  39.0907980
  76.5601400 109.4935920  38.4933870  87.1228150 108.6642760  40.2550120
  87.9437770 108.1739330  40.2975600  87.1562230 109.2540420  41.0081960
  75.1192200 111.4636960  44.0291810  75.8002310 111.7275330  44.6479210
  74.8040250 110.6237830  44.3629820  79.3116770 112.5104320  43.1164400
  79.8194990 113.0085290  43.7569420  79.8430010 111.7339520  42.9403760
  91.4127700 110.6809510  46.8193750  90.7079870 111.0691220  46.3008860
  91.6785620 111.3759800  47.4214680  77.5952870 107.1502880  47.3827820
  77.5971310 107.6675270  46.5773720  76.7657180 106.6733060  47.3597750
  87.3589630 110.6043140  43.0277660  86.6545200 110.8928030  43.6080770
  87.7201790 111.4143250  42.6677220  77.2768200 108.8612840  45.3898270
  77.6185010 109.7054890  45.0952140  76.3384010 109.0096580  45.5063610
  90.4276550 110.0497930  43.4186870  89.4801460 110.0836910  43.5502300
  90.7526540 110.8636880  43.8036230  80.9596090 106.3495110  41.7142860
  81.2671070 105.7942000  40.9978360  80.0296790 106.4839570  41.5315850
  83.3345930 110.6860940  35.4470140  82.3949600 110.8474900  35.5322600
  83.6529190 111.4046620  34.9006130  86.8200700 112.1548780  46.3704040
  86.4071880 112.9802490  46.6244030  86.0876650 111.5693820  46.1780400
  78.9533490 114.9408680  41.2322710  78.5490490 114.2285930  40.7368610
  79.0396610 114.5961920  42.1210750  77.6662110 111.7151890  45.0121750
  78.2176700 111.8247230  44.2375000  78.1805620 112.0889490  45.7276980
  89.1355980 106.4693860  34.2752020  88.8228640 106.5620690  35.1751090
  89.8968450 107.0474890  34.2249450  75.6538120 113.8353660  38.7329360
  75.5335720 114.5615750  38.1210630  75.3439010 113.0656570  38.2557270
  90.3457270 111.2065360  50.2526160  89.7301540 111.7145030  49.7241620
  90.0253690 110.3063690  50.1952100  78.1201780 107.1788730  42.1153030
  77.6769930 107.9598270  41.7837550  78.6786770 107.5018620  42.8223970
  82.4071590 110.0457250  47.7188350  81.9450960 110.2540270  48.5308290
  82.0049700 109.2316600  47.4159020  87.4076100 111.2666200  48.8485010
  86.5569690 110.9671950  49.1694080  87.2477890 111.5108210  47.9368830
  84.5025810 112.7667950  50.9483800  84.8279220 111.9331700  50.6086030
  85.2906140 113.2896470  51.0962130  81.2360600 106.7999430  36.9958860
  80.6114780 106.7959300  37.7212170  81.1490720 105.9330390  36.5994830
  80.1577680 107.7236060  43.9742630  80.4550010 108.6298890  43.8934650
  80.7063240 107.2354840  43.3602200  77.9116000 112.3022300  39.8434280
  77.6856920 112.0859470  40.7480900  77.1308530 112.7350760  39.4980250
  85.1413760 112.3085670  38.4424930  84.5422650 113.0321470  38.2588550
  85.6893370 112.2462450  37.6601380  80.3515210 113.2007880  50.5094550
  80.2558810 112.2602610  50.3594950  81.1947190 113.4222950  50.1142620
  83.7478630 110.9449210  40.4728210  84.1408200 111.2621410  39.6596900
  84.1095480 110.0661090  40.5872730  75.4825750 109.6121550  48.6628330
  75.0889140 110.4596760  48.8701110  74.7944150 108.9747920  48.8536970
  82.0570800 109.6956520  51.7325070  81.3669120 109.5028720  52.3671160
  82.8003100 109.9791160  52.2649370  72.7842800 107.5350010  42.6958410
  72.4955850 108.1052870  43.4083390  73.5288560 107.0554460  43.0589640
  72.9713030 111.4770130  33.9061130  72.8887700 112.4200890  34.0476120
  72.6196090 111.3345040  33.0273480  84.3333770 113.5354960  44.5678990
  83.6014890 114.0441770  44.9169090  83.9358110 112.7184940  44.2667770
  80.7711160 110.2109160  42.9731480  80.7747220 109.7699110  42.1236020
  81.6662280 110.5326490  43.0803300  76.6213540 110.0935650  41.9325690
  76.2813590 110.5710880  42.6892740  75.8590860 109.6400770  41.5726790
  80.8331310 111.2121240  35.9638240  80.9544130 111.1707720  36.9124060
  80.4479820 112.0745390  35.8084970  84.7959680 108.9888640  43.9801930
  84.8132420 109.4397290  44.8243780  84.5475260 108.0894280  44.1935370
  79.8452810 113.5222380  35.3621540  79.2769710 113.0740630  34.7357450
  80.5541810 113.8815160  34.8286690  88.2230430 106.4020820  49.8188310
  88.5476200 105.6710480  50.3446290  88.2586940 106.0834460  48.9169300
  81.0719130 114.2710940  44.7196890  81.4389260 113.7969510  45.4658230
  80.8824190 115.1452510  45.0605230  73.9359620 109.0154630  40.8490360
  73.6506540 108.6510300  41.6868980  73.8738480 108.2835090  40.2353500
  78.8618500 113.3119580  47.0381100  78.5575570 114.1911560  47.2631460
  79.8164960 113.3719370  47.0738540  83.6098210 107.9083890  37.5703730
  82.7962820 107.4097060  37.4949040  83.4160160 108.7482140  37.1540080
  86.3246600 112.2803540  35.8665890  87.2126220 112.5920770  35.6917230
  86.2951690 111.4075790  35.4746470  74.9182230 114.1522320  48.1852460
  74.5597170 114.8176170  48.7725800  74.6236790 113.3205870  48.5565080
  78.1195350 114.6106560  51.0692010  77.8195490 114.7563740  50.1719830
  78.8906590 114.0511850  50.9765400  88.5960870 113.5915380  35.3345750
  88.5124590 114.0229600  34.4842190  89.3155060 114.0513730  35.7672570
  73.4290280 114.1513580  34.8087060  74.2985130 114.4338380  35.0922980
  72.9380600 114.9649450  34.6935870  76.4936870 105.8824440  39.4017860
  76.3651500 105.8742340  40.3502780  75.6698890 106.2207530  39.0508870
  73.4930800 107.6415560  48.8624560  72.7789320 107.8412480  49.4677170
  73.9125840 106.8655130  49.2339360  84.9869580 110.1337870  46.6126010
  85.3550400 109.3133080  46.9405580  84.1267780 110.1939760  47.0281660
  88.3531610 109.0894810  37.4213570  87.7244770 109.1940480  36.7071800
  87.8583530 109.3091590  38.2107450  80.3215640 111.3680760  38.8371450
  79.6131790 111.8367100  39.2785060  80.6060120 110.7102770  39.4716640
  81.9471570 112.7877460  46.8363980  82.4456820 113.2623280  47.5015830
  82.0894520 111.8640980  47.0434010  84.3531070 108.0931420  40.2767240
  84.2298850 108.1117550  39.3276750  85.3015630 108.1410360  40.3965640
  78.5250660 109.6765840  36.2122160  79.3741190 110.1135990  36.1462350
  78.1581930 109.9886100  37.0394220  89.1538430 109.0045420  47.6792370
  88.6512030 109.7450820  48.0186180  89.9695090 109.3929420  47.3629160
  87.4460440 114.2478600  41.1253730  86.5050580 114.2628830  41.3001420
  87.7604510 113.4614560  41.5714030  76.1188840 113.3623270  35.3690580
  76.1992430 112.4150780  35.4807980  77.0108590 113.6930150  35.4751240
  75.6782720 113.3267780  51.4996820  75.7188060 113.0281650  52.4082050
  76.5328220 113.7275390  51.3404340  77.6188530 111.9059880  49.4671310
  77.0884990 111.4150830  48.8394650  78.2876600 112.3344080  48.9329240
  86.9888760 113.7125500  51.2351650  87.5709530 112.9577820  51.1472130
  87.1650530 114.2432940  50.4583130  78.1060830 108.8722250  49.5468600
  78.0117700 108.2543000  48.8219470  77.5258220 109.5988540  49.3198510
  80.8722270 107.4295490  46.5795990  80.4239570 107.4519750  45.7341540
  80.2387470 107.0314510  47.1766290  83.6145720 114.0566000  48.5846270
  83.7341930 113.4607140  49.3241110  84.4739720 114.0935690  48.1647570
  78.3520010 111.9996560  33.6058490  78.1509070 111.1363920  33.9671830
  78.1812060 111.9129920  32.6680090  80.3814490 110.5987350  49.8422090
  80.9714180 110.2903200  50.5299910  79.5634730 110.1267100  49.9981990
  85.2007920 110.2153160  50.0755110  84.5123440 109.5534700  50.0105100
  85.9213940 109.7691430  50.5203570  85.8308320 106.8104790  36.1345370
  86.1110610 105.9672690  36.4904790  85.0574050 107.0427900  36.6484120
  77.1502810 109.0997180  33.5936370  77.4528710 109.1064610  32.6855520
  77.8897400 108.7495040  34.0904030  80.3687740 108.0431800  34.5792570
  80.0209740 107.3655790  33.9995020  80.5700510 107.5821310  35.3935960
  73.7093380 114.5719450  40.9756940  73.0542220 114.3031090  40.3316640
  74.5471330 114.4623930  40.5258920  86.6583820 109.3660740  35.1975430
  87.0768700 109.1791720  34.3572090  86.3519880 108.5139790  35.5078360
  90.1573550 114.2784880  38.8951230  89.7817150 113.5112810  38.4632520
  89.4276670 114.6607580  39.3826160  74.7469310 114.9572020  45.5160280
  75.1142350 114.8699420  46.3956300  74.1780130 114.1938570  45.4167140
  89.5473170 113.4256400  48.5290750  89.3159260 113.1969150  47.6288700
  89.8077720 114.3455950  48.4835640  74.2985310 111.8681110  49.4218700
  73.4041360 111.8347870  49.7612410  74.8382860 112.0667900  50.1869950
  87.9861240 108.6512830  51.3070450  88.8631420 108.6596230  51.6904450
  87.9982080 107.9143670  50.6962800  72.9231460 111.7818380  36.9182270
  72.0195540 112.0448580  36.7433930  73.4072080 112.0529550  36.1382230
  89.4324510 112.5042370  42.1958470  89.9561990 112.0105020  41.5648640
  90.0183930 112.6392730  42.9406040  89.6114230 112.5882240  45.7178020
  88.6616940 112.5545780  45.8323010  89.7927240 113.4982350  45.4827790
  75.4658670 110.8383920  34.8276650  76.1750370 110.4167140  34.3423930
  74.7498610 110.9059150  34.1960000  75.1132830 106.8923250  33.8679300
  75.8360960 107.4332190  34.1860520  75.3857350 106.6186670  32.9920840
  88.9224480 111.7615720  38.1350880  89.4183600 111.5286590  38.9199760
  88.7240550 110.9227560  37.7188520  74.8025020 106.1429440  43.7701920
  75.4501210 105.5926820  43.3297080  75.2226860 106.3972590  44.5917730
  90.3511640 110.3976670  40.6688560  90.2410920 110.2432710  41.6070830
  91.1119230 109.8697610  40.4263970  88.6977360 106.3370800  47.1271560
  89.3349580 106.9504940  47.4930750  88.8452250 106.3731460  46.1820790
  91.2401910 108.2284590  33.9094700  92.1651220 108.0965770  33.7012990
  91.2177700 108.3077410  34.8631150  91.3140400 108.9995250  36.5351410
  90.5191900 108.9340370  37.0644320  91.5183680 109.9345890  36.5236760
  74.5557020 106.2985110  46.5127240  74.2071840 106.7548930  47.2785420
  74.2244720 105.4042240  46.5949670  82.0681840 107.4896990  50.0346660
  82.0070730 108.0818820  50.7842070  83.0082220 107.3822950  49.8896920
  84.7056400 107.1467050  49.6738950  85.3196810 107.4646340  49.0120030
  85.2505960 106.6615640  50.2934810  75.2277660 105.8261310  49.7878010
  75.7760650 105.6449360  49.0244120  75.2932970 105.0355420  50.3234320
  85.4464440 105.7099190  46.0008240  84.5724280 106.0434300  45.7981170
  85.3375190 105.2372370  46.8260110  86.3536420 107.9170060  47.3849960
  86.0249780 107.1021820  47.0051690  87.3018720 107.8739870  47.2615650
  83.1939260 106.6269030  44.9401150  82.4111050 107.1014530  45.2197910
  82.9002190 105.7223860  44.8314330  87.7460330 107.3292130  42.9850240
  88.1868420 107.2737230  42.1371840  87.4767920 108.2450140  43.0560420
  89.6098900 106.9607370  40.9959060  89.5487300 106.0168590  40.8490080
  90.3890930 107.0687460  41.5412520  74.5379670 106.9316510  37.4614870
  75.2959030 107.0445390  36.8878900  74.0756840 107.7685710  37.4158300
  81.0793480 109.0455780  40.4517180  80.2667990 108.6712670  40.1113060
  81.5835120 108.2900860  40.7538370  85.5818460 105.7098230  41.6900250
  86.1847830 106.2818440  42.1648770  84.8411450 106.2737670  41.4674150
  88.7253060 106.1119790  36.9640530  88.9203690 107.0103240  37.2307960
  87.9382930 105.8806870  37.4573480  76.9104820 107.4580560  36.0016840
  77.4397580 106.6710360  35.8724790  77.5433140 108.1371750  36.2352370
  79.1042660 107.1955700  39.0562230  78.4745400 106.4943010  39.2232360
  78.5647800 107.9559830  38.8395390  79.2298220 106.4739680  51.4914720
  78.9482490 106.9773280  50.7275540  79.6117920 105.6761430  51.1256850
  85.8313680 105.8893260  52.0695190  85.7179130 106.2087870  52.9646710
  86.6483420 106.2905770  51.7732470  84.7371830 113.9085730  22.4329930
  84.6565880 112.9940340  22.1621640  84.3236250 114.4052800  21.7269640
  75.2947650 110.9586450  18.9757350  74.4064350 111.3002420  18.8737230
  75.5788840 110.7586770  18.0838180  73.2580660 113.5592100  24.8597050
  73.8296770 112.7914300  24.8600690  73.2582200 113.8580860  23.9503660
  74.5005530 108.9676460  26.6465980  74.3208370 108.0702210  26.9268740
  74.0985610 109.5148330  27.3212930  83.3404030 111.1692320  24.5478290
  83.7168850 110.2964200  24.4351960  83.2423540 111.5051020  23.6568730
  77.4709040 109.5417950  20.0095730  77.5775790 110.4421680  20.3164490
  76.5601400 109.4935920  19.7190380  87.1228150 108.6642760  21.4806630
  87.9437770 108.1739330  21.5232110  87.1562230 109.2540420  22.2338470
  75.1192200 111.4636960  25.2548320  75.8002310 111.7275330  25.8735720
  74.8040250 110.6237830  25.5886330  79.3116770 112.5104320  24.3420910
  79.8194990 113.0085290  24.9825930  79.8430010 111.7339520  24.1660270
  91.4127700 110.6809510  28.0450260  90.7079870 111.0691220  27.5265370
  91.6785620 111.3759800  28.6471190  77.5952870 107.1502880  28.6084330
  77.5971310 107.6675270  27.8030230  76.7657180 106.6733060  28.5854260
  87.3589630 110.6043140  24.2534170  86.6545200 110.8928030  24.8337280
  87.7201790 111.4143250  23.8933730  77.2768200 108.8612840  26.6154780
  77.6185010 109.7054890  26.3208650  76.3384010 109.0096580  26.7320120
  90.4276550 110.0497930  24.6443380  89.4801460 110.0836910  24.7758810
  90.7526540 110.8636880  25.0292740  80.9596090 106.3495110  22.9399370
  81.2671070 105.7942000  22.2234870  80.0296790 106.4839570  22.7572360
  83.3345930 110.6860940  16.6726650  82.3949600 110.8474900  16.7579110
  83.6529190 111.4046620  16.1262640  86.8200700 112.1548780  27.5960550
  86.4071880 112.9802490  27.8500540  86.0876650 111.5693820  27.4036910
  78.9533490 114.9408680  22.4579220  78.5490490 114.2285930  21.9625120
  79.0396610 114.5961920  23.3467260  77.6662110 111.7151890  26.2378260
  78.2176700 111.8247230  25.4631510  78.1805620 112.0889490  26.9533490
  89.1355980 106.4693860  15.5008530  88.8228640 106.5620690  16.4007600
  89.8968450 107.0474890  15.4505960  75.6538120 113.8353660  19.9585870
  75.5335720 114.5615750  19.3467140  75.3439010 113.0656570  19.4813780
  90.3457270 111.2065360  31.4782670  89.7301540 111.7145030  30.9498130
  90.0253690 110.3063690  31.4208610  78.1201780 107.1788730  23.3409540
  77.6769930 107.9598270  23.0094060  78.6786770 107.5018620  24.0480480
  82.4071590 110.0457250  28.9444860  81.9450960 110.2540270  29.7564800
  82.0049700 109.2316600  28.6415530  87.4076100 111.2666200  30.0741520
  86.5569690 110.9671950  30.3950590  87.2477890 111.5108210  29.1625340
  84.5025810 112.7667950  32.1740310  84.8279220 111.9331700  31.8342540
  85.2906140 113.2896470  32.3218640  81.2360600 106.7999430  18.2215370
  80.6114780 106.7959300  18.9468680  81.1490720 105.9330390  17.8251340
  80.1577680 107.7236060  25.1999140  80.4550010 108.6298890  25.1191160
  80.7063240 107.2354840  24.5858710  77.9116000 112.3022300  21.0690790
  77.6856920 112.0859470  21.9737410  77.1308530 112.7350760  20.7236760
  85.1413760 112.3085670  19.6681440  84.5422650 113.0321470  19.4845060
  85.6893370 112.2462450  18.8857890  80.3515210 113.2007880  31.7351060
  80.2558810 112.2602610  31.5851460  81.1947190 113.4222950  31.3399130
  83.7478630 110.9449210  21.6984720  84.1408200 111.2621410  20.8853410
  84.1095480 110.0661090  21.8129240  75.4825750 109.6121550  29.8884840
  75.0889140 110.4596760  30.0957620  74.7944150 108.9747920  30.0793480
  82.0570800 109.6956520  32.9581580  81.3669120 109.5028720  33.5927670
  82.8003100 109.9791160  33.4905880  72.7842800 107.5350010  23.9214920
  72.4955850 108.1052870  24.6339900  73.5288560 107.0554460  24.2846150
  72.9713030 111.4770130  15.1317640  72.8887700 112.4200890  15.2732630
  72.6196090 111.3345040  14.2529990  84.3333770 113.5354960  25.7935500
  83.6014890 114.0441770  26.1425600  83.9358110 112.7184940  25.4924280
  80.7711160 110.2109160  24.1987990  80.7747220 109.7699110  23.3492530
  81.6662280 110.5326490  24.3059810  76.6213540 110.0935650  23.1582200
  76.2813590 110.5710880  23.9149250  75.8590860 109.6400770  22.7983300
  80.8331310 111.2121240  17.1894750  80.9544130 111.1707720  18.1380570
  80.4479820 112.0745390  17.0341480  84.7959680 108.9888640  25.2058440
  84.8132420 109.4397290  26.0500290  84.5475260 108.0894280  25.4191880
  79.8452810 113.5222380  16.5878050  79.2769710 113.0740630  15.9613960
  80.5541810 113.8815160  16.0543200  88.2230430 106.4020820  31.0444820
  88.5476200 105.6710480  31.5702800  88.2586940 106.0834460  30.1425810
  81.0719130 114.2710940  25.9453400  81.4389260 113.7969510  26.6914740
  80.8824190 115.1452510  26.2861740  73.9359620 109.0154630  22.0746870
  73.6506540 108.6510300  22.9125490  73.8738480 108.2835090  21.4610010
  78.8618500 113.3119580  28.2637610  78.5575570 114.1911560  28.4887970
  79.8164960 113.3719370  28.2995050  83.6098210 107.9083890  18.7960240
  82.7962820 107.4097060  18.7205550  83.4160160 108.7482140  18.3796590
  86.3246600 112.2803540  17.0922400  87.2126220 112.5920770  16.9173740
  86.2951690 111.4075790  16.7002980  74.9182230 114.1522320  29.4108970
  74.5597170 114.8176170  29.9982310  74.6236790 113.3205870  29.7821590
  78.1195350 114.6106560  32.2948520  77.8195490 114.7563740  31.3976340
  78.8906590 114.0511850  32.2021910  88.5960870 113.5915380  16.5602260
  88.5124590 114.0229600  15.7098700  89.3155060 114.0513730  16.9929080
  73.4290280 114.1513580  16.0343570  74.2985130 114.4338380  16.3179490
  72.9380600 114.9649450  15.9192380  76.4936870 105.8824440  20.6274370
  76.3651500 105.8742340  21.5759290  75.6698890 106.2207530  20.2765380
  73.4930800 107.6415560  30.0881070  72.7789320 107.8412480  30.6933680
  73.9125840 106.8655130  30.4595870  84.9869580 110.1337870  27.8382520
  85.3550400 109.3133080  28.1662090  84.1267780 110.1939760  28.2538170
  88.3531610 109.0894810  18.6470080  87.7244770 109.1940480  17.9328310
  87.8583530 109.3091590  19.4363960  80.3215640 111.3680760  20.0627960
  79.6131790 111.8367100  20.5041570  80.6060120 110.7102770  20.6973150
  81.9471570 112.7877460  28.0620490  82.4456820 113.2623280  28.7272340
  82.0894520 111.8640980  28.2690520  84.3531070 108.0931420  21.5023750
  84.2298850 108.1117550  20.5533260  85.3015630 108.1410360  21.6222150
  78.5250660 109.6765840  17.4378670  79.3741190 110.1135990  17.3718860
  78.1581930 109.9886100  18.2650730  89.1538430 109.0045420  28.9048880
  88.6512030 109.7450820  29.2442690  89.9695090 109.3929420  28.5885670
  87.4460440 114.2478600  22.3510240  86.5050580 114.2628830  22.5257930
  87.7604510 113.4614560  22.7970540  76.1188840 113.3623270  16.5947090
  76.1992430 112.4150780  16.7064490  77.0108590 113.6930150  16.7007750
  75.6782720 113.3267780  32.7253330  75.7188060 113.0281650  33.6338560
  76.5328220 113.7275390  32.5660850  77.6188530 111.9059880  30.6927820
  77.0884990 111.4150830  30.0651160  78.2876600 112.3344080  30.1585750
  86.9888760 113.7125500  32.4608160  87.5709530 112.9577820  32.3728640
  87.1650530 114.2432940  31.6839640  78.1060830 108.8722250  30.7725110
  78.0117700 108.2543000  30.0475980  77.5258220 109.5988540  30.5455020
  80.8722270 107.4295490  27.8052500  80.4239570 107.4519750  26.9598050
  80.2387470 107.0314510  28.4022800  83.6145720 114.0566000  29.8102780
  83.7341930 113.4607140  30.5497620  84.4739720 114.0935690  29.3904080
  78.3520010 111.9996560  14.8315000  78.1509070 111.1363920  15.1928340
  78.1812060 111.9129920  13.8936600  80.3814490 110.5987350  31.0678600
  80.9714180 110.2903200  31.7556420  79.5634730 110.1267100  31.2238500
  85.2007920 110.2153160  31.3011620  84.5123440 109.5534700  31.2361610
  85.9213940 109.7691430  31.7460080  85.8308320 106.8104790  17.3601880
  86.1110610 105.9672690  17.7161300  85.0574050 107.0427900  17.8740630
  77.1502810 109.0997180  14.8192880  77.4528710 109.1064610  13.9112030
  77.8897400 108.7495040  15.3160540  80.3687740 108.0431800  15.8049080
  80.0209740 107.3655790  15.2251530  80.5700510 107.5821310  16.6192470
  73.7093380 114.5719450  22.2013450  73.0542220 114.3031090  21.5573150
  74.5471330 114.4623930  21.7515430  86.6583820 109.3660740  16.4231940
  87.0768700 109.1791720  15.5828600  86.3519880 108.5139790  16.7334870
  90.1573550 114.2784880  20.1207740  89.7817150 113.5112810  19.6889030
  89.4276670 114.6607580  20.6082670  74.7469310 114.9572020  26.7416790
  75.1142350 114.8699420  27.6212810  74.1780130 114.1938570  26.6423650
  89.5473170 113.4256400  29.7547260  89.3159260 113.1969150  28.8545210
  89.8077720 114.3455950  29.7092150  74.2985310 111.8681110  30.6475210
  73.4041360 111.8347870  30.9868920  74.8382860 112.0667900  31.4126460
  87.9861240 108.6512830  32.5326960  88.8631420 108.6596230  32.9160960
  87.9982080 107.9143670  31.9219310  72.9231460 111.7818380  18.1438780
  72.0195540 112.0448580  17.9690440  73.4072080 112.0529550  17.3638740
  89.4324510 112.5042370  23.4214980  89.9561990 112.0105020  22.7905150
  90.0183930 112.6392730  24.1662550  89.6114230 112.5882240  26.9434530
  88.6616940 112.5545780  27.0579520  89.7927240 113.4982350  26.7084300
  75.4658670 110.8383920  16.0533160  76.1750370 110.4167140  15.5680440
  74.7498610 110.9059150  15.4216510  75.1132830 106.8923250  15.0935810
  75.8360960 107.4332190  15.4117030  75.3857350 106.6186670  14.2177350
  88.9224480 111.7615720  19.3607390  89.4183600 111.5286590  20.1456270
  88.7240550 110.9227560  18.9445030  74.8025020 106.1429440  24.9958430
  75.4501210 105.5926820  24.5553590  75.2226860 106.3972590  25.8174240
  90.3511640 110.3976670  21.8945070  90.2410920 110.2432710  22.8327340
  91.1119230 109.8697610  21.6520480  88.6977360 106.3370800  28.3528070
  89.3349580 106.9504940  28.7187260  88.8452250 106.3731460  27.4077300
  91.2401910 108.2284590  15.1351210  92.1651220 108.0965770  14.9269500
  91.2177700 108.3077410  16.0887660  91.3140400 108.9995250  17.7607920
  90.5191900 108.9340370  18.2900830  91.5183680 109.9345890  17.7493270
  74.5557020 106.2985110  27.7383750  74.2071840 106.7548930  28.5041930
  74.2244720 105.4042240  27.8206180  82.0681840 107.4896990  31.2603170
  82.0070730 108.0818820  32.0098580  83.0082220 107.3822950  31.1153430
  84.7056400 107.1467050  30.8995460  85.3196810 107.4646340  30.2376540
  85.2505960 106.6615640  31.5191320  75.2277660 105.8261310  31.0134520
  75.7760650 105.6449360  30.2500630  75.2932970 105.0355420  31.5490830
  85.4464440 105.7099190  27.2264750  84.5724280 106.0434300  27.0237680
  85.3375190 105.2372370  28.0516620  86.3536420 107.9170060  28.6106470
  86.0249780 107.1021820  28.2308200  87.3018720 107.8739870  28.4872160
  83.1939260 106.6269030  26.1657660  82.4111050 107.1014530  26.4454420
  82.9002190 105.7223860  26.0570840  87.7460330 107.3292130  24.2106750
  88.1868420 107.2737230  23.3628350  87.4767920 108.2450140  24.2816930
  89.6098900 106.9607370  22.2215570  89.5487300 106.0168590  22.0746590
  90.3890930 107.0687460  22.7669030  74.5379670 106.9316510  18.6871380
  75.2959030 107.0445390  18.1135410  74.0756840 107.7685710  18.6414810
  81.0793480 109.0455780  21.6773690  80.2667990 108.6712670  21.3369570
  81.5835120 108.2900860  21.9794880  85.5818460 105.7098230  22.9156760
  86.1847830 106.2818440  23.3905280  84.8411450 106.2737670  22.6930660
  88.7253060 106.1119790  18.1897040  88.9203690 107.0103240  18.4564470
  87.9382930 105.8806870  18.6829990  76.9104820 107.4580560  17.2273350
  77.4397580 106.6710360  17.0981300  77.5433140 108.1371750  17.4608880
  79.1042660 107.1955700  20.2818740  78.4745400 106.4943010  20.4488870
  78.5647800 107.9559830  20.0651900  79.2298220 106.4739680  32.7171230
  78.9482490 106.9773280  31.9532050  79.6117920 105.6761430  32.3513360
  85.8313680 105.8893260  33.2951700  85.7179130 106.2087870  34.1903220
  86.6483420 106.2905770  32.9988980  84.7371830 113.9085730   3.6586440
  84.6565880 112.9940340   3.3878150  84.3236250 114.4052800   2.9526150
  73.2580660 113.5592100   6.0853560  73.8296770 112.7914300   6.0857200
  73.2582200 113.8580860   5.1760170  74.5005530 108.9676460   7.8722490
  74.3208370 108.0702210   8.1525250  74.0985610 109.5148330   8.5469440
  83.3404030 111.1692320   5.7734800  83.7168850 110.2964200   5.6608470
  83.2423540 111.5051020   4.8825240  87.1228150 108.6642760   2.7063140
  87.9437770 108.1739330   2.7488620  87.1562230 109.2540420   3.4594980
  75.1192200 111.4636960   6.4804830  75.8002310 111.7275330   7.0992230
  74.8040250 110.6237830   6.8142840  79.3116770 112.5104320   5.5677420
  79.8194990 113.0085290   6.2082440  79.8430010 111.7339520   5.3916780
  91.4127700 110.6809510   9.2706770  90.7079870 111.0691220   8.7521880
  91.6785620 111.3759800   9.8727700  77.5952870 107.1502880   9.8340840
  77.5971310 107.6675270   9.0286740  76.7657180 106.6733060   9.8110770
  87.3589630 110.6043140   5.4790680  86.6545200 110.8928030   6.0593790
  87.7201790 111.4143250   5.1190240  77.2768200 108.8612840   7.8411290
  77.6185010 109.7054890   7.5465160  76.3384010 109.0096580   7.9576630
  90.4276550 110.0497930   5.8699890  89.4801460 110.0836910   6.0015320
  90.7526540 110.8636880   6.2549250  80.9596090 106.3495110   4.1655880
  81.2671070 105.7942000   3.4491380  80.0296790 106.4839570   3.9828870
  86.8200700 112.1548780   8.8217060  86.4071880 112.9802490   9.0757050
  86.0876650 111.5693820   8.6293420  78.9533490 114.9408680   3.6835730
  78.5490490 114.2285930   3.1881630  79.0396610 114.5961920   4.5723770
  77.6662110 111.7151890   7.4634770  78.2176700 111.8247230   6.6888020
  78.1805620 112.0889490   8.1790000  90.3457270 111.2065360  12.7039180
  89.7301540 111.7145030  12.1754640  90.0253690 110.3063690  12.6465120
  78.1201780 107.1788730   4.5666050  77.6769930 107.9598270   4.2350570
  78.6786770 107.5018620   5.2736990  82.4071590 110.0457250  10.1701370
  81.9450960 110.2540270  10.9821310  82.0049700 109.2316600   9.8672040
  87.4076100 111.2666200  11.2998030  86.5569690 110.9671950  11.6207100
  87.2477890 111.5108210  10.3881850  84.5025810 112.7667950  13.3996820
  84.8279220 111.9331700  13.0599050  85.2906140 113.2896470  13.5475150
  80.1577680 107.7236060   6.4255650  80.4550010 108.6298890   6.3447670
  80.7063240 107.2354840   5.8115220  77.9116000 112.3022300   2.2947300
  77.6856920 112.0859470   3.1993920  77.1308530 112.7350760   1.9493270
  80.3515210 113.2007880  12.9607570  80.2558810 112.2602610  12.8107970
  81.1947190 113.4222950  12.5655640  83.7478630 110.9449210   2.9241230
  84.1408200 111.2621410   2.1109920  84.1095480 110.0661090   3.0385750
  75.4825750 109.6121550  11.1141350  75.0889140 110.4596760  11.3214130
  74.7944150 108.9747920  11.3049990  82.0570800 109.6956520  14.1838090
  81.3669120 109.5028720  14.8184180  82.8003100 109.9791160  14.7162390
  72.7842800 107.5350010   5.1471430  72.4955850 108.1052870   5.8596410
  73.5288560 107.0554460   5.5102660  84.3333770 113.5354960   7.0192010
  83.6014890 114.0441770   7.3682110  83.9358110 112.7184940   6.7180790
  80.7711160 110.2109160   5.4244500  80.7747220 109.7699110   4.5749040
  81.6662280 110.5326490   5.5316320  76.6213540 110.0935650   4.3838710
  76.2813590 110.5710880   5.1405760  75.8590860 109.6400770   4.0239810
  84.7959680 108.9888640   6.4314950  84.8132420 109.4397290   7.2756800
  84.5475260 108.0894280   6.6448390  88.2230430 106.4020820  12.2701330
  88.5476200 105.6710480  12.7959310  88.2586940 106.0834460  11.3682320
  81.0719130 114.2710940   7.1709910  81.4389260 113.7969510   7.9171250
  80.8824190 115.1452510   7.5118250  73.9359620 109.0154630   3.3003380
  73.6506540 108.6510300   4.1382000  73.8738480 108.2835090   2.6866520
  78.8618500 113.3119580   9.4894120  78.5575570 114.1911560   9.7144480
  79.8164960 113.3719370   9.5251560  74.9182230 114.1522320  10.6365480
  74.5597170 114.8176170  11.2238820  74.6236790 113.3205870  11.0078100
  78.1195350 114.6106560  13.5205030  77.8195490 114.7563740  12.6232850
  78.8906590 114.0511850  13.4278420  73.4930800 107.6415560  11.3137580
  72.7789320 107.8412480  11.9190190  73.9125840 106.8655130  11.6852380
  84.9869580 110.1337870   9.0639030  85.3550400 109.3133080   9.3918600
  84.1267780 110.1939760   9.4794680  81.9471570 112.7877460   9.2877000
  82.4456820 113.2623280   9.9528850  82.0894520 111.8640980   9.4947030
  84.3531070 108.0931420   2.7280260  84.2298850 108.1117550   1.7789770
  85.3015630 108.1410360   2.8478660  89.1538430 109.0045420  10.1305390
  88.6512030 109.7450820  10.4699200  89.9695090 109.3929420   9.8142180
  87.4460440 114.2478600   3.5766750  86.5050580 114.2628830   3.7514440
  87.7604510 113.4614560   4.0227050  75.6782720 113.3267780  13.9509840
  75.7188060 113.0281650  14.8595070  76.5328220 113.7275390  13.7917360
  77.6188530 111.9059880  11.9184330  77.0884990 111.4150830  11.2907670
  78.2876600 112.3344080  11.3842260  86.9888760 113.7125500  13.6864670
  87.5709530 112.9577820  13.5985150  87.1650530 114.2432940  12.9096150
  78.1060830 108.8722250  11.9981620  78.0117700 108.2543000  11.2732490
  77.5258220 109.5988540  11.7711530  80.8722270 107.4295490   9.0309010
  80.4239570 107.4519750   8.1854560  80.2387470 107.0314510   9.6279310
  83.6145720 114.0566000  11.0359290  83.7341930 113.4607140  11.7754130
  84.4739720 114.0935690  10.6160590  80.3814490 110.5987350  12.2935110
  80.9714180 110.2903200  12.9812930  79.5634730 110.1267100  12.4495010
  85.2007920 110.2153160  12.5268130  84.5123440 109.5534700  12.4618120
  85.9213940 109.7691430  12.9716590  73.7093380 114.5719450   3.4269960
  73.0542220 114.3031090   2.7829660  74.5471330 114.4623930   2.9771940
  74.7469310 114.9572020   7.9673300  75.1142350 114.8699420   8.8469320
  74.1780130 114.1938570   7.8680160  89.5473170 113.4256400  10.9803770
  89.3159260 113.1969150  10.0801720  89.8077720 114.3455950  10.9348660
  74.2985310 111.8681110  11.8731720  73.4041360 111.8347870  12.2125430
  74.8382860 112.0667900  12.6382970  87.9861240 108.6512830  13.7583470
  88.8631420 108.6596230  14.1417470  87.9982080 107.9143670  13.1475820
  89.4324510 112.5042370   4.6471490  89.9561990 112.0105020   4.0161660
  90.0183930 112.6392730   5.3919060  89.6114230 112.5882240   8.1691040
  88.6616940 112.5545780   8.2836030  89.7927240 113.4982350   7.9340810
  74.8025020 106.1429440   6.2214940  75.4501210 105.5926820   5.7810100
  75.2226860 106.3972590   7.0430750  90.3511640 110.3976670   3.1201580
  90.2410920 110.2432710   4.0583850  91.1119230 109.8697610   2.8776990
  88.6977360 106.3370800   9.5784580  89.3349580 106.9504940   9.9443770
  88.8452250 106.3731460   8.6333810  74.5557020 106.2985110   8.9640260
  74.2071840 106.7548930   9.7298440  74.2244720 105.4042240   9.0462690
  82.0681840 107.4896990  12.4859680  82.0070730 108.0818820  13.2355090
  83.0082220 107.3822950  12.3409940  84.7056400 107.1467050  12.1251970
  85.3196810 107.4646340  11.4633050  85.2505960 106.6615640  12.7447830
  75.2277660 105.8261310  12.2391030  75.7760650 105.6449360  11.4757140
  75.2932970 105.0355420  12.7747340  85.4464440 105.7099190   8.4521260
  84.5724280 106.0434300   8.2494190  85.3375190 105.2372370   9.2773130
  86.3536420 107.9170060   9.8362980  86.0249780 107.1021820   9.4564710
  87.3018720 107.8739870   9.7128670  83.1939260 106.6269030   7.3914170
  82.4111050 107.1014530   7.6710930  82.9002190 105.7223860   7.2827350
  87.7460330 107.3292130   5.4363260  88.1868420 107.2737230   4.5884860
  87.4767920 108.2450140   5.5073440  89.6098900 106.9607370   3.4472080
  89.5487300 106.0168590   3.3003100  90.3890930 107.0687460   3.9925540
  81.0793480 109.0455780   2.9030200  80.2667990 108.6712670   2.5626080
  81.5835120 108.2900860   3.2051390  85.5818460 105.7098230   4.1413270
  86.1847830 106.2818440   4.6161790  84.8411450 106.2737670   3.9187170
  79.2298220 106.4739680  13.9427740  78.9482490 106.9773280  13.1788560
  79.6117920 105.6761430  13.5769870  85.8313680 105.8893260  14.5208210
  85.7179130 106.2087870  15.4159730  86.6483420 106.2905770  14.2245490
  84.7371830  95.1342240  97.5303890  84.6565880  94.2196850  97.2595600
  84.3236250  95.6309310  96.8243600  82.8689870  96.9121260  99.4113160
  82.0931970  96.4321700  99.7011730  83.5202800  96.2326910  99.2369320
  76.8855700  97.2241070 100.2888920  76.0540580  96.9689780 100.6885430
  77.4936680  97.2951840 101.0246840  86.8897300 101.3181450  98.1912290
  86.4278830 100.5468690  98.5199460  87.7022850 101.3447520  98.6964740
  76.8656960 101.2581160 100.4846940  77.1685000 100.3678900 100.3057160
  77.6100550 101.8151380 100.2569190  75.2947650  92.1842960  94.0731310
  74.4064350  92.5258930  93.9711190  75.5788840  91.9843280  93.1812140
  73.2580660  94.7848610  99.9571010  73.8296770  94.0170810  99.9574650
  73.2582200  95.0837370  99.0477620  83.1160610 103.6039460  97.8116280
  82.4972050 104.0596960  97.2410720  83.9712390 103.7590920  97.4105980
  82.3098860  99.5878450  99.4183320  82.2407140  98.6468390  99.2572450
  83.0718720  99.6779860  99.9905890  74.5005530  90.1932970 101.7439940
  74.3208370  89.2958720 102.0242700  74.0985610  90.7404840 102.4186890
  83.3404030  92.3948830  99.6452250  83.7168850  91.5220710  99.5325920
  83.2423540  92.7307530  98.7542690  77.4709040  90.7674460  95.1069690
  77.5775790  91.6678190  95.4138450  76.5601400  90.7192430  94.8164340
  87.1228150  89.8899270  96.5780590  87.9437770  89.3995840  96.6206070
  87.1562230  90.4796930  97.3312430  75.1192200  92.6893470 100.3522280
  75.8002310  92.9531840 100.9709680  74.8040250  91.8494340 100.6860290
  79.3116770  93.7360830  99.4394870  79.8194990  94.2341800 100.0799890
  79.8430010  92.9596030  99.2634230  83.9823960  98.4878700  95.2048190
  83.3641230  98.9528150  94.6410910  84.4947210  99.1806180  95.6217700
  78.8455720  98.0154570 101.8831790  78.5125100  98.6423490 102.5252860
  79.0222400  98.5416450 101.1033460  87.3589630  91.8299650  99.3508130
  86.6545200  92.1184540  99.9311240  87.7201790  92.6399760  98.9907690
  77.2768200  90.0869350 101.7128740  77.6185010  90.9311400 101.4182610
  76.3384010  90.2353090 101.8294080  73.3507160  99.1735230  92.5787820
  72.9735140  99.6622330  91.8472720  73.6080230  99.8460510  93.2094350
  88.9752410 101.4474780 101.6135610  88.2915930 102.1173890 101.6052280
  89.5146700 101.6455430 100.8480470  90.4276550  91.2754440  99.7417340
  89.4801460  91.3093420  99.8732770  90.7526540  92.0893390 100.1266700
  80.9596090  87.5751620  98.0373330  81.2671070  87.0198510  97.3208830
  80.0296790  87.7096080  97.8546320  86.5111150 103.2918910 100.3280790
  86.5238310 102.8881200  99.4603050  85.9586370 104.0666200 100.2242220
  87.8056570 100.0135130  95.4170960  87.6952900  99.0709460  95.5420380
  87.8024820 100.3750770  96.3033720  85.9096590  98.1948750 101.6563400
  86.3265380  97.9808860 100.8216860  86.6336410  98.4521540 102.2272020
  83.3476850  95.6400450  94.7733450  82.4206130  95.5737830  95.0021920
  83.5001670  96.5780580  94.6588690  83.3345930  91.9117450  91.7700610
  82.3949600  92.0731410  91.8553070  83.6529190  92.6303130  91.2236600
  89.8558690  96.5935970 101.7479640  89.0277320  96.6629060 101.2729770
  90.4509170  97.1790280 101.2795470  87.3774140  97.2020750  95.2768700
  86.7586560  96.8640300  94.6295000  87.3598590  96.5580510  95.9847890
  78.9533490  96.1665190  97.5553180  78.5490490  95.4542440  97.0599080
  79.0396610  95.8218430  98.4441220  79.4215190  99.8532750  99.7192390
  79.1243480  99.2478220  99.0400170  80.3715010  99.8910060  99.6081750
  77.6662110  92.9408400 101.3352220  78.2176700  93.0503740 100.5605470
  78.1805620  93.3146000 102.0507450  85.5538840  96.4407560  92.2841450
  85.9932120  95.6029990  92.1379270  86.2667260  97.0736960  92.3705590
  83.6634220 101.3803630  96.2522690  84.1030130 102.1227960  95.8378080
  83.6021110 101.6230200  97.1761650  89.1355980  87.6950370  90.5982490
  88.8228640  87.7877200  91.4981560  89.8968450  88.2731400  90.5479920
  75.6538120  95.0610170  95.0559830  75.5335720  95.7872260  94.4441100
  75.3439010  94.2913080  94.5787740  73.2923490  98.2325310 100.8628470
  73.3703910  98.3674080  99.9184190  73.9065170  97.5241200 101.0556590
  74.5371120  99.9325500  97.2734650  74.1299200 100.0740090  96.4188250
  75.4284130  99.6485660  97.0705860  86.3304400 104.3672750  93.6085700
  86.1705540 104.0775690  94.5067530  86.1651110 103.5912880  93.0730930
  78.8092780 104.1471280  95.3857320  78.6335260 103.2306820  95.1725120
  77.9548520 104.5058570  95.6255120  86.0330530 101.8760310  92.1683700
  85.3395690 101.8737600  91.5085980  86.7753390 101.4519630  91.7377870
  85.5980460 103.5023020  96.2432190  86.0537410 102.7212400  96.5570810
  85.9372980 104.2129840  96.7873370  78.1201780  88.4045240  98.4383500
  77.6769930  89.1854780  98.1068020  78.6786770  88.7275130  99.1454440
  81.2360600  88.0255940  93.3189330  80.6114780  88.0215810  94.0442640
  81.1490720  87.1586900  92.9225300  80.1577680  88.9492570 100.2973100
  80.4550010  89.8555400 100.2165120  80.7063240  88.4611350  99.6832670
  77.9116000  93.5278810  96.1664750  77.6856920  93.3115980  97.0711370
  77.1308530  93.9607270  95.8210720  85.1413760  93.5342180  94.7655400
  84.5422650  94.2577980  94.5819020  85.6893370  93.4718960  93.9831850
  83.7478630  92.1705720  96.7958680  84.1408200  92.4877920  95.9827370
  84.1095480  91.2917600  96.9103200  72.7842800  88.7606520  99.0188880
  72.4955850  89.3309380  99.7313860  73.5288560  88.2810970  99.3820110
  72.9713030  92.7026640  90.2291600  72.8887700  93.6457400  90.3706590
  72.6196090  92.5601550  89.3503950  84.3333770  94.7611470 100.8909460
  83.6014890  95.2698280 101.2399560  83.9358110  93.9441450 100.5898240
  80.7711160  91.4365670  99.2961950  80.7747220  90.9955620  98.4466490
  81.6662280  91.7583000  99.4033770  76.6213540  91.3192160  98.2556160
  76.2813590  91.7967390  99.0123210  75.8590860  90.8657280  97.8957260
  80.8331310  92.4377750  92.2868710  80.9544130  92.3964230  93.2354530
  80.4479820  93.3001900  92.1315440  84.7959680  90.2145150 100.3032400
  84.8132420  90.6653800 101.1474250  84.5475260  89.3150790 100.5165840
  79.8452810  94.7478890  91.6852010  79.2769710  94.2997140  91.0587920
  80.5541810  95.1071670  91.1517160  81.0719130  95.4967450 101.0427360
  81.4389260  95.0226020 101.7888700  80.8824190  96.3709020 101.3835700
  73.9359620  90.2411140  97.1720830  73.6506540  89.8766810  98.0099450
  73.8738480  89.5091600  96.5583970  77.3900290  98.7437080  93.9578420
  76.6162550  98.2034700  93.7977140  78.1194920  98.2243690  93.6196180
  88.1488270  97.7402440  99.7504810  88.8687390  98.2357730  99.3600920
  87.9470090  97.0620330  99.1058680  83.6098210  89.1340400  93.8934200
  82.7962820  88.6353570  93.8179510  83.4160160  89.9738650  93.4770550
  86.3246600  93.5060050  92.1896360  87.2126220  93.8177280  92.0147700
  86.2951690  92.6332300  91.7976940  77.4337690  98.4117460  97.5957230
  77.9516360  97.6085720  97.5414120  76.9821710  98.3496600  98.4374060
  82.3207190  99.6783740  92.8684530  82.6622890 100.4225970  92.3727850
  81.4919900  99.9914860  93.2309360  88.5960870  94.8171890  91.6576220
  88.5124590  95.2486110  90.8072660  89.3155060  95.2770240  92.0903040
  89.6248120 101.6714150  94.3858350  88.9824280 101.0169770  94.6602070
  89.2378780 102.0769240  93.6099020  85.2034600  98.9999580  98.2330040
  85.5558420  98.4027710  97.5731410  84.3196930  98.6743810  98.4038290
  81.2897880  99.7597270  95.6400450  81.9769010 100.3066480  96.0208040
  80.5030300 100.3038000  95.6750060  73.4290280  95.3770090  91.1317530
  74.2985130  95.6594890  91.4153450  72.9380600  96.1905960  91.0166340
  80.5925090  96.7643300  95.2525810  81.0487870  97.5748550  95.4786000
  80.2413300  96.4466440  96.0844300  76.4936870  87.1080950  95.7248330
  76.3651500  87.0998850  96.6733250  75.6698890  87.4464040  95.3739340
  84.1689780 100.2781990 101.1995560  84.8112010  99.5775150 101.3127730
  84.6939130 101.0580430 101.0192450  88.0145500 100.5630610  90.9234700
  87.7883080  99.8461050  91.5159340  87.6241700 100.3143050  90.0856450
  73.7961530 104.5897470  91.6979160  74.1559170 105.1886810  91.0436430
  73.6553870 105.1357360  92.4714190  87.5961750  98.4802550  92.5848860
  87.3083450  98.9415240  93.3726740  88.3913920  98.0200320  92.8533080
  79.8130150 101.9728670  92.5152830  79.8040250 102.7058360  91.8997340
  78.8928510 101.7260250  92.6079790  75.4136790  97.1943560  93.2599590
  74.8064740  97.9342460  93.2694890  75.8886140  97.2842920  92.4337790
  88.3531610  90.3151320  93.7444040  87.7244770  90.4196990  93.0302270
  87.8583530  90.5348100  94.5337920  82.7989750 102.0356910  91.1778020
  82.9001730 101.8320900  90.2480000  81.8991490 101.7815190  91.3825800
  80.3215640  92.5937270  95.1601920  79.6131790  93.0623610  95.6015530
  80.6060120  91.9359280  95.7947110  84.3531070  89.3187930  96.5997710
  84.2298850  89.3374060  95.6507220  85.3015630  89.3666870  96.7196110
  81.4407860 104.5543230  95.8725690  81.6949360 104.5164620  94.9505060
  80.4920340 104.4276560  95.8653940  78.5250660  90.9022350  92.5352630
  79.3741190  91.3392500  92.4692820  78.1581930  91.2142610  93.3624690
  87.4460440  95.4735110  97.4484200  86.5050580  95.4885340  97.6231890
  87.7604510  94.6871070  97.8944500  77.4242080  97.1554710  91.0088160
  78.1905350  97.0436070  91.5713590  77.5016770  96.4592680  90.3564930
  76.1188840  94.5879780  91.6921050  76.1992430  93.6407290  91.8038450
  77.0108590  94.9186660  91.7981710  89.4486020 102.6443960  99.1238460
  89.5733440 103.4675130  99.5962270  90.3151580 102.4334690  98.7762610
  76.9203550 104.7375170  98.7955590  77.6566030 104.1890630  99.0664160
  77.3044470 105.6031180  98.6561580  73.8049030 100.8048740  94.6697100
  72.8788810 101.0469880  94.6602510  74.2705460 101.6323000  94.5481850
  80.0305860 103.9105480  90.6181160  80.8234470 104.1994310  90.1662950
  79.5110210 103.4797650  89.9393640  89.0836030 103.1375610  92.0417900
  88.7977540 102.7240750  91.2272080  88.8855580 104.0663320  91.9218420
  80.5483260  99.1308890  90.4823510  80.4433900  98.5161240  91.2084890
  80.3807480  98.6074780  89.6986520  83.7885990  98.1928920  91.0865500
  83.2396090  98.6398220  91.7308240  84.4105250  97.6878170  91.6103170
  79.4561110  97.1519840  92.9830800  79.8777530  96.9859710  93.8262190
  79.5811950  96.3420070  92.4885940  81.9688750  96.1757450  90.2307900
  82.4894410  95.4606470  89.8649050  82.6157150  96.8143320  90.5308410
  78.3520010  93.2253070  89.9288960  78.1509070  92.3620430  90.2902300
  78.1812060  93.1386430  88.9910560  85.8308320  88.0361300  92.4575840
  86.1110610  87.1929200  92.8135260  85.0574050  88.2684410  92.9714590
  77.1502810  90.3253690  89.9166840  77.4528710  90.3321120  89.0085990
  77.8897400  89.9751550  90.4134500  80.3687740  89.2688310  90.9023040
  80.0209740  88.5912300  90.3225490  80.5700510  88.8077820  91.7166430
  82.5336780 104.2569060  92.5209640  83.4287570 104.5954030  92.5428400
  82.5654410 103.5348470  91.8933920  76.1732940  99.6296110  90.7496640
  76.6107810 100.1725780  91.4054220  76.6580670  98.8043060  90.7592980
  73.3878740 102.4185140  98.2016900  73.7181750 101.5506200  97.9695540
  73.8169740 102.6243660  99.0321860  77.9840660 100.7494150  95.8618870
  77.6836200 100.6259120  96.7622780  77.8778150  99.8902740  95.4534600
  73.8768950 103.2855730 100.9398530  73.4399940 103.4656530 101.7722680
  74.4446630 104.0430350 100.7980250  90.7532580 100.5290550  90.5645550
  89.9225540 100.5967200  91.0352780  90.9304410 101.4194670  90.2612410
  90.2089040  97.2738030  93.0679750  90.9707950  97.8434680  93.1739440
  90.2243410  96.7065230  93.8388060  73.7093380  95.7975960  97.2987410
  73.0542220  95.5287600  96.6547110  74.5471330  95.6880440  96.8489390
  91.2149010  98.1288130  97.9121680  91.5857840  97.3455450  97.5057650
  91.8550940  98.8177230  97.7338980  90.2608210  97.5672400  90.2252270
  90.5357050  98.4751280  90.0971490  90.0718950  97.5034930  91.1614260
  86.6583820  90.5917250  91.5205900  87.0768700  90.4048230  90.6802560
  86.3519880  89.7396300  91.8308830  90.1573550  95.5041390  95.2181700
  89.7817150  94.7369320  94.7862990  89.4276670  95.8864090  95.7056630
  74.7469310  96.1828530 101.8390750  75.1142350  96.0955930 102.7186770
  74.1780130  95.4195080 101.7397610  72.9231460  93.0074890  93.2412740
  72.0195540  93.2705090  93.0664400  73.4072080  93.2786060  92.4612700
  89.4324510  93.7298880  98.5188940  89.9561990  93.2361530  97.8879110
  90.0183930  93.8649240  99.2636510  89.6114230  93.8138750 102.0408490
  88.6616940  93.7802290 102.1553480  89.7927240  94.7238860 101.8058260
  75.4658670  92.0640430  91.1507120  76.1750370  91.6423650  90.6654400
  74.7498610  92.1315660  90.5190470  75.1132830  88.1179760  90.1909770
  75.8360960  88.6588700  90.5090990  75.3857350  87.8443180  89.3151310
  88.9224480  92.9872230  94.4581350  89.4183600  92.7543100  95.2430230
  88.7240550  92.1484070  94.0418990  74.8025020  87.3685950 100.0932390
  75.4501210  86.8183330  99.6527550  75.2226860  87.6229100 100.9148200
  90.3511640  91.6233180  96.9919030  90.2410920  91.4689220  97.9301300
  91.1119230  91.0954120  96.7494440  91.2401910  89.4541100  90.2325170
  92.1651220  89.3222280  90.0243460  91.2177700  89.5333920  91.1861620
  91.3140400  90.2251760  92.8581880  90.5191900  90.1596880  93.3874790
  91.5183680  91.1602400  92.8467230  88.2558820 104.2643310  96.8520270
  88.8517890 103.9427880  96.1754690  88.5136970 103.7915130  97.6433540
  79.8627420 102.2520810 102.6020620  79.6218780 102.5195370 101.7151140
  80.8030060 102.4226540 102.6571480  88.8071030 104.9138610 100.6818000
  88.3474000 105.6654420 100.3076020  88.1783490 104.1945080 100.6232800
  79.2366750 103.2226850  99.8566130  79.7531770 102.6114210  99.3314390
  79.8864130 103.7255630 100.3477140  81.9762250 104.1135340 100.6835110
  82.2640060 103.8589640  99.8068120  82.4885470 103.5612700 101.2740680
  83.1939260  87.8525540 101.2631620  82.4111050  88.3271040 101.5428380
  82.9002190  86.9480370 101.1544800  87.7460330  88.5548640  99.3080710
  88.1868420  88.4993740  98.4602310  87.4767920  89.4706650  99.3790890
  89.6098900  88.1863880  97.3189530  89.5487300  87.2425100  97.1720550
  90.3890930  88.2943970  97.8642990  73.9151650 104.3256240  96.2813480
  73.7473690 103.6926920  96.9795370  73.0486160 104.5315640  95.9307670
  74.5379670  88.1573020  93.7845340  75.2959030  88.2701900  93.2109370
  74.0756840  88.9942220  93.7388770  81.0793480  90.2712290  96.7747650
  80.2667990  89.8969180  96.4343530  81.5835120  89.5157370  97.0768840
  85.5818460  86.9354740  98.0130720  86.1847830  87.5074950  98.4879240
  84.8411450  87.4994180  97.7904620  88.7253060  87.3376300  93.2871000
  88.9203690  88.2359750  93.5538430  87.9382930  87.1063380  93.7803950
  75.5214350 103.0189470  93.7263620  74.9961970 103.3997500  93.0225580
  75.4458930 103.6440240  94.4473330  76.9104820  88.6837070  92.3247310
  77.4397580  87.8966870  92.1955260  77.5433140  89.3628260  92.5582840
  79.1042660  88.4212210  95.3792700  78.4745400  87.7199520  95.5462830
  78.5647800  89.1816340  95.1625860  90.2779670 104.5777010  95.0477560
  90.4531860 103.8914750  94.4038480  89.5801240 105.1024060  94.6554230
  78.1207320 104.9671850  92.6012870  78.8526140 104.6831130  92.0536760
  78.3800990 104.7285130  93.4912250  77.2822110 101.0836580  92.6059200
  76.6530990 101.5521680  93.1545030  77.3969940 100.2385800  93.0405390
  84.7371830  95.1342240  78.7560400  84.6565880  94.2196850  78.4852110
  84.3236250  95.6309310  78.0500110  82.8689870  96.9121260  80.6369670
  82.0931970  96.4321700  80.9268240  83.5202800  96.2326910  80.4625830
  76.8855700  97.2241070  81.5145430  76.0540580  96.9689780  81.9141940
  77.4936680  97.2951840  82.2503350  86.8897300 101.3181450  79.4168800
  86.4278830 100.5468690  79.7455970  87.7022850 101.3447520  79.9221250
  76.8656960 101.2581160  81.7103450  77.1685000 100.3678900  81.5313670
  77.6100550 101.8151380  81.4825700  75.2947650  92.1842960  75.2987820
  74.4064350  92.5258930  75.1967700  75.5788840  91.9843280  74.4068650
  73.2580660  94.7848610  81.1827520  73.8296770  94.0170810  81.1831160
  73.2582200  95.0837370  80.2734130  83.1160610 103.6039460  79.0372790
  82.4972050 104.0596960  78.4667230  83.9712390 103.7590920  78.6362490
  82.3098860  99.5878450  80.6439830  82.2407140  98.6468390  80.4828960
  83.0718720  99.6779860  81.2162400  74.5005530  90.1932970  82.9696450
  74.3208370  89.2958720  83.2499210  74.0985610  90.7404840  83.6443400
  83.3404030  92.3948830  80.8708760  83.7168850  91.5220710  80.7582430
  83.2423540  92.7307530  79.9799200  77.4709040  90.7674460  76.3326200
  77.5775790  91.6678190  76.6394960  76.5601400  90.7192430  76.0420850
  87.1228150  89.8899270  77.8037100  87.9437770  89.3995840  77.8462580
  87.1562230  90.4796930  78.5568940  75.1192200  92.6893470  81.5778790
  75.8002310  92.9531840  82.1966190  74.8040250  91.8494340  81.9116800
  79.3116770  93.7360830  80.6651380  79.8194990  94.2341800  81.3056400
  79.8430010  92.9596030  80.4890740  91.4127700  91.9066020  84.3680730
  90.7079870  92.2947730  83.8495840  91.6785620  92.6016310  84.9701660
  77.5952870  88.3759390  84.9314800  77.5971310  88.8931780  84.1260700
  76.7657180  87.8989570  84.9084730  83.9823960  98.4878700  76.4304700
  83.3641230  98.9528150  75.8667420  84.4947210  99.1806180  76.8474210
  78.8455720  98.0154570  83.1088300  78.5125100  98.6423490  83.7509370
  79.0222400  98.5416450  82.3289970  87.3589630  91.8299650  80.5764640
  86.6545200  92.1184540  81.1567750  87.7201790  92.6399760  80.2164200
  77.2768200  90.0869350  82.9385250  77.6185010  90.9311400  82.6439120
  76.3384010  90.2353090  83.0550590  78.0574820  99.9835370  84.9237480
  78.6748820 100.6586450  84.6421930  77.1967940 100.3923350  84.8324980
  73.3507160  99.1735230  73.8044330  72.9735140  99.6622330  73.0729230
  73.6080230  99.8460510  74.4350860  88.9752410 101.4474780  82.8392120
  88.2915930 102.1173890  82.8308790  89.5146700 101.6455430  82.0736980
  90.4276550  91.2754440  80.9673850  89.4801460  91.3093420  81.0989280
  90.7526540  92.0893390  81.3523210  80.9596090  87.5751620  79.2629840
  81.2671070  87.0198510  78.5465340  80.0296790  87.7096080  79.0802830
  86.5111150 103.2918910  81.5537300  86.5238310 102.8881200  80.6859560
  85.9586370 104.0666200  81.4498730  87.8056570 100.0135130  76.6427470
  87.6952900  99.0709460  76.7676890  87.8024820 100.3750770  77.5290230
  85.9096590  98.1948750  82.8819910  86.3265380  97.9808860  82.0473370
  86.6336410  98.4521540  83.4528530  83.3476850  95.6400450  75.9989960
  82.4206130  95.5737830  76.2278430  83.5001670  96.5780580  75.8845200
  83.3345930  91.9117450  72.9957120  82.3949600  92.0731410  73.0809580
  83.6529190  92.6303130  72.4493110  89.8558690  96.5935970  82.9736150
  89.0277320  96.6629060  82.4986280  90.4509170  97.1790280  82.5051980
  87.3774140  97.2020750  76.5025210  86.7586560  96.8640300  75.8551510
  87.3598590  96.5580510  77.2104400  86.8200700  93.3805290  83.9191020
  86.4071880  94.2059000  84.1731010  86.0876650  92.7950330  83.7267380
  78.9533490  96.1665190  78.7809690  78.5490490  95.4542440  78.2855590
  79.0396610  95.8218430  79.6697730  79.4215190  99.8532750  80.9448900
  79.1243480  99.2478220  80.2656680  80.3715010  99.8910060  80.8338260
  77.6662110  92.9408400  82.5608730  78.2176700  93.0503740  81.7861980
  78.1805620  93.3146000  83.2763960  87.5100800 103.4264620  84.6072000
  87.0331360 104.2336810  84.4144610  86.8262590 102.7742950  84.7598210
  78.5133620  99.5914440  87.5956700  77.6162150  99.8154410  87.8430100
  78.5386490  99.7149380  86.6468100  85.5538840  96.4407560  73.5097960
  85.9932120  95.6029990  73.3635780  86.2667260  97.0736960  73.5962100
  77.3404840  96.4627760  86.1714070  77.2012610  97.3350560  86.5401470
  76.4586200  96.1200570  86.0262010  83.6634220 101.3803630  77.4779200
  84.1030130 102.1227960  77.0634590  83.6021110 101.6230200  78.4018160
  79.1385190 102.4049460  88.3799220  79.1100620 102.8092410  87.5127650
  78.9750160 101.4759820  88.2170820  89.1355980  87.6950370  71.8239000
  88.8228640  87.7877200  72.7238070  89.8968450  88.2731400  71.7736430
  75.6538120  95.0610170  76.2816340  75.5335720  95.7872260  75.6697610
  75.3439010  94.2913080  75.8044250  91.0900010 103.1876560  89.6763390
  91.5659730 103.6659450  90.3552470  91.7107170 103.1194050  88.9508890
  73.2923490  98.2325310  82.0884980  73.3703910  98.3674080  81.1440700
  73.9065170  97.5241200  82.2813100  74.5371120  99.9325500  78.4991160
  74.1299200 100.0740090  77.6444760  75.4284130  99.6485660  78.2962370
  90.4933260 100.3789410  86.8363400  90.6196320 100.1401290  85.9180580
  90.5354640  99.5473950  87.3085480  84.3550000 104.0817410  85.4058210
  84.8694670 103.9925420  86.2080640  83.5119080 104.4277110  85.6986120
  86.3304400 104.3672750  74.8342210  86.1705540 104.0775690  75.7324040
  86.1651110 103.5912880  74.2987440  78.8092780 104.1471280  76.6113830
  78.6335260 103.2306820  76.3981630  77.9548520 104.5058570  76.8511630
  86.0330530 101.8760310  73.3940210  85.3395690 101.8737600  72.7342490
  86.7753390 101.4519630  72.9634380  85.5980460 103.5023020  77.4688700
  86.0537410 102.7212400  77.7827320  85.9372980 104.2129840  78.0129880
  90.3457270  92.4321870  87.8013140  89.7301540  92.9401540  87.2728600
  90.0253690  91.5320200  87.7439080  73.3483010  99.2739480  84.6279440
  73.5114050  98.8044840  83.8098810  73.8135460  98.7663040  85.2928280
  78.1201780  88.4045240  79.6640010  77.6769930  89.1854780  79.3324530
  78.6786770  88.7275130  80.3710950  82.4071590  91.2713760  85.2675330
  81.9450960  91.4796780  86.0795270  82.0049700  90.4573110  84.9646000
  87.4076100  92.4922710  86.3971990  86.5569690  92.1928460  86.7181060
  87.2477890  92.7364720  85.4855810  84.5025810  93.9924460  88.4970780
  84.8279220  93.1588210  88.1573010  85.2906140  94.5152980  88.6449110
  81.2360600  88.0255940  74.5445840  80.6114780  88.0215810  75.2699150
  81.1490720  87.1586900  74.1481810  80.1577680  88.9492570  81.5229610
  80.4550010  89.8555400  81.4421630  80.7063240  88.4611350  80.9089180
  77.9116000  93.5278810  77.3921260  77.6856920  93.3115980  78.2967880
  77.1308530  93.9607270  77.0467230  85.1413760  93.5342180  75.9911910
  84.5422650  94.2577980  75.8075530  85.6893370  93.4718960  75.2088360
  80.3515210  94.4264390  88.0581530  80.2558810  93.4859120  87.9081930
  81.1947190  94.6479460  87.6629600  83.7478630  92.1705720  78.0215190
  84.1408200  92.4877920  77.2083880  84.1095480  91.2917600  78.1359710
  75.4825750  90.8378060  86.2115310  75.0889140  91.6853270  86.4188090
  74.7944150  90.2004430  86.4023950  82.0570800  90.9213030  89.2812050
  81.3669120  90.7285230  89.9158140  82.8003100  91.2047670  89.8136350
  72.7842800  88.7606520  80.2445390  72.4955850  89.3309380  80.9570370
  73.5288560  88.2810970  80.6076620  72.9713030  92.7026640  71.4548110
  72.8887700  93.6457400  71.5963100  72.6196090  92.5601550  70.5760460
  84.3333770  94.7611470  82.1165970  83.6014890  95.2698280  82.4656070
  83.9358110  93.9441450  81.8154750  80.7711160  91.4365670  80.5218460
  80.7747220  90.9955620  79.6723000  81.6662280  91.7583000  80.6290280
  76.6213540  91.3192160  79.4812670  76.2813590  91.7967390  80.2379720
  75.8590860  90.8657280  79.1213770  80.8331310  92.4377750  73.5125220
  80.9544130  92.3964230  74.4611040  80.4479820  93.3001900  73.3571950
  84.7959680  90.2145150  81.5288910  84.8132420  90.6653800  82.3730760
  84.5475260  89.3150790  81.7422350  79.8452810  94.7478890  72.9108520
  79.2769710  94.2997140  72.2844430  80.5541810  95.1071670  72.3773670
  88.2230430  87.6277330  87.3675290  88.5476200  86.8966990  87.8933270
  88.2586940  87.3090970  86.4656280  74.9221990  98.6490910  86.7875250
  74.5376780  98.0084580  87.3858210  75.2334180  99.3527030  87.3569980
  81.0719130  95.4967450  82.2683870  81.4389260  95.0226020  83.0145210
  80.8824190  96.3709020  82.6092210  73.9359620  90.2411140  78.3977340
  73.6506540  89.8766810  79.2355960  73.8738480  89.5091600  77.7840480
  78.8618500  94.5376090  84.5868080  78.5575570  95.4168070  84.8118440
  79.8164960  94.5975880  84.6225520  77.3900290  98.7437080  75.1834930
  76.6162550  98.2034700  75.0233650  78.1194920  98.2243690  74.8452690
  88.1488270  97.7402440  80.9761320  88.8687390  98.2357730  80.5857430
  87.9470090  97.0620330  80.3315190  83.6098210  89.1340400  75.1190710
  82.7962820  88.6353570  75.0436020  83.4160160  89.9738650  74.7027060
  83.5307070  97.8111500  86.8630320  83.4644380  96.8907170  86.6087910
  82.9012210  97.9086940  87.5774960  86.3246600  93.5060050  73.4152870
  87.2126220  93.8177280  73.2404210  86.2951690  92.6332300  73.0233450
  77.4337690  98.4117460  78.8213740  77.9516360  97.6085720  78.7670630
  76.9821710  98.3496600  79.6630570  82.3207190  99.6783740  74.0941040
  82.6622890 100.4225970  73.5984360  81.4919900  99.9914860  74.4565870
  74.9182230  95.3778830  85.7339440  74.5597170  96.0432680  86.3212780
  74.6236790  94.5462380  86.1052060  78.1195350  95.8363070  88.6178990
  77.8195490  95.9820250  87.7206810  78.8906590  95.2768360  88.5252380
  83.4623800 100.6332070  86.6134120  83.4768340  99.7013030  86.3953030
  82.7548900 100.7191830  87.2523890  88.5960870  94.8171890  72.8832730
  88.5124590  95.2486110  72.0329170  89.3155060  95.2770240  73.3159550
  89.6735010  97.2739410  85.9602700  88.9483200  97.8668190  85.7632090
  90.2010470  97.2662950  85.1616070  89.6248120 101.6714150  75.6114860
  88.9824280 101.0169770  75.8858580  89.2378780 102.0769240  74.8355530
  85.2034600  98.9999580  79.4586550  85.5558420  98.4027710  78.7987920
  84.3196930  98.6743810  79.6294800  81.2897880  99.7597270  76.8656960
  81.9769010 100.3066480  77.2464550  80.5030300 100.3038000  76.9006570
  73.4290280  95.3770090  72.3574040  74.2985130  95.6594890  72.6409960
  72.9380600  96.1905960  72.2422850  80.5925090  96.7643300  76.4782320
  81.0487870  97.5748550  76.7042510  80.2413300  96.4466440  77.3100810
  82.8957700 102.2749640  83.7074620  83.5399920 102.4809020  84.3848040
  83.2587140 101.5138040  83.2545470  76.4936870  87.1080950  76.9504840
  76.3651500  87.0998850  77.8989760  75.6698890  87.4464040  76.5995850
  84.1689780 100.2781990  82.4252070  84.8112010  99.5775150  82.5384240
  84.6939130 101.0580430  82.2448960  88.0145500 100.5630610  72.1491210
  87.7883080  99.8461050  72.7415850  87.6241700 100.3143050  71.3112960
  85.9427400 101.0776890  85.6288130  86.2783640 101.6643580  86.3066050
  85.0227740 100.9469600  85.8585920  73.7961530 104.5897470  72.9235670
  74.1559170 105.1886810  72.2692940  73.6553870 105.1357360  73.6970700
  73.4930800  88.8672070  86.4111540  72.7789320  89.0668990  87.0164150
  73.9125840  88.0911640  86.7826340  87.5961750  98.4802550  73.8105370
  87.3083450  98.9415240  74.5983250  88.3913920  98.0200320  74.0789590
  73.7803390 102.8552330  87.3978070  73.8894510 101.9147070  87.2573460
  73.1283950 103.1207080  86.7491800  81.7715980 101.1268220  88.7976190
  81.4512850 100.4077460  89.3421880  81.0974340 101.8023290  88.8712250
  79.8130150 101.9728670  73.7409340  79.8040250 102.7058360  73.1253850
  78.8928510 101.7260250  73.8336300  75.4136790  97.1943560  74.4856100
  74.8064740  97.9342460  74.4951400  75.8886140  97.2842920  73.6594300
  84.9869580  91.3594380  84.1612990  85.3550400  90.5389590  84.4892560
  84.1267780  91.4196270  84.5768640  88.3531610  90.3151320  74.9700550
  87.7244770  90.4196990  74.2558780  87.8583530  90.5348100  75.7594430
  82.7989750 102.0356910  72.4034530  82.9001730 101.8320900  71.4736510
  81.8991490 101.7815190  72.6082310  80.3215640  92.5937270  76.3858430
  79.6131790  93.0623610  76.8272040  80.6060120  91.9359280  77.0203620
  81.9471570  94.0133970  84.3850960  82.4456820  94.4879790  85.0502810
  82.0894520  93.0897490  84.5920990  84.3531070  89.3187930  77.8254220
  84.2298850  89.3374060  76.8763730  85.3015630  89.3666870  77.9452620
  81.4407860 104.5543230  77.0982200  81.6949360 104.5164620  76.1761570
  80.4920340 104.4276560  77.0910450  78.5250660  90.9022350  73.7609140
  79.3741190  91.3392500  73.6949330  78.1581930  91.2142610  74.5881200
  89.1538430  90.2301930  85.2279350  88.6512030  90.9707330  85.5673160
  89.9695090  90.6185930  84.9116140  87.4460440  95.4735110  78.6740710
  86.5050580  95.4885340  78.8488400  87.7604510  94.6871070  79.1201010
  77.4242080  97.1554710  72.2344670  78.1905350  97.0436070  72.7970100
  77.5016770  96.4592680  71.5821440  76.1188840  94.5879780  72.9177560
  76.1992430  93.6407290  73.0294960  77.0108590  94.9186660  73.0238220
  89.4486020 102.6443960  80.3494970  89.5733440 103.4675130  80.8218780
  90.3151580 102.4334690  80.0019120  76.9203550 104.7375170  80.0212100
  77.6566030 104.1890630  80.2920670  77.3044470 105.6031180  79.8818090
  73.8049030 100.8048740  75.8953610  72.8788810 101.0469880  75.8859020
  74.2705460 101.6323000  75.7738360  75.9261830 103.9221240  89.2097680
  76.7274560 104.2433290  89.6233080  75.4113650 103.5616820  89.9317590
  80.0305860 103.9105480  71.8437670  80.8234470 104.1994310  71.3919460
  79.5110210 103.4797650  71.1650150  84.7626460 100.0301110  89.1573090
  84.1564620 100.0532710  88.4168840  84.4580570  99.2984150  89.6940340
  86.1926830 103.7581400  87.7682500  87.1448580 103.6739420  87.7182740
  86.0455050 104.4223110  88.4416290  89.0836030 103.1375610  73.2674410
  88.7977540 102.7240750  72.4528590  88.8855580 104.0663320  73.1474930
  73.6459640  96.4094700  88.1533730  74.1498660  95.8301980  88.7249960
  72.9067060  96.6934930  88.6910100  80.5483260  99.1308890  71.7080020
  80.4433900  98.5161240  72.4341400  80.3807480  98.6074780  70.9243030
  80.6997580  97.8165690  87.6869250  79.9343250  98.3850690  87.6023920
  80.8813540  97.5241900  86.7937480  83.7885990  98.1928920  72.3122010
  83.2396090  98.6398220  72.9564750  84.4105250  97.6878170  72.8359680
  87.8420930  99.5471020  88.2444270  88.5830400  99.8846780  87.7411730
  87.0793610  99.7163080  87.6914040  75.6782720  94.5524290  89.0483800
  75.7188060  94.2538160  89.9569030  76.5328220  94.9531900  88.8891320
  79.4561110  97.1519840  74.2087310  79.8777530  96.9859710  75.0518700
  79.5811950  96.3420070  73.7142450  77.6188530  93.1316390  87.0158290
  77.0884990  92.6407340  86.3881630  78.2876600  93.5600590  86.4816220
  81.9688750  96.1757450  71.4564410  82.4894410  95.4606470  71.0905560
  82.6157150  96.8143320  71.7564920  86.5166590  97.5985850  86.7799480
  86.9307610  97.7530930  87.6289900  85.5817590  97.7241070  86.9425260
  86.9888760  94.9382010  88.7838630  87.5709530  94.1834330  88.6959110
  87.1650530  95.4689450  88.0070110  78.1060830  90.0978760  87.0955580
  78.0117700  89.4799510  86.3706450  77.5258220  90.8245050  86.8685490
  80.8722270  88.6552000  84.1282970  80.4239570  88.6776260  83.2828520
  80.2387470  88.2571020  84.7253270  81.2781820  97.5506330  84.7495410
  81.6969930  98.3939060  84.5771650  80.3590450  97.6878370  84.5202190
  83.6145720  95.2822510  86.1333250  83.7341930  94.6863650  86.8728090
  84.4739720  95.3192200  85.7134550  85.9533620  95.8359700  84.7095760
  85.4268840  96.3602320  84.1060900  86.2964960  96.4687090  85.3405490
  78.3520010  93.2253070  71.1545470  78.1509070  92.3620430  71.5158810
  78.1812060  93.1386430  70.2167070  79.1289240 103.8559340  85.8653140
  78.5910330 104.5805400  85.5461840  79.3823200 103.3789680  85.0750480
  80.3814490  91.8243860  87.3909070  80.9714180  91.5159710  88.0786890
  79.5634730  91.3523610  87.5468970  85.2007920  91.4409670  87.6242090
  84.5123440  90.7791210  87.5592080  85.9213940  90.9947940  88.0690550
  85.8308320  88.0361300  73.6832350  86.1110610  87.1929200  74.0391770
  85.0574050  88.2684410  74.1971100  77.1502810  90.3253690  71.1423350
  77.4528710  90.3321120  70.2342500  77.8897400  89.9751550  71.6391010
  81.9851450 105.0910550  86.1239790  81.9110150 105.9945690  86.4312160
  81.0830290 104.7722450  86.0961860  80.3687740  89.2688310  72.1279550
  80.0209740  88.5912300  71.5482000  80.5700510  88.8077820  72.9422940
  82.5336780 104.2569060  73.7466150  83.4287570 104.5954030  73.7684910
  82.5654410 103.5348470  73.1190430  76.1732940  99.6296110  71.9753150
  76.6107810 100.1725780  72.6310730  76.6580670  98.8043060  71.9849490
  73.3878740 102.4185140  79.4273410  73.7181750 101.5506200  79.1952050
  73.8169740 102.6243660  80.2578370  77.9840660 100.7494150  77.0875380
  77.6836200 100.6259120  77.9879290  77.8778150  99.8902740  76.6791110
  73.8768950 103.2855730  82.1655040  73.4399940 103.4656530  82.9979190
  74.4446630 104.0430350  82.0236760  89.5131130 102.7872730  86.4532350
  88.9133120 102.8465290  85.7096270  89.6425030 101.8477710  86.5829200
  90.7532580 100.5290550  71.7902060  89.9225540 100.5967200  72.2609290
  90.9304410 101.4194670  71.4868920  90.2089040  97.2738030  74.2936260
  90.9707950  97.8434680  74.3995950  90.2243410  96.7065230  75.0644570
  73.7093380  95.7975960  78.5243920  73.0542220  95.5287600  77.8803620
  74.5471330  95.6880440  78.0745900  91.2149010  98.1288130  79.1378190
  91.5857840  97.3455450  78.7314160  91.8550940  98.8177230  78.9595490
  88.1982770  99.5124710  84.5508510  87.3842610  99.9421870  84.8134300
  88.6056970 100.1243120  83.9377560  90.2608210  97.5672400  71.4508780
  90.5357050  98.4751280  71.3228000  90.0718950  97.5034930  72.3870770
  86.6583820  90.5917250  72.7462410  87.0768700  90.4048230  71.9059070
  86.3519880  89.7396300  73.0565340  90.1573550  95.5041390  76.4438210
  89.7817150  94.7369320  76.0119500  89.4276670  95.8864090  76.9313140
  74.7469310  96.1828530  83.0647260  75.1142350  96.0955930  83.9443280
  74.1780130  95.4195080  82.9654120  89.5473170  94.6512910  86.0777730
  89.3159260  94.4225660  85.1775680  89.8077720  95.5712460  86.0322620
  74.2985310  93.0937620  86.9705680  73.4041360  93.0604380  87.3099390
  74.8382860  93.2924410  87.7356930  87.9861240  89.8769340  88.8557430
  88.8631420  89.8852740  89.2391430  87.9982080  89.1400180  88.2449780
  72.9231460  93.0074890  74.4669250  72.0195540  93.2705090  74.2920910
  73.4072080  93.2786060  73.6869210  89.4324510  93.7298880  79.7445450
  89.9561990  93.2361530  79.1135620  90.0183930  93.8649240  80.4893020
  89.6114230  93.8138750  83.2665000  88.6616940  93.7802290  83.3809990
  89.7927240  94.7238860  83.0314770  75.4658670  92.0640430  72.3763630
  76.1750370  91.6423650  71.8910910  74.7498610  92.1315660  71.7446980
  75.1132830  88.1179760  71.4166280  75.8360960  88.6588700  71.7347500
  75.3857350  87.8443180  70.5407820  88.9224480  92.9872230  75.6837860
  89.4183600  92.7543100  76.4686740  88.7240550  92.1484070  75.2675500
  74.8025020  87.3685950  81.3188900  75.4501210  86.8183330  80.8784060
  75.2226860  87.6229100  82.1404710  90.3511640  91.6233180  78.2175540
  90.2410920  91.4689220  79.1557810  91.1119230  91.0954120  77.9750950
  88.6977360  87.5627310  84.6758540  89.3349580  88.1761450  85.0417730
  88.8452250  87.5987970  83.7307770  91.2401910  89.4541100  71.4581680
  92.1651220  89.3222280  71.2499970  91.2177700  89.5333920  72.4118130
  91.3140400  90.2251760  74.0838390  90.5191900  90.1596880  74.6131300
  91.5183680  91.1602400  74.0723740  88.2558820 104.2643310  78.0776780
  88.8517890 103.9427880  77.4011200  88.5136970 103.7915130  78.8690050
  74.5557020  87.5241620  84.0614220  74.2071840  87.9805440  84.8272400
  74.2244720  86.6298750  84.1436650  76.1621390 100.6961220  88.2267410
  76.1191020 100.3254130  89.1081870  76.2932400 101.6338790  88.3669230
  79.8627420 102.2520810  83.8277130  79.6218780 102.5195370  82.9407650
  80.8030060 102.4226540  83.8827990  82.0681840  88.7153500  87.5833640
  82.0070730  89.3075330  88.3329050  83.0082220  88.6079460  87.4383900
  84.7056400  88.3723560  87.2225930  85.3196810  88.6902850  86.5607010
  85.2505960  87.8872150  87.8421790  91.1231580 104.2715190  84.6287770
  90.6289860 104.6684060  83.9114900  90.5144870 103.6464400  85.0225050
  75.2277660  87.0517820  87.3364990  75.7760650  86.8705870  86.5731100
  75.2932970  86.2611930  87.8721300  76.0009420 103.6423470  85.3465190
  75.4069740 103.5108170  86.0855230  75.9933260 102.8061610  84.8807290
  85.4464440  86.9355700  83.5495220  84.5724280  87.2690810  83.3468150
  85.3375190  86.4628880  84.3747090  86.3536420  89.1426570  84.9336940
  86.0249780  88.3278330  84.5538670  87.3018720  89.0996380  84.8102630
  88.8071030 104.9138610  81.9074510  88.3474000 105.6654420  81.5332530
  88.1783490 104.1945080  81.8489310  75.6321650 101.0081850  84.2973230
  74.9055710 100.3887140  84.2299180  75.6930800 101.4022460  83.4271310
  79.2366750 103.2226850  81.0822640  79.7531770 102.6114210  80.5570900
  79.8864130 103.7255630  81.5733650  81.9762250 104.1135340  81.9091620
  82.2640060 103.8589640  81.0324630  82.4885470 103.5612700  82.4997190
  83.1939260  87.8525540  82.4888130  82.4111050  88.3271040  82.7684890
  82.9002190  86.9480370  82.3801310  87.7460330  88.5548640  80.5337220
  88.1868420  88.4993740  79.6858820  87.4767920  89.4706650  80.6047400
  89.6098900  88.1863880  78.5446040  89.5487300  87.2425100  78.3977060
  90.3890930  88.2943970  79.0899500  73.9151650 104.3256240  77.5069990
  73.7473690 103.6926920  78.2051880  73.0486160 104.5315640  77.1564180
  74.5379670  88.1573020  75.0101850  75.2959030  88.2701900  74.4365880
  74.0756840  88.9942220  74.9645280  81.0793480  90.2712290  78.0004160
  80.2667990  89.8969180  77.6600040  81.5835120  89.5157370  78.3025350
  85.5818460  86.9354740  79.2387230  86.1847830  87.5074950  79.7135750
  84.8411450  87.4994180  79.0161130  88.7253060  87.3376300  74.5127510
  88.9203690  88.2359750  74.7794940  87.9382930  87.1063380  75.0060460
  75.5214350 103.0189470  74.9520130  74.9961970 103.3997500  74.2482090
  75.4458930 103.6440240  75.6729840  76.9104820  88.6837070  73.5503820
  77.4397580  87.8966870  73.4211770  77.5433140  89.3628260  73.7839350
  79.1042660  88.4212210  76.6049210  78.4745400  87.7199520  76.7719340
  78.5647800  89.1816340  76.3882370  82.0434610 105.0351440  89.2759820
  82.9701920 104.7995710  89.3195780  82.0285040 105.8623440  88.7945850
  90.2779670 104.5777010  76.2734070  90.4531860 103.8914750  75.6294990
  89.5801240 105.1024060  75.8810740  79.2298220  87.6996190  89.0401700
  78.9482490  88.2029790  88.2762520  79.6117920  86.9017940  88.6743830
  78.1207320 104.9671850  73.8269380  78.8526140 104.6831130  73.2793270
  78.3800990 104.7285130  74.7168760  77.2822110 101.0836580  73.8315710
  76.6530990 101.5521680  74.3801540  77.3969940 100.2385800  74.2661900
  85.8313680  87.1149770  89.6182170  85.7179130  87.4344380  90.5133690
  86.6483420  87.5162280  89.3219450  88.6112170 104.2621300  89.1000860
  89.4037490 103.7670530  88.8926820  88.9045320 104.9411440  89.7076470
  84.7371830  95.1342240  59.9816910  84.6565880  94.2196850  59.7108620
  84.3236250  95.6309310  59.2756620  82.8689870  96.9121260  61.8626180
  82.0931970  96.4321700  62.1524750  83.5202800  96.2326910  61.6882340
  76.8855700  97.2241070  62.7401940  76.0540580  96.9689780  63.1398450
  77.4936680  97.2951840  63.4759860  86.8897300 101.3181450  60.6425310
  86.4278830 100.5468690  60.9712480  87.7022850 101.3447520  61.1477760
  76.8656960 101.2581160  62.9359960  77.1685000 100.3678900  62.7570180
  77.6100550 101.8151380  62.7082210  75.2947650  92.1842960  56.5244330
  74.4064350  92.5258930  56.4224210  75.5788840  91.9843280  55.6325160
  73.2580660  94.7848610  62.4084030  73.8296770  94.0170810  62.4087670
  73.2582200  95.0837370  61.4990640  83.1160610 103.6039460  60.2629300
  82.4972050 104.0596960  59.6923740  83.9712390 103.7590920  59.8619000
  82.3098860  99.5878450  61.8696340  82.2407140  98.6468390  61.7085470
  83.0718720  99.6779860  62.4418910  74.5005530  90.1932970  64.1952960
  74.3208370  89.2958720  64.4755720  74.0985610  90.7404840  64.8699910
  83.3404030  92.3948830  62.0965270  83.7168850  91.5220710  61.9838940
  83.2423540  92.7307530  61.2055710  77.4709040  90.7674460  57.5582710
  77.5775790  91.6678190  57.8651470  76.5601400  90.7192430  57.2677360
  87.1228150  89.8899270  59.0293610  87.9437770  89.3995840  59.0719090
  87.1562230  90.4796930  59.7825450  75.1192200  92.6893470  62.8035300
  75.8002310  92.9531840  63.4222700  74.8040250  91.8494340  63.1373310
  79.3116770  93.7360830  61.8907890  79.8194990  94.2341800  62.5312910
  79.8430010  92.9596030  61.7147250  91.4127700  91.9066020  65.5937240
  90.7079870  92.2947730  65.0752350  91.6785620  92.6016310  66.1958170
  77.5952870  88.3759390  66.1571310  77.5971310  88.8931780  65.3517210
  76.7657180  87.8989570  66.1341240  83.9823960  98.4878700  57.6561210
  83.3641230  98.9528150  57.0923930  84.4947210  99.1806180  58.0730720
  78.8455720  98.0154570  64.3344810  78.5125100  98.6423490  64.9765880
  79.0222400  98.5416450  63.5546480  87.3589630  91.8299650  61.8021150
  86.6545200  92.1184540  62.3824260  87.7201790  92.6399760  61.4420710
  77.2768200  90.0869350  64.1641760  77.6185010  90.9311400  63.8695630
  76.3384010  90.2353090  64.2807100  78.0574820  99.9835370  66.1493990
  78.6748820 100.6586450  65.8678440  77.1967940 100.3923350  66.0581490
  73.3507160  99.1735230  55.0300840  72.9735140  99.6622330  54.2985740
  73.6080230  99.8460510  55.6607370  88.9752410 101.4474780  64.0648630
  88.2915930 102.1173890  64.0565300  89.5146700 101.6455430  63.2993490
  90.4276550  91.2754440  62.1930360  89.4801460  91.3093420  62.3245790
  90.7526540  92.0893390  62.5779720  80.9596090  87.5751620  60.4886350
  81.2671070  87.0198510  59.7721850  80.0296790  87.7096080  60.3059340
  86.5111150 103.2918910  62.7793810  86.5238310 102.8881200  61.9116070
  85.9586370 104.0666200  62.6755240  87.8056570 100.0135130  57.8683980
  87.6952900  99.0709460  57.9933400  87.8024820 100.3750770  58.7546740
  85.9096590  98.1948750  64.1076420  86.3265380  97.9808860  63.2729880
  86.6336410  98.4521540  64.6785040  83.3476850  95.6400450  57.2246470
  82.4206130  95.5737830  57.4534940  83.5001670  96.5780580  57.1101710
  83.3345930  91.9117450  54.2213630  82.3949600  92.0731410  54.3066090
  83.6529190  92.6303130  53.6749620  89.8558690  96.5935970  64.1992660
  89.0277320  96.6629060  63.7242790  90.4509170  97.1790280  63.7308490
  87.3774140  97.2020750  57.7281720  86.7586560  96.8640300  57.0808020
  87.3598590  96.5580510  58.4360910  86.8200700  93.3805290  65.1447530
  86.4071880  94.2059000  65.3987520  86.0876650  92.7950330  64.9523890
  78.9533490  96.1665190  60.0066200  78.5490490  95.4542440  59.5112100
  79.0396610  95.8218430  60.8954240  79.4215190  99.8532750  62.1705410
  79.1243480  99.2478220  61.4913190  80.3715010  99.8910060  62.0594770
  77.6662110  92.9408400  63.7865240  78.2176700  93.0503740  63.0118490
  78.1805620  93.3146000  64.5020470  87.5100800 103.4264620  65.8328510
  87.0331360 104.2336810  65.6401120  86.8262590 102.7742950  65.9854720
  78.5133620  99.5914440  68.8213210  77.6162150  99.8154410  69.0686610
  78.5386490  99.7149380  67.8724610  85.5538840  96.4407560  54.7354470
  85.9932120  95.6029990  54.5892290  86.2667260  97.0736960  54.8218610
  77.3404840  96.4627760  67.3970580  77.2012610  97.3350560  67.7657980
  76.4586200  96.1200570  67.2518520  83.6634220 101.3803630  58.7035710
  84.1030130 102.1227960  58.2891100  83.6021110 101.6230200  59.6274670
  79.1385190 102.4049460  69.6055730  79.1100620 102.8092410  68.7384160
  78.9750160 101.4759820  69.4427330  89.1355980  87.6950370  53.0495510
  88.8228640  87.7877200  53.9494580  89.8968450  88.2731400  52.9992940
  75.6538120  95.0610170  57.5072850  75.5335720  95.7872260  56.8954120
  75.3439010  94.2913080  57.0300760  91.0900010 103.1876560  70.9019900
  91.5659730 103.6659450  71.5808980  91.7107170 103.1194050  70.1765400
  73.2923490  98.2325310  63.3141490  73.3703910  98.3674080  62.3697210
  73.9065170  97.5241200  63.5069610  74.5371120  99.9325500  59.7247670
  74.1299200 100.0740090  58.8701270  75.4284130  99.6485660  59.5218880
  90.4933260 100.3789410  68.0619910  90.6196320 100.1401290  67.1437090
  90.5354640  99.5473950  68.5341990  84.3550000 104.0817410  66.6314720
  84.8694670 103.9925420  67.4337150  83.5119080 104.4277110  66.9242630
  86.3304400 104.3672750  56.0598720  86.1705540 104.0775690  56.9580550
  86.1651110 103.5912880  55.5243950  78.8092780 104.1471280  57.8370340
  78.6335260 103.2306820  57.6238140  77.9548520 104.5058570  58.0768140
  86.0330530 101.8760310  54.6196720  85.3395690 101.8737600  53.9599000
  86.7753390 101.4519630  54.1890890  85.5980460 103.5023020  58.6945210
  86.0537410 102.7212400  59.0083830  85.9372980 104.2129840  59.2386390
  90.3457270  92.4321870  69.0269650  89.7301540  92.9401540  68.4985110
  90.0253690  91.5320200  68.9695590  73.3483010  99.2739480  65.8535950
  73.5114050  98.8044840  65.0355320  73.8135460  98.7663040  66.5184790
  78.1201780  88.4045240  60.8896520  77.6769930  89.1854780  60.5581040
  78.6786770  88.7275130  61.5967460  82.4071590  91.2713760  66.4931840
  81.9450960  91.4796780  67.3051780  82.0049700  90.4573110  66.1902510
  87.4076100  92.4922710  67.6228500  86.5569690  92.1928460  67.9437570
  87.2477890  92.7364720  66.7112320  84.5025810  93.9924460  69.7227290
  84.8279220  93.1588210  69.3829520  85.2906140  94.5152980  69.8705620
  81.2360600  88.0255940  55.7702350  80.6114780  88.0215810  56.4955660
  81.1490720  87.1586900  55.3738320  80.1577680  88.9492570  62.7486120
  80.4550010  89.8555400  62.6678140  80.7063240  88.4611350  62.1345690
  77.9116000  93.5278810  58.6177770  77.6856920  93.3115980  59.5224390
  77.1308530  93.9607270  58.2723740  85.1413760  93.5342180  57.2168420
  84.5422650  94.2577980  57.0332040  85.6893370  93.4718960  56.4344870
  80.3515210  94.4264390  69.2838040  80.2558810  93.4859120  69.1338440
  81.1947190  94.6479460  68.8886110  83.7478630  92.1705720  59.2471700
  84.1408200  92.4877920  58.4340390  84.1095480  91.2917600  59.3616220
  75.4825750  90.8378060  67.4371820  75.0889140  91.6853270  67.6444600
  74.7944150  90.2004430  67.6280460  82.0570800  90.9213030  70.5068560
  81.3669120  90.7285230  71.1414650  82.8003100  91.2047670  71.0392860
  72.9713030  92.7026640  52.6804620  72.8887700  93.6457400  52.8219610
  72.6196090  92.5601550  51.8016970  84.3333770  94.7611470  63.3422480
  83.6014890  95.2698280  63.6912580  83.9358110  93.9441450  63.0411260
  80.7711160  91.4365670  61.7474970  80.7747220  90.9955620  60.8979510
  81.6662280  91.7583000  61.8546790  76.6213540  91.3192160  60.7069180
  76.2813590  91.7967390  61.4636230  75.8590860  90.8657280  60.3470280
  80.8331310  92.4377750  54.7381730  80.9544130  92.3964230  55.6867550
  80.4479820  93.3001900  54.5828460  84.7959680  90.2145150  62.7545420
  84.8132420  90.6653800  63.5987270  84.5475260  89.3150790  62.9678860
  79.8452810  94.7478890  54.1365030  79.2769710  94.2997140  53.5100940
  80.5541810  95.1071670  53.6030180  88.2230430  87.6277330  68.5931800
  88.5476200  86.8966990  69.1189780  88.2586940  87.3090970  67.6912790
  74.9221990  98.6490910  68.0131760  74.5376780  98.0084580  68.6114720
  75.2334180  99.3527030  68.5826490  81.0719130  95.4967450  63.4940380
  81.4389260  95.0226020  64.2401720  80.8824190  96.3709020  63.8348720
  73.9359620  90.2411140  59.6233850  73.6506540  89.8766810  60.4612470
  73.8738480  89.5091600  59.0096990  78.8618500  94.5376090  65.8124590
  78.5575570  95.4168070  66.0374950  79.8164960  94.5975880  65.8482030
  77.3900290  98.7437080  56.4091440  76.6162550  98.2034700  56.2490160
  78.1194920  98.2243690  56.0709200  88.1488270  97.7402440  62.2017830
  88.8687390  98.2357730  61.8113940  87.9470090  97.0620330  61.5571700
  83.6098210  89.1340400  56.3447220  82.7962820  88.6353570  56.2692530
  83.4160160  89.9738650  55.9283570  83.5307070  97.8111500  68.0886830
  83.4644380  96.8907170  67.8344420  82.9012210  97.9086940  68.8031470
  86.3246600  93.5060050  54.6409380  87.2126220  93.8177280  54.4660720
  86.2951690  92.6332300  54.2489960  77.4337690  98.4117460  60.0470250
  77.9516360  97.6085720  59.9927140  76.9821710  98.3496600  60.8887080
  82.3207190  99.6783740  55.3197550  82.6622890 100.4225970  54.8240870
  81.4919900  99.9914860  55.6822380  74.9182230  95.3778830  66.9595950
  74.5597170  96.0432680  67.5469290  74.6236790  94.5462380  67.3308570
  78.1195350  95.8363070  69.8435500  77.8195490  95.9820250  68.9463320
  78.8906590  95.2768360  69.7508890  83.4623800 100.6332070  67.8390630
  83.4768340  99.7013030  67.6209540  82.7548900 100.7191830  68.4780400
  88.5960870  94.8171890  54.1089240  88.5124590  95.2486110  53.2585680
  89.3155060  95.2770240  54.5416060  89.6735010  97.2739410  67.1859210
  88.9483200  97.8668190  66.9888600  90.2010470  97.2662950  66.3872580
  89.6248120 101.6714150  56.8371370  88.9824280 101.0169770  57.1115090
  89.2378780 102.0769240  56.0612040  85.2034600  98.9999580  60.6843060
  85.5558420  98.4027710  60.0244430  84.3196930  98.6743810  60.8551310
  81.2897880  99.7597270  58.0913470  81.9769010 100.3066480  58.4721060
  80.5030300 100.3038000  58.1263080  73.4290280  95.3770090  53.5830550
  74.2985130  95.6594890  53.8666470  72.9380600  96.1905960  53.4679360
  80.5925090  96.7643300  57.7038830  81.0487870  97.5748550  57.9299020
  80.2413300  96.4466440  58.5357320  82.8957700 102.2749640  64.9331130
  83.5399920 102.4809020  65.6104550  83.2587140 101.5138040  64.4801980
  76.4936870  87.1080950  58.1761350  76.3651500  87.0998850  59.1246270
  75.6698890  87.4464040  57.8252360  84.1689780 100.2781990  63.6508580
  84.8112010  99.5775150  63.7640750  84.6939130 101.0580430  63.4705470
  88.0145500 100.5630610  53.3747720  87.7883080  99.8461050  53.9672360
  87.6241700 100.3143050  52.5369470  85.9427400 101.0776890  66.8544640
  86.2783640 101.6643580  67.5322560  85.0227740 100.9469600  67.0842430
  73.7961530 104.5897470  54.1492180  74.1559170 105.1886810  53.4949450
  73.6553870 105.1357360  54.9227210  73.4930800  88.8672070  67.6368050
  72.7789320  89.0668990  68.2420660  73.9125840  88.0911640  68.0082850
  87.5961750  98.4802550  55.0361880  87.3083450  98.9415240  55.8239760
  88.3913920  98.0200320  55.3046100  73.7803390 102.8552330  68.6234580
  73.8894510 101.9147070  68.4829970  73.1283950 103.1207080  67.9748310
  81.7715980 101.1268220  70.0232700  81.4512850 100.4077460  70.5678390
  81.0974340 101.8023290  70.0968760  79.8130150 101.9728670  54.9665850
  79.8040250 102.7058360  54.3510360  78.8928510 101.7260250  55.0592810
  75.4136790  97.1943560  55.7112610  74.8064740  97.9342460  55.7207910
  75.8886140  97.2842920  54.8850810  84.9869580  91.3594380  65.3869500
  85.3550400  90.5389590  65.7149070  84.1267780  91.4196270  65.8025150
  88.3531610  90.3151320  56.1957060  87.7244770  90.4196990  55.4815290
  87.8583530  90.5348100  56.9850940  82.7989750 102.0356910  53.6291040
  82.9001730 101.8320900  52.6993020  81.8991490 101.7815190  53.8338820
  80.3215640  92.5937270  57.6114940  79.6131790  93.0623610  58.0528550
  80.6060120  91.9359280  58.2460130  81.9471570  94.0133970  65.6107470
  82.4456820  94.4879790  66.2759320  82.0894520  93.0897490  65.8177500
  84.3531070  89.3187930  59.0510730  84.2298850  89.3374060  58.1020240
  85.3015630  89.3666870  59.1709130  81.4407860 104.5543230  58.3238710
  81.6949360 104.5164620  57.4018080  80.4920340 104.4276560  58.3166960
  78.5250660  90.9022350  54.9865650  79.3741190  91.3392500  54.9205840
  78.1581930  91.2142610  55.8137710  89.1538430  90.2301930  66.4535860
  88.6512030  90.9707330  66.7929670  89.9695090  90.6185930  66.1372650
  87.4460440  95.4735110  59.8997220  86.5050580  95.4885340  60.0744910
  87.7604510  94.6871070  60.3457520  77.4242080  97.1554710  53.4601180
  78.1905350  97.0436070  54.0226610  77.5016770  96.4592680  52.8077950
  76.1188840  94.5879780  54.1434070  76.1992430  93.6407290  54.2551470
  77.0108590  94.9186660  54.2494730  89.4486020 102.6443960  61.5751480
  89.5733440 103.4675130  62.0475290  90.3151580 102.4334690  61.2275630
  76.9203550 104.7375170  61.2468610  77.6566030 104.1890630  61.5177180
  77.3044470 105.6031180  61.1074600  73.8049030 100.8048740  57.1210120
  72.8788810 101.0469880  57.1115530  74.2705460 101.6323000  56.9994870
  75.9261830 103.9221240  70.4354190  76.7274560 104.2433290  70.8489590
  75.4113650 103.5616820  71.1574100  80.0305860 103.9105480  53.0694180
  80.8234470 104.1994310  52.6175970  79.5110210 103.4797650  52.3906660
  84.7626460 100.0301110  70.3829600  84.1564620 100.0532710  69.6425350
  84.4580570  99.2984150  70.9196850  86.1926830 103.7581400  68.9939010
  87.1448580 103.6739420  68.9439250  86.0455050 104.4223110  69.6672800
  89.0836030 103.1375610  54.4930920  88.7977540 102.7240750  53.6785100
  88.8855580 104.0663320  54.3731440  73.6459640  96.4094700  69.3790240
  74.1498660  95.8301980  69.9506470  72.9067060  96.6934930  69.9166610
  80.5483260  99.1308890  52.9336530  80.4433900  98.5161240  53.6597910
  80.3807480  98.6074780  52.1499540  80.6997580  97.8165690  68.9125760
  79.9343250  98.3850690  68.8280430  80.8813540  97.5241900  68.0193990
  83.7885990  98.1928920  53.5378520  83.2396090  98.6398220  54.1821260
  84.4105250  97.6878170  54.0616190  87.8420930  99.5471020  69.4700780
  88.5830400  99.8846780  68.9668240  87.0793610  99.7163080  68.9170550
  75.6782720  94.5524290  70.2740310  75.7188060  94.2538160  71.1825540
  76.5328220  94.9531900  70.1147830  79.4561110  97.1519840  55.4343820
  79.8777530  96.9859710  56.2775210  79.5811950  96.3420070  54.9398960
  77.6188530  93.1316390  68.2414800  77.0884990  92.6407340  67.6138140
  78.2876600  93.5600590  67.7072730  81.9688750  96.1757450  52.6820920
  82.4894410  95.4606470  52.3162070  82.6157150  96.8143320  52.9821430
  86.5166590  97.5985850  68.0055990  86.9307610  97.7530930  68.8546410
  85.5817590  97.7241070  68.1681770  86.9888760  94.9382010  70.0095140
  87.5709530  94.1834330  69.9215620  87.1650530  95.4689450  69.2326620
  78.1060830  90.0978760  68.3212090  78.0117700  89.4799510  67.5962960
  77.5258220  90.8245050  68.0942000  80.8722270  88.6552000  65.3539480
  80.4239570  88.6776260  64.5085030  80.2387470  88.2571020  65.9509780
  81.2781820  97.5506330  65.9751920  81.6969930  98.3939060  65.8028160
  80.3590450  97.6878370  65.7458700  83.6145720  95.2822510  67.3589760
  83.7341930  94.6863650  68.0984600  84.4739720  95.3192200  66.9391060
  85.9533620  95.8359700  65.9352270  85.4268840  96.3602320  65.3317410
  86.2964960  96.4687090  66.5662000  78.3520010  93.2253070  52.3801980
  78.1509070  92.3620430  52.7415320  78.1812060  93.1386430  51.4423580
  79.1289240 103.8559340  67.0909650  78.5910330 104.5805400  66.7718350
  79.3823200 103.3789680  66.3006990  80.3814490  91.8243860  68.6165580
  80.9714180  91.5159710  69.3043400  79.5634730  91.3523610  68.7725480
  85.2007920  91.4409670  68.8498600  84.5123440  90.7791210  68.7848590
  85.9213940  90.9947940  69.2947060  85.8308320  88.0361300  54.9088860
  86.1110610  87.1929200  55.2648280  85.0574050  88.2684410  55.4227610
  77.1502810  90.3253690  52.3679860  77.4528710  90.3321120  51.4599010
  77.8897400  89.9751550  52.8647520  81.9851450 105.0910550  67.3496300
  81.9110150 105.9945690  67.6568670  81.0830290 104.7722450  67.3218370
  80.3687740  89.2688310  53.3536060  80.0209740  88.5912300  52.7738510
  80.5700510  88.8077820  54.1679450  82.5336780 104.2569060  54.9722660
  83.4287570 104.5954030  54.9941420  82.5654410 103.5348470  54.3446940
  76.1732940  99.6296110  53.2009660  76.6107810 100.1725780  53.8567240
  76.6580670  98.8043060  53.2106000  73.3878740 102.4185140  60.6529920
  73.7181750 101.5506200  60.4208560  73.8169740 102.6243660  61.4834880
  77.9840660 100.7494150  58.3131890  77.6836200 100.6259120  59.2135800
  77.8778150  99.8902740  57.9047620  73.8768950 103.2855730  63.3911550
  73.4399940 103.4656530  64.2235700  74.4446630 104.0430350  63.2493270
  89.5131130 102.7872730  67.6788860  88.9133120 102.8465290  66.9352780
  89.6425030 101.8477710  67.8085710  90.7532580 100.5290550  53.0158570
  89.9225540 100.5967200  53.4865800  90.9304410 101.4194670  52.7125430
  90.2089040  97.2738030  55.5192770  90.9707950  97.8434680  55.6252460
  90.2243410  96.7065230  56.2901080  73.7093380  95.7975960  59.7500430
  73.0542220  95.5287600  59.1060130  74.5471330  95.6880440  59.3002410
  91.2149010  98.1288130  60.3634700  91.5857840  97.3455450  59.9570670
  91.8550940  98.8177230  60.1852000  88.1982770  99.5124710  65.7765020
  87.3842610  99.9421870  66.0390810  88.6056970 100.1243120  65.1634070
  90.2608210  97.5672400  52.6765290  90.5357050  98.4751280  52.5484510
  90.0718950  97.5034930  53.6127280  86.6583820  90.5917250  53.9718920
  87.0768700  90.4048230  53.1315580  86.3519880  89.7396300  54.2821850
  90.1573550  95.5041390  57.6694720  89.7817150  94.7369320  57.2376010
  89.4276670  95.8864090  58.1569650  74.7469310  96.1828530  64.2903770
  75.1142350  96.0955930  65.1699790  74.1780130  95.4195080  64.1910630
  89.5473170  94.6512910  67.3034240  89.3159260  94.4225660  66.4032190
  89.8077720  95.5712460  67.2579130  74.2985310  93.0937620  68.1962190
  73.4041360  93.0604380  68.5355900  74.8382860  93.2924410  68.9613440
  87.9861240  89.8769340  70.0813940  88.8631420  89.8852740  70.4647940
  87.9982080  89.1400180  69.4706290  72.9231460  93.0074890  55.6925760
  72.0195540  93.2705090  55.5177420  73.4072080  93.2786060  54.9125720
  89.4324510  93.7298880  60.9701960  89.9561990  93.2361530  60.3392130
  90.0183930  93.8649240  61.7149530  89.6114230  93.8138750  64.4921510
  88.6616940  93.7802290  64.6066500  89.7927240  94.7238860  64.2571280
  75.4658670  92.0640430  53.6020140  76.1750370  91.6423650  53.1167420
  74.7498610  92.1315660  52.9703490  75.1132830  88.1179760  52.6422790
  75.8360960  88.6588700  52.9604010  75.3857350  87.8443180  51.7664330
  88.9224480  92.9872230  56.9094370  89.4183600  92.7543100  57.6943250
  88.7240550  92.1484070  56.4932010  90.3511640  91.6233180  59.4432050
  90.2410920  91.4689220  60.3814320  91.1119230  91.0954120  59.2007460
  88.6977360  87.5627310  65.9015050  89.3349580  88.1761450  66.2674240
  88.8452250  87.5987970  64.9564280  91.2401910  89.4541100  52.6838190
  92.1651220  89.3222280  52.4756480  91.2177700  89.5333920  53.6374640
  91.3140400  90.2251760  55.3094900  90.5191900  90.1596880  55.8387810
  91.5183680  91.1602400  55.2980250  88.2558820 104.2643310  59.3033290
  88.8517890 103.9427880  58.6267710  88.5136970 103.7915130  60.0946560
  76.1621390 100.6961220  69.4523920  76.1191020 100.3254130  70.3338380
  76.2932400 101.6338790  69.5925740  79.8627420 102.2520810  65.0533640
  79.6218780 102.5195370  64.1664160  80.8030060 102.4226540  65.1084500
  82.0681840  88.7153500  68.8090150  82.0070730  89.3075330  69.5585560
  83.0082220  88.6079460  68.6640410  84.7056400  88.3723560  68.4482440
  85.3196810  88.6902850  67.7863520  85.2505960  87.8872150  69.0678300
  91.1231580 104.2715190  65.8544280  90.6289860 104.6684060  65.1371410
  90.5144870 103.6464400  66.2481560  75.2277660  87.0517820  68.5621500
  75.7760650  86.8705870  67.7987610  75.2932970  86.2611930  69.0977810
  76.0009420 103.6423470  66.5721700  75.4069740 103.5108170  67.3111740
  75.9933260 102.8061610  66.1063800  85.4464440  86.9355700  64.7751730
  84.5724280  87.2690810  64.5724660  85.3375190  86.4628880  65.6003600
  86.3536420  89.1426570  66.1593450  86.0249780  88.3278330  65.7795180
  87.3018720  89.0996380  66.0359140  88.8071030 104.9138610  63.1331020
  88.3474000 105.6654420  62.7589040  88.1783490 104.1945080  63.0745820
  75.6321650 101.0081850  65.5229740  74.9055710 100.3887140  65.4555690
  75.6930800 101.4022460  64.6527820  79.2366750 103.2226850  62.3079150
  79.7531770 102.6114210  61.7827410  79.8864130 103.7255630  62.7990160
  81.9762250 104.1135340  63.1348130  82.2640060 103.8589640  62.2581140
  82.4885470 103.5612700  63.7253700  83.1939260  87.8525540  63.7144640
  82.4111050  88.3271040  63.9941400  82.9002190  86.9480370  63.6057820
  87.7460330  88.5548640  61.7593730  88.1868420  88.4993740  60.9115330
  87.4767920  89.4706650  61.8303910  89.6098900  88.1863880  59.7702550
  89.5487300  87.2425100  59.6233570  90.3890930  88.2943970  60.3156010
  73.9151650 104.3256240  58.7326500  73.7473690 103.6926920  59.4308390
  73.0486160 104.5315640  58.3820690  74.5379670  88.1573020  56.2358360
  75.2959030  88.2701900  55.6622390  74.0756840  88.9942220  56.1901790
  81.0793480  90.2712290  59.2260670  80.2667990  89.8969180  58.8856550
  81.5835120  89.5157370  59.5281860  85.5818460  86.9354740  60.4643740
  86.1847830  87.5074950  60.9392260  84.8411450  87.4994180  60.2417640
  88.7253060  87.3376300  55.7384020  88.9203690  88.2359750  56.0051450
  87.9382930  87.1063380  56.2316970  75.5214350 103.0189470  56.1776640
  74.9961970 103.3997500  55.4738600  75.4458930 103.6440240  56.8986350
  76.9104820  88.6837070  54.7760330  77.4397580  87.8966870  54.6468280
  77.5433140  89.3628260  55.0095860  79.1042660  88.4212210  57.8305720
  78.4745400  87.7199520  57.9975850  78.5647800  89.1816340  57.6138880
  82.0434610 105.0351440  70.5016330  82.9701920 104.7995710  70.5452290
  82.0285040 105.8623440  70.0202360  90.2779670 104.5777010  57.4990580
  90.4531860 103.8914750  56.8551500  89.5801240 105.1024060  57.1067250
  79.2298220  87.6996190  70.2658210  78.9482490  88.2029790  69.5019030
  79.6117920  86.9017940  69.9000340  78.1207320 104.9671850  55.0525890
  78.8526140 104.6831130  54.5049780  78.3800990 104.7285130  55.9425270
  77.2822110 101.0836580  55.0572220  76.6530990 101.5521680  55.6058050
  77.3969940 100.2385800  55.4918410  85.8313680  87.1149770  70.8438680
  85.7179130  87.4344380  71.7390200  86.6483420  87.5162280  70.5475960
  88.6112170 104.2621300  70.3257370  89.4037490 103.7670530  70.1183330
  88.9045320 104.9411440  70.9332980  84.7371830  95.1342240  41.2073420
  84.6565880  94.2196850  40.9365130  84.3236250  95.6309310  40.5013130
  82.8689870  96.9121260  43.0882690  82.0931970  96.4321700  43.3781260
  83.5202800  96.2326910  42.9138850  76.8855700  97.2241070  43.9658450
  76.0540580  96.9689780  44.3654960  77.4936680  97.2951840  44.7016370
  86.8897300 101.3181450  41.8681820  86.4278830 100.5468690  42.1968990
  87.7022850 101.3447520  42.3734270  76.8656960 101.2581160  44.1616470
  77.1685000 100.3678900  43.9826690  77.6100550 101.8151380  43.9338720
  75.2947650  92.1842960  37.7500840  74.4064350  92.5258930  37.6480720
  75.5788840  91.9843280  36.8581670  73.2580660  94.7848610  43.6340540
  73.8296770  94.0170810  43.6344180  73.2582200  95.0837370  42.7247150
  83.1160610 103.6039460  41.4885810  82.4972050 104.0596960  40.9180250
  83.9712390 103.7590920  41.0875510  82.3098860  99.5878450  43.0952850
  82.2407140  98.6468390  42.9341980  83.0718720  99.6779860  43.6675420
  74.5005530  90.1932970  45.4209470  74.3208370  89.2958720  45.7012230
  74.0985610  90.7404840  46.0956420  83.3404030  92.3948830  43.3221780
  83.7168850  91.5220710  43.2095450  83.2423540  92.7307530  42.4312220
  77.4709040  90.7674460  38.7839220  77.5775790  91.6678190  39.0907980
  76.5601400  90.7192430  38.4933870  87.1228150  89.8899270  40.2550120
  87.9437770  89.3995840  40.2975600  87.1562230  90.4796930  41.0081960
  75.1192200  92.6893470  44.0291810  75.8002310  92.9531840  44.6479210
  74.8040250  91.8494340  44.3629820  79.3116770  93.7360830  43.1164400
  79.8194990  94.2341800  43.7569420  79.8430010  92.9596030  42.9403760
  91.4127700  91.9066020  46.8193750  90.7079870  92.2947730  46.3008860
  91.6785620  92.6016310  47.4214680  77.5952870  88.3759390  47.3827820
  77.5971310  88.8931780  46.5773720  76.7657180  87.8989570  47.3597750
  83.9823960  98.4878700  38.8817720  83.3641230  98.9528150  38.3180440
  84.4947210  99.1806180  39.2987230  78.8455720  98.0154570  45.5601320
  78.5125100  98.6423490  46.2022390  79.0222400  98.5416450  44.7802990
  87.3589630  91.8299650  43.0277660  86.6545200  92.1184540  43.6080770
  87.7201790  92.6399760  42.6677220  77.2768200  90.0869350  45.3898270
  77.6185010  90.9311400  45.0952140  76.3384010  90.2353090  45.5063610
  78.0574820  99.9835370  47.3750500  78.6748820 100.6586450  47.0934950
  77.1967940 100.3923350  47.2838000  73.3507160  99.1735230  36.2557350
  72.9735140  99.6622330  35.5242250  73.6080230  99.8460510  36.8863880
  88.9752410 101.4474780  45.2905140  88.2915930 102.1173890  45.2821810
  89.5146700 101.6455430  44.5250000  90.4276550  91.2754440  43.4186870
  89.4801460  91.3093420  43.5502300  90.7526540  92.0893390  43.8036230
  86.5111150 103.2918910  44.0050320  86.5238310 102.8881200  43.1372580
  85.9586370 104.0666200  43.9011750  87.8056570 100.0135130  39.0940490
  87.6952900  99.0709460  39.2189910  87.8024820 100.3750770  39.9803250
  85.9096590  98.1948750  45.3332930  86.3265380  97.9808860  44.4986390
  86.6336410  98.4521540  45.9041550  83.3476850  95.6400450  38.4502980
  82.4206130  95.5737830  38.6791450  83.5001670  96.5780580  38.3358220
  83.3345930  91.9117450  35.4470140  82.3949600  92.0731410  35.5322600
  83.6529190  92.6303130  34.9006130  89.8558690  96.5935970  45.4249170
  89.0277320  96.6629060  44.9499300  90.4509170  97.1790280  44.9565000
  87.3774140  97.2020750  38.9538230  86.7586560  96.8640300  38.3064530
  87.3598590  96.5580510  39.6617420  86.8200700  93.3805290  46.3704040
  86.4071880  94.2059000  46.6244030  86.0876650  92.7950330  46.1780400
  78.9533490  96.1665190  41.2322710  78.5490490  95.4542440  40.7368610
  79.0396610  95.8218430  42.1210750  79.4215190  99.8532750  43.3961920
  79.1243480  99.2478220  42.7169700  80.3715010  99.8910060  43.2851280
  77.6662110  92.9408400  45.0121750  78.2176700  93.0503740  44.2375000
  78.1805620  93.3146000  45.7276980  87.5100800 103.4264620  47.0585020
  87.0331360 104.2336810  46.8657630  86.8262590 102.7742950  47.2111230
  78.5133620  99.5914440  50.0469720  77.6162150  99.8154410  50.2943120
  78.5386490  99.7149380  49.0981120  85.5538840  96.4407560  35.9610980
  85.9932120  95.6029990  35.8148800  86.2667260  97.0736960  36.0475120
  77.3404840  96.4627760  48.6227090  77.2012610  97.3350560  48.9914490
  76.4586200  96.1200570  48.4775030  83.6634220 101.3803630  39.9292220
  84.1030130 102.1227960  39.5147610  83.6021110 101.6230200  40.8531180
  79.1385190 102.4049460  50.8312240  79.1100620 102.8092410  49.9640670
  78.9750160 101.4759820  50.6683840  89.1355980  87.6950370  34.2752020
  88.8228640  87.7877200  35.1751090  89.8968450  88.2731400  34.2249450
  75.6538120  95.0610170  38.7329360  75.5335720  95.7872260  38.1210630
  75.3439010  94.2913080  38.2557270  91.0900010 103.1876560  52.1276410
  91.5659730 103.6659450  52.8065490  91.7107170 103.1194050  51.4021910
  73.2923490  98.2325310  44.5398000  73.3703910  98.3674080  43.5953720
  73.9065170  97.5241200  44.7326120  74.5371120  99.9325500  40.9504180
  74.1299200 100.0740090  40.0957780  75.4284130  99.6485660  40.7475390
  90.4933260 100.3789410  49.2876420  90.6196320 100.1401290  48.3693600
  90.5354640  99.5473950  49.7598500  84.3550000 104.0817410  47.8571230
  84.8694670 103.9925420  48.6593660  83.5119080 104.4277110  48.1499140
  86.3304400 104.3672750  37.2855230  86.1705540 104.0775690  38.1837060
  86.1651110 103.5912880  36.7500460  78.8092780 104.1471280  39.0626850
  78.6335260 103.2306820  38.8494650  77.9548520 104.5058570  39.3024650
  86.0330530 101.8760310  35.8453230  85.3395690 101.8737600  35.1855510
  86.7753390 101.4519630  35.4147400  85.5980460 103.5023020  39.9201720
  86.0537410 102.7212400  40.2340340  85.9372980 104.2129840  40.4642900
  90.3457270  92.4321870  50.2526160  89.7301540  92.9401540  49.7241620
  90.0253690  91.5320200  50.1952100  73.3483010  99.2739480  47.0792460
  73.5114050  98.8044840  46.2611830  73.8135460  98.7663040  47.7441300
  78.1201780  88.4045240  42.1153030  77.6769930  89.1854780  41.7837550
  78.6786770  88.7275130  42.8223970  82.4071590  91.2713760  47.7188350
  81.9450960  91.4796780  48.5308290  82.0049700  90.4573110  47.4159020
  87.4076100  92.4922710  48.8485010  86.5569690  92.1928460  49.1694080
  87.2477890  92.7364720  47.9368830  84.5025810  93.9924460  50.9483800
  84.8279220  93.1588210  50.6086030  85.2906140  94.5152980  51.0962130
  80.1577680  88.9492570  43.9742630  80.4550010  89.8555400  43.8934650
  80.7063240  88.4611350  43.3602200  77.9116000  93.5278810  39.8434280
  77.6856920  93.3115980  40.7480900  77.1308530  93.9607270  39.4980250
  85.1413760  93.5342180  38.4424930  84.5422650  94.2577980  38.2588550
  85.6893370  93.4718960  37.6601380  80.3515210  94.4264390  50.5094550
  80.2558810  93.4859120  50.3594950  81.1947190  94.6479460  50.1142620
  83.7478630  92.1705720  40.4728210  84.1408200  92.4877920  39.6596900
  84.1095480  91.2917600  40.5872730  75.4825750  90.8378060  48.6628330
  75.0889140  91.6853270  48.8701110  74.7944150  90.2004430  48.8536970
  82.0570800  90.9213030  51.7325070  81.3669120  90.7285230  52.3671160
  82.8003100  91.2047670  52.2649370  72.7842800  88.7606520  42.6958410
  72.4955850  89.3309380  43.4083390  73.5288560  88.2810970  43.0589640
  72.9713030  92.7026640  33.9061130  72.8887700  93.6457400  34.0476120
  72.6196090  92.5601550  33.0273480  84.3333770  94.7611470  44.5678990
  83.6014890  95.2698280  44.9169090  83.9358110  93.9441450  44.2667770
  80.7711160  91.4365670  42.9731480  80.7747220  90.9955620  42.1236020
  81.6662280  91.7583000  43.0803300  76.6213540  91.3192160  41.9325690
  76.2813590  91.7967390  42.6892740  75.8590860  90.8657280  41.5726790
  80.8331310  92.4377750  35.9638240  80.9544130  92.3964230  36.9124060
  80.4479820  93.3001900  35.8084970  84.7959680  90.2145150  43.9801930
  84.8132420  90.6653800  44.8243780  84.5475260  89.3150790  44.1935370
  79.8452810  94.7478890  35.3621540  79.2769710  94.2997140  34.7357450
  80.5541810  95.1071670  34.8286690  88.2230430  87.6277330  49.8188310
  88.5476200  86.8966990  50.3446290  88.2586940  87.3090970  48.9169300
  74.9221990  98.6490910  49.2388270  74.5376780  98.0084580  49.8371230
  75.2334180  99.3527030  49.8083000  81.0719130  95.4967450  44.7196890
  81.4389260  95.0226020  45.4658230  80.8824190  96.3709020  45.0605230
  73.9359620  90.2411140  40.8490360  73.6506540  89.8766810  41.6868980
  73.8738480  89.5091600  40.2353500  78.8618500  94.5376090  47.0381100
  78.5575570  95.4168070  47.2631460  79.8164960  94.5975880  47.0738540
  77.3900290  98.7437080  37.6347950  76.6162550  98.2034700  37.4746670
  78.1194920  98.2243690  37.2965710  88.1488270  97.7402440  43.4274340
  88.8687390  98.2357730  43.0370450  87.9470090  97.0620330  42.7828210
  83.5307070  97.8111500  49.3143340  83.4644380  96.8907170  49.0600930
  82.9012210  97.9086940  50.0287980  86.3246600  93.5060050  35.8665890
  87.2126220  93.8177280  35.6917230  86.2951690  92.6332300  35.4746470
  77.4337690  98.4117460  41.2726760  77.9516360  97.6085720  41.2183650
  76.9821710  98.3496600  42.1143590  82.3207190  99.6783740  36.5454060
  82.6622890 100.4225970  36.0497380  81.4919900  99.9914860  36.9078890
  74.9182230  95.3778830  48.1852460  74.5597170  96.0432680  48.7725800
  74.6236790  94.5462380  48.5565080  78.1195350  95.8363070  51.0692010
  77.8195490  95.9820250  50.1719830  78.8906590  95.2768360  50.9765400
  83.4623800 100.6332070  49.0647140  83.4768340  99.7013030  48.8466050
  82.7548900 100.7191830  49.7036910  88.5960870  94.8171890  35.3345750
  88.5124590  95.2486110  34.4842190  89.3155060  95.2770240  35.7672570
  89.6735010  97.2739410  48.4115720  88.9483200  97.8668190  48.2145110
  90.2010470  97.2662950  47.6129090  89.6248120 101.6714150  38.0627880
  88.9824280 101.0169770  38.3371600  89.2378780 102.0769240  37.2868550
  85.2034600  98.9999580  41.9099570  85.5558420  98.4027710  41.2500940
  84.3196930  98.6743810  42.0807820  81.2897880  99.7597270  39.3169980
  81.9769010 100.3066480  39.6977570  80.5030300 100.3038000  39.3519590
  73.4290280  95.3770090  34.8087060  74.2985130  95.6594890  35.0922980
  72.9380600  96.1905960  34.6935870  80.5925090  96.7643300  38.9295340
  81.0487870  97.5748550  39.1555530  80.2413300  96.4466440  39.7613830
  82.8957700 102.2749640  46.1587640  83.5399920 102.4809020  46.8361060
  83.2587140 101.5138040  45.7058490  76.4936870  87.1080950  39.4017860
  76.3651500  87.0998850  40.3502780  75.6698890  87.4464040  39.0508870
  84.1689780 100.2781990  44.8765090  84.8112010  99.5775150  44.9897260
  84.6939130 101.0580430  44.6961980  88.0145500 100.5630610  34.6004230
  87.7883080  99.8461050  35.1928870  87.6241700 100.3143050  33.7625980
  85.9427400 101.0776890  48.0801150  86.2783640 101.6643580  48.7579070
  85.0227740 100.9469600  48.3098940  73.7961530 104.5897470  35.3748690
  74.1559170 105.1886810  34.7205960  73.6553870 105.1357360  36.1483720
  73.4930800  88.8672070  48.8624560  72.7789320  89.0668990  49.4677170
  73.9125840  88.0911640  49.2339360  87.5961750  98.4802550  36.2618390
  87.3083450  98.9415240  37.0496270  88.3913920  98.0200320  36.5302610
  73.7803390 102.8552330  49.8491090  73.8894510 101.9147070  49.7086480
  73.1283950 103.1207080  49.2004820  81.7715980 101.1268220  51.2489210
  81.4512850 100.4077460  51.7934900  81.0974340 101.8023290  51.3225270
  79.8130150 101.9728670  36.1922360  79.8040250 102.7058360  35.5766870
  78.8928510 101.7260250  36.2849320  75.4136790  97.1943560  36.9369120
  74.8064740  97.9342460  36.9464420  75.8886140  97.2842920  36.1107320
  84.9869580  91.3594380  46.6126010  85.3550400  90.5389590  46.9405580
  84.1267780  91.4196270  47.0281660  88.3531610  90.3151320  37.4213570
  87.7244770  90.4196990  36.7071800  87.8583530  90.5348100  38.2107450
  82.7989750 102.0356910  34.8547550  82.9001730 101.8320900  33.9249530
  81.8991490 101.7815190  35.0595330  80.3215640  92.5937270  38.8371450
  79.6131790  93.0623610  39.2785060  80.6060120  91.9359280  39.4716640
  81.9471570  94.0133970  46.8363980  82.4456820  94.4879790  47.5015830
  82.0894520  93.0897490  47.0434010  81.4407860 104.5543230  39.5495220
  81.6949360 104.5164620  38.6274590  80.4920340 104.4276560  39.5423470
  78.5250660  90.9022350  36.2122160  79.3741190  91.3392500  36.1462350
  78.1581930  91.2142610  37.0394220  89.1538430  90.2301930  47.6792370
  88.6512030  90.9707330  48.0186180  89.9695090  90.6185930  47.3629160
  87.4460440  95.4735110  41.1253730  86.5050580  95.4885340  41.3001420
  87.7604510  94.6871070  41.5714030  77.4242080  97.1554710  34.6857690
  78.1905350  97.0436070  35.2483120  77.5016770  96.4592680  34.0334460
  76.1188840  94.5879780  35.3690580  76.1992430  93.6407290  35.4807980
  77.0108590  94.9186660  35.4751240  89.4486020 102.6443960  42.8007990
  89.5733440 103.4675130  43.2731800  90.3151580 102.4334690  42.4532140
  76.9203550 104.7375170  42.4725120  77.6566030 104.1890630  42.7433690
  77.3044470 105.6031180  42.3331110  73.8049030 100.8048740  38.3466630
  72.8788810 101.0469880  38.3372040  74.2705460 101.6323000  38.2251380
  75.9261830 103.9221240  51.6610700  76.7274560 104.2433290  52.0746100
  75.4113650 103.5616820  52.3830610  80.0305860 103.9105480  34.2950690
  80.8234470 104.1994310  33.8432480  79.5110210 103.4797650  33.6163170
  84.7626460 100.0301110  51.6086110  84.1564620 100.0532710  50.8681860
  84.4580570  99.2984150  52.1453360  86.1926830 103.7581400  50.2195520
  87.1448580 103.6739420  50.1695760  86.0455050 104.4223110  50.8929310
  89.0836030 103.1375610  35.7187430  88.7977540 102.7240750  34.9041610
  88.8855580 104.0663320  35.5987950  73.6459640  96.4094700  50.6046750
  74.1498660  95.8301980  51.1762980  72.9067060  96.6934930  51.1423120
  80.5483260  99.1308890  34.1593040  80.4433900  98.5161240  34.8854420
  80.3807480  98.6074780  33.3756050  80.6997580  97.8165690  50.1382270
  79.9343250  98.3850690  50.0536940  80.8813540  97.5241900  49.2450500
  83.7885990  98.1928920  34.7635030  83.2396090  98.6398220  35.4077770
  84.4105250  97.6878170  35.2872700  87.8420930  99.5471020  50.6957290
  88.5830400  99.8846780  50.1924750  87.0793610  99.7163080  50.1427060
  75.6782720  94.5524290  51.4996820  75.7188060  94.2538160  52.4082050
  76.5328220  94.9531900  51.3404340  79.4561110  97.1519840  36.6600330
  79.8777530  96.9859710  37.5031720  79.5811950  96.3420070  36.1655470
  77.6188530  93.1316390  49.4671310  77.0884990  92.6407340  48.8394650
  78.2876600  93.5600590  48.9329240  81.9688750  96.1757450  33.9077430
  82.4894410  95.4606470  33.5418580  82.6157150  96.8143320  34.2077940
  86.5166590  97.5985850  49.2312500  86.9307610  97.7530930  50.0802920
  85.5817590  97.7241070  49.3938280  86.9888760  94.9382010  51.2351650
  87.5709530  94.1834330  51.1472130  87.1650530  95.4689450  50.4583130
  78.1060830  90.0978760  49.5468600  78.0117700  89.4799510  48.8219470
  77.5258220  90.8245050  49.3198510  80.8722270  88.6552000  46.5795990
  80.4239570  88.6776260  45.7341540  80.2387470  88.2571020  47.1766290
  81.2781820  97.5506330  47.2008430  81.6969930  98.3939060  47.0284670
  80.3590450  97.6878370  46.9715210  83.6145720  95.2822510  48.5846270
  83.7341930  94.6863650  49.3241110  84.4739720  95.3192200  48.1647570
  85.9533620  95.8359700  47.1608780  85.4268840  96.3602320  46.5573920
  86.2964960  96.4687090  47.7918510  78.3520010  93.2253070  33.6058490
  78.1509070  92.3620430  33.9671830  78.1812060  93.1386430  32.6680090
  79.1289240 103.8559340  48.3166160  78.5910330 104.5805400  47.9974860
  79.3823200 103.3789680  47.5263500  80.3814490  91.8243860  49.8422090
  80.9714180  91.5159710  50.5299910  79.5634730  91.3523610  49.9981990
  85.2007920  91.4409670  50.0755110  84.5123440  90.7791210  50.0105100
  85.9213940  90.9947940  50.5203570  85.8308320  88.0361300  36.1345370
  86.1110610  87.1929200  36.4904790  85.0574050  88.2684410  36.6484120
  77.1502810  90.3253690  33.5936370  77.4528710  90.3321120  32.6855520
  77.8897400  89.9751550  34.0904030  81.9851450 105.0910550  48.5752810
  81.9110150 105.9945690  48.8825180  81.0830290 104.7722450  48.5474880
  80.3687740  89.2688310  34.5792570  80.0209740  88.5912300  33.9995020
  80.5700510  88.8077820  35.3935960  82.5336780 104.2569060  36.1979170
  83.4287570 104.5954030  36.2197930  82.5654410 103.5348470  35.5703450
  76.1732940  99.6296110  34.4266170  76.6107810 100.1725780  35.0823750
  76.6580670  98.8043060  34.4362510  73.3878740 102.4185140  41.8786430
  73.7181750 101.5506200  41.6465070  73.8169740 102.6243660  42.7091390
  77.9840660 100.7494150  39.5388400  77.6836200 100.6259120  40.4392310
  77.8778150  99.8902740  39.1304130  73.8768950 103.2855730  44.6168060
  73.4399940 103.4656530  45.4492210  74.4446630 104.0430350  44.4749780
  89.5131130 102.7872730  48.9045370  88.9133120 102.8465290  48.1609290
  89.6425030 101.8477710  49.0342220  90.7532580 100.5290550  34.2415080
  89.9225540 100.5967200  34.7122310  90.9304410 101.4194670  33.9381940
  90.2089040  97.2738030  36.7449280  90.9707950  97.8434680  36.8508970
  90.2243410  96.7065230  37.5157590  73.7093380  95.7975960  40.9756940
  73.0542220  95.5287600  40.3316640  74.5471330  95.6880440  40.5258920
  91.2149010  98.1288130  41.5891210  91.5857840  97.3455450  41.1827180
  91.8550940  98.8177230  41.4108510  88.1982770  99.5124710  47.0021530
  87.3842610  99.9421870  47.2647320  88.6056970 100.1243120  46.3890580
  90.2608210  97.5672400  33.9021800  90.5357050  98.4751280  33.7741020
  90.0718950  97.5034930  34.8383790  86.6583820  90.5917250  35.1975430
  87.0768700  90.4048230  34.3572090  86.3519880  89.7396300  35.5078360
  90.1573550  95.5041390  38.8951230  89.7817150  94.7369320  38.4632520
  89.4276670  95.8864090  39.3826160  74.7469310  96.1828530  45.5160280
  75.1142350  96.0955930  46.3956300  74.1780130  95.4195080  45.4167140
  89.5473170  94.6512910  48.5290750  89.3159260  94.4225660  47.6288700
  89.8077720  95.5712460  48.4835640  74.2985310  93.0937620  49.4218700
  73.4041360  93.0604380  49.7612410  74.8382860  93.2924410  50.1869950
  87.9861240  89.8769340  51.3070450  88.8631420  89.8852740  51.6904450
  87.9982080  89.1400180  50.6962800  72.9231460  93.0074890  36.9182270
  72.0195540  93.2705090  36.7433930  73.4072080  93.2786060  36.1382230
  89.4324510  93.7298880  42.1958470  89.9561990  93.2361530  41.5648640
  90.0183930  93.8649240  42.9406040  89.6114230  93.8138750  45.7178020
  88.6616940  93.7802290  45.8323010  89.7927240  94.7238860  45.4827790
  75.4658670  92.0640430  34.8276650  76.1750370  91.6423650  34.3423930
  74.7498610  92.1315660  34.1960000  75.1132830  88.1179760  33.8679300
  75.8360960  88.6588700  34.1860520  75.3857350  87.8443180  32.9920840
  88.9224480  92.9872230  38.1350880  89.4183600  92.7543100  38.9199760
  88.7240550  92.1484070  37.7188520  74.8025020  87.3685950  43.7701920
  75.4501210  86.8183330  43.3297080  75.2226860  87.6229100  44.5917730
  90.3511640  91.6233180  40.6688560  90.2410920  91.4689220  41.6070830
  91.1119230  91.0954120  40.4263970  88.6977360  87.5627310  47.1271560
  89.3349580  88.1761450  47.4930750  88.8452250  87.5987970  46.1820790
  91.2401910  89.4541100  33.9094700  92.1651220  89.3222280  33.7012990
  91.2177700  89.5333920  34.8631150  91.3140400  90.2251760  36.5351410
  90.5191900  90.1596880  37.0644320  91.5183680  91.1602400  36.5236760
  88.2558820 104.2643310  40.5289800  88.8517890 103.9427880  39.8524220
  88.5136970 103.7915130  41.3203070  74.5557020  87.5241620  46.5127240
  74.2071840  87.9805440  47.2785420  74.2244720  86.6298750  46.5949670
  76.1621390 100.6961220  50.6780430  76.1191020 100.3254130  51.5594890
  76.2932400 101.6338790  50.8182250  79.8627420 102.2520810  46.2790150
  79.6218780 102.5195370  45.3920670  80.8030060 102.4226540  46.3341010
  82.0681840  88.7153500  50.0346660  82.0070730  89.3075330  50.7842070
  83.0082220  88.6079460  49.8896920  84.7056400  88.3723560  49.6738950
  85.3196810  88.6902850  49.0120030  85.2505960  87.8872150  50.2934810
  91.1231580 104.2715190  47.0800790  90.6289860 104.6684060  46.3627920
  90.5144870 103.6464400  47.4738070  75.2277660  87.0517820  49.7878010
  75.7760650  86.8705870  49.0244120  75.2932970  86.2611930  50.3234320
  76.0009420 103.6423470  47.7978210  75.4069740 103.5108170  48.5368250
  75.9933260 102.8061610  47.3320310  85.4464440  86.9355700  46.0008240
  84.5724280  87.2690810  45.7981170  85.3375190  86.4628880  46.8260110
  86.3536420  89.1426570  47.3849960  86.0249780  88.3278330  47.0051690
  87.3018720  89.0996380  47.2615650  88.8071030 104.9138610  44.3587530
  88.3474000 105.6654420  43.9845550  88.1783490 104.1945080  44.3002330
  75.6321650 101.0081850  46.7486250  74.9055710 100.3887140  46.6812200
  75.6930800 101.4022460  45.8784330  79.2366750 103.2226850  43.5335660
  79.7531770 102.6114210  43.0083920  79.8864130 103.7255630  44.0246670
  81.9762250 104.1135340  44.3604640  82.2640060 103.8589640  43.4837650
  82.4885470 103.5612700  44.9510210  83.1939260  87.8525540  44.9401150
  82.4111050  88.3271040  45.2197910  82.9002190  86.9480370  44.8314330
  87.7460330  88.5548640  42.9850240  88.1868420  88.4993740  42.1371840
  87.4767920  89.4706650  43.0560420  89.6098900  88.1863880  40.9959060
  89.5487300  87.2425100  40.8490080  90.3890930  88.2943970  41.5412520
  73.9151650 104.3256240  39.9583010  73.7473690 103.6926920  40.6564900
  73.0486160 104.5315640  39.6077200  74.5379670  88.1573020  37.4614870
  75.2959030  88.2701900  36.8878900  74.0756840  88.9942220  37.4158300
  81.0793480  90.2712290  40.4517180  80.2667990  89.8969180  40.1113060
  81.5835120  89.5157370  40.7538370  85.5818460  86.9354740  41.6900250
  86.1847830  87.5074950  42.1648770  84.8411450  87.4994180  41.4674150
  88.7253060  87.3376300  36.9640530  88.9203690  88.2359750  37.2307960
  87.9382930  87.1063380  37.4573480  75.5214350 103.0189470  37.4033150
  74.9961970 103.3997500  36.6995110  75.4458930 103.6440240  38.1242860
  76.9104820  88.6837070  36.0016840  77.4397580  87.8966870  35.8724790
  77.5433140  89.3628260  36.2352370  82.0434610 105.0351440  51.7272840
  82.9701920 104.7995710  51.7708800  82.0285040 105.8623440  51.2458870
  90.2779670 104.5777010  38.7247090  90.4531860 103.8914750  38.0808010
  89.5801240 105.1024060  38.3323760  79.2298220  87.6996190  51.4914720
  78.9482490  88.2029790  50.7275540  79.6117920  86.9017940  51.1256850
  78.1207320 104.9671850  36.2782400  78.8526140 104.6831130  35.7306290
  78.3800990 104.7285130  37.1681780  77.2822110 101.0836580  36.2828730
  76.6530990 101.5521680  36.8314560  77.3969940 100.2385800  36.7174920
  85.8313680  87.1149770  52.0695190  85.7179130  87.4344380  52.9646710
  86.6483420  87.5162280  51.7732470  88.6112170 104.2621300  51.5513880
  89.4037490 103.7670530  51.3439840  88.9045320 104.9411440  52.1589490
  84.7371830  95.1342240  22.4329930  84.6565880  94.2196850  22.1621640
  84.3236250  95.6309310  21.7269640  82.8689870  96.9121260  24.3139200
  82.0931970  96.4321700  24.6037770  83.5202800  96.2326910  24.1395360
  76.8855700  97.2241070  25.1914960  76.0540580  96.9689780  25.5911470
  77.4936680  97.2951840  25.9272880  86.8897300 101.3181450  23.0938330
  86.4278830 100.5468690  23.4225500  87.7022850 101.3447520  23.5990780
  76.8656960 101.2581160  25.3872980  77.1685000 100.3678900  25.2083200
  77.6100550 101.8151380  25.1595230  75.2947650  92.1842960  18.9757350
  74.4064350  92.5258930  18.8737230  75.5788840  91.9843280  18.0838180
  73.2580660  94.7848610  24.8597050  73.8296770  94.0170810  24.8600690
  73.2582200  95.0837370  23.9503660  83.1160610 103.6039460  22.7142320
  82.4972050 104.0596960  22.1436760  83.9712390 103.7590920  22.3132020
  82.3098860  99.5878450  24.3209360  82.2407140  98.6468390  24.1598490
  83.0718720  99.6779860  24.8931930  74.5005530  90.1932970  26.6465980
  74.3208370  89.2958720  26.9268740  74.0985610  90.7404840  27.3212930
  83.3404030  92.3948830  24.5478290  83.7168850  91.5220710  24.4351960
  83.2423540  92.7307530  23.6568730  77.4709040  90.7674460  20.0095730
  77.5775790  91.6678190  20.3164490  76.5601400  90.7192430  19.7190380
  87.1228150  89.8899270  21.4806630  87.9437770  89.3995840  21.5232110
  87.1562230  90.4796930  22.2338470  75.1192200  92.6893470  25.2548320
  75.8002310  92.9531840  25.8735720  74.8040250  91.8494340  25.5886330
  79.3116770  93.7360830  24.3420910  79.8194990  94.2341800  24.9825930
  79.8430010  92.9596030  24.1660270  91.4127700  91.9066020  28.0450260
  90.7079870  92.2947730  27.5265370  91.6785620  92.6016310  28.6471190
  77.5952870  88.3759390  28.6084330  77.5971310  88.8931780  27.8030230
  76.7657180  87.8989570  28.5854260  83.9823960  98.4878700  20.1074230
  83.3641230  98.9528150  19.5436950  84.4947210  99.1806180  20.5243740
  78.8455720  98.0154570  26.7857830  78.5125100  98.6423490  27.4278900
  79.0222400  98.5416450  26.0059500  87.3589630  91.8299650  24.2534170
  86.6545200  92.1184540  24.8337280  87.7201790  92.6399760  23.8933730
  77.2768200  90.0869350  26.6154780  77.6185010  90.9311400  26.3208650
  76.3384010  90.2353090  26.7320120  78.0574820  99.9835370  28.6007010
  78.6748820 100.6586450  28.3191460  77.1967940 100.3923350  28.5094510
  73.3507160  99.1735230  17.4813860  72.9735140  99.6622330  16.7498760
  73.6080230  99.8460510  18.1120390  88.9752410 101.4474780  26.5161650
  88.2915930 102.1173890  26.5078320  89.5146700 101.6455430  25.7506510
  90.4276550  91.2754440  24.6443380  89.4801460  91.3093420  24.7758810
  90.7526540  92.0893390  25.0292740  80.9596090  87.5751620  22.9399370
  81.2671070  87.0198510  22.2234870  80.0296790  87.7096080  22.7572360
  86.5111150 103.2918910  25.2306830  86.5238310 102.8881200  24.3629090
  85.9586370 104.0666200  25.1268260  87.8056570 100.0135130  20.3197000
  87.6952900  99.0709460  20.4446420  87.8024820 100.3750770  21.2059760
  85.9096590  98.1948750  26.5589440  86.3265380  97.9808860  25.7242900
  86.6336410  98.4521540  27.1298060  83.3476850  95.6400450  19.6759490
  82.4206130  95.5737830  19.9047960  83.5001670  96.5780580  19.5614730
  83.3345930  91.9117450  16.6726650  82.3949600  92.0731410  16.7579110
  83.6529190  92.6303130  16.1262640  89.8558690  96.5935970  26.6505680
  89.0277320  96.6629060  26.1755810  90.4509170  97.1790280  26.1821510
  87.3774140  97.2020750  20.1794740  86.7586560  96.8640300  19.5321040
  87.3598590  96.5580510  20.8873930  86.8200700  93.3805290  27.5960550
  86.4071880  94.2059000  27.8500540  86.0876650  92.7950330  27.4036910
  78.9533490  96.1665190  22.4579220  78.5490490  95.4542440  21.9625120
  79.0396610  95.8218430  23.3467260  79.4215190  99.8532750  24.6218430
  79.1243480  99.2478220  23.9426210  80.3715010  99.8910060  24.5107790
  77.6662110  92.9408400  26.2378260  78.2176700  93.0503740  25.4631510
  78.1805620  93.3146000  26.9533490  87.5100800 103.4264620  28.2841530
  87.0331360 104.2336810  28.0914140  86.8262590 102.7742950  28.4367740
  78.5133620  99.5914440  31.2726230  77.6162150  99.8154410  31.5199630
  78.5386490  99.7149380  30.3237630  85.5538840  96.4407560  17.1867490
  85.9932120  95.6029990  17.0405310  86.2667260  97.0736960  17.2731630
  77.3404840  96.4627760  29.8483600  77.2012610  97.3350560  30.2171000
  76.4586200  96.1200570  29.7031540  83.6634220 101.3803630  21.1548730
  84.1030130 102.1227960  20.7404120  83.6021110 101.6230200  22.0787690
  79.1385190 102.4049460  32.0568750  79.1100620 102.8092410  31.1897180
  78.9750160 101.4759820  31.8940350  89.1355980  87.6950370  15.5008530
  88.8228640  87.7877200  16.4007600  89.8968450  88.2731400  15.4505960
  75.6538120  95.0610170  19.9585870  75.5335720  95.7872260  19.3467140
  75.3439010  94.2913080  19.4813780  91.0900010 103.1876560  33.3532920
  91.5659730 103.6659450  34.0322000  91.7107170 103.1194050  32.6278420
  73.2923490  98.2325310  25.7654510  73.3703910  98.3674080  24.8210230
  73.9065170  97.5241200  25.9582630  74.5371120  99.9325500  22.1760690
  74.1299200 100.0740090  21.3214290  75.4284130  99.6485660  21.9731900
  90.4933260 100.3789410  30.5132930  90.6196320 100.1401290  29.5950110
  90.5354640  99.5473950  30.9855010  84.3550000 104.0817410  29.0827740
  84.8694670 103.9925420  29.8850170  83.5119080 104.4277110  29.3755650
  86.3304400 104.3672750  18.5111740  86.1705540 104.0775690  19.4093570
  86.1651110 103.5912880  17.9756970  78.8092780 104.1471280  20.2883360
  78.6335260 103.2306820  20.0751160  77.9548520 104.5058570  20.5281160
  86.0330530 101.8760310  17.0709740  85.3395690 101.8737600  16.4112020
  86.7753390 101.4519630  16.6403910  85.5980460 103.5023020  21.1458230
  86.0537410 102.7212400  21.4596850  85.9372980 104.2129840  21.6899410
  90.3457270  92.4321870  31.4782670  89.7301540  92.9401540  30.9498130
  90.0253690  91.5320200  31.4208610  73.3483010  99.2739480  28.3048970
  73.5114050  98.8044840  27.4868340  73.8135460  98.7663040  28.9697810
  78.1201780  88.4045240  23.3409540  77.6769930  89.1854780  23.0094060
  78.6786770  88.7275130  24.0480480  82.4071590  91.2713760  28.9444860
  81.9450960  91.4796780  29.7564800  82.0049700  90.4573110  28.6415530
  87.4076100  92.4922710  30.0741520  86.5569690  92.1928460  30.3950590
  87.2477890  92.7364720  29.1625340  84.5025810  93.9924460  32.1740310
  84.8279220  93.1588210  31.8342540  85.2906140  94.5152980  32.3218640
  81.2360600  88.0255940  18.2215370  80.6114780  88.0215810  18.9468680
  81.1490720  87.1586900  17.8251340  80.1577680  88.9492570  25.1999140
  80.4550010  89.8555400  25.1191160  80.7063240  88.4611350  24.5858710
  77.9116000  93.5278810  21.0690790  77.6856920  93.3115980  21.9737410
  77.1308530  93.9607270  20.7236760  85.1413760  93.5342180  19.6681440
  84.5422650  94.2577980  19.4845060  85.6893370  93.4718960  18.8857890
  80.3515210  94.4264390  31.7351060  80.2558810  93.4859120  31.5851460
  81.1947190  94.6479460  31.3399130  83.7478630  92.1705720  21.6984720
  84.1408200  92.4877920  20.8853410  84.1095480  91.2917600  21.8129240
  75.4825750  90.8378060  29.8884840  75.0889140  91.6853270  30.0957620
  74.7944150  90.2004430  30.0793480  82.0570800  90.9213030  32.9581580
  81.3669120  90.7285230  33.5927670  82.8003100  91.2047670  33.4905880
  72.7842800  88.7606520  23.9214920  72.4955850  89.3309380  24.6339900
  73.5288560  88.2810970  24.2846150  72.9713030  92.7026640  15.1317640
  72.8887700  93.6457400  15.2732630  72.6196090  92.5601550  14.2529990
  84.3333770  94.7611470  25.7935500  83.6014890  95.2698280  26.1425600
  83.9358110  93.9441450  25.4924280  80.7711160  91.4365670  24.1987990
  80.7747220  90.9955620  23.3492530  81.6662280  91.7583000  24.3059810
  76.6213540  91.3192160  23.1582200  76.2813590  91.7967390  23.9149250
  75.8590860  90.8657280  22.7983300  80.8331310  92.4377750  17.1894750
  80.9544130  92.3964230  18.1380570  80.4479820  93.3001900  17.0341480
  84.7959680  90.2145150  25.2058440  84.8132420  90.6653800  26.0500290
  84.5475260  89.3150790  25.4191880  79.8452810  94.7478890  16.5878050
  79.2769710  94.2997140  15.9613960  80.5541810  95.1071670  16.0543200
  88.2230430  87.6277330  31.0444820  88.5476200  86.8966990  31.5702800
  88.2586940  87.3090970  30.1425810  74.9221990  98.6490910  30.4644780
  74.5376780  98.0084580  31.0627740  75.2334180  99.3527030  31.0339510
  81.0719130  95.4967450  25.9453400  81.4389260  95.0226020  26.6914740
  80.8824190  96.3709020  26.2861740  73.9359620  90.2411140  22.0746870
  73.6506540  89.8766810  22.9125490  73.8738480  89.5091600  21.4610010
  78.8618500  94.5376090  28.2637610  78.5575570  95.4168070  28.4887970
  79.8164960  94.5975880  28.2995050  77.3900290  98.7437080  18.8604460
  76.6162550  98.2034700  18.7003180  78.1194920  98.2243690  18.5222220
  88.1488270  97.7402440  24.6530850  88.8687390  98.2357730  24.2626960
  87.9470090  97.0620330  24.0084720  83.6098210  89.1340400  18.7960240
  82.7962820  88.6353570  18.7205550  83.4160160  89.9738650  18.3796590
  83.5307070  97.8111500  30.5399850  83.4644380  96.8907170  30.2857440
  82.9012210  97.9086940  31.2544490  86.3246600  93.5060050  17.0922400
  87.2126220  93.8177280  16.9173740  86.2951690  92.6332300  16.7002980
  77.4337690  98.4117460  22.4983270  77.9516360  97.6085720  22.4440160
  76.9821710  98.3496600  23.3400100  82.3207190  99.6783740  17.7710570
  82.6622890 100.4225970  17.2753890  81.4919900  99.9914860  18.1335400
  74.9182230  95.3778830  29.4108970  74.5597170  96.0432680  29.9982310
  74.6236790  94.5462380  29.7821590  78.1195350  95.8363070  32.2948520
  77.8195490  95.9820250  31.3976340  78.8906590  95.2768360  32.2021910
  83.4623800 100.6332070  30.2903650  83.4768340  99.7013030  30.0722560
  82.7548900 100.7191830  30.9293420  88.5960870  94.8171890  16.5602260
  88.5124590  95.2486110  15.7098700  89.3155060  95.2770240  16.9929080
  89.6735010  97.2739410  29.6372230  88.9483200  97.8668190  29.4401620
  90.2010470  97.2662950  28.8385600  89.6248120 101.6714150  19.2884390
  88.9824280 101.0169770  19.5628110  89.2378780 102.0769240  18.5125060
  85.2034600  98.9999580  23.1356080  85.5558420  98.4027710  22.4757450
  84.3196930  98.6743810  23.3064330  81.2897880  99.7597270  20.5426490
  81.9769010 100.3066480  20.9234080  80.5030300 100.3038000  20.5776100
  73.4290280  95.3770090  16.0343570  74.2985130  95.6594890  16.3179490
  72.9380600  96.1905960  15.9192380  80.5925090  96.7643300  20.1551850
  81.0487870  97.5748550  20.3812040  80.2413300  96.4466440  20.9870340
  82.8957700 102.2749640  27.3844150  83.5399920 102.4809020  28.0617570
  83.2587140 101.5138040  26.9315000  76.4936870  87.1080950  20.6274370
  76.3651500  87.0998850  21.5759290  75.6698890  87.4464040  20.2765380
  84.1689780 100.2781990  26.1021600  84.8112010  99.5775150  26.2153770
  84.6939130 101.0580430  25.9218490  88.0145500 100.5630610  15.8260740
  87.7883080  99.8461050  16.4185380  87.6241700 100.3143050  14.9882490
  85.9427400 101.0776890  29.3057660  86.2783640 101.6643580  29.9835580
  85.0227740 100.9469600  29.5355450  73.7961530 104.5897470  16.6005200
  74.1559170 105.1886810  15.9462470  73.6553870 105.1357360  17.3740230
  73.4930800  88.8672070  30.0881070  72.7789320  89.0668990  30.6933680
  73.9125840  88.0911640  30.4595870  87.5961750  98.4802550  17.4874900
  87.3083450  98.9415240  18.2752780  88.3913920  98.0200320  17.7559120
  73.7803390 102.8552330  31.0747600  73.8894510 101.9147070  30.9342990
  73.1283950 103.1207080  30.4261330  81.7715980 101.1268220  32.4745720
  81.4512850 100.4077460  33.0191410  81.0974340 101.8023290  32.5481780
  79.8130150 101.9728670  17.4178870  79.8040250 102.7058360  16.8023380
  78.8928510 101.7260250  17.5105830  75.4136790  97.1943560  18.1625630
  74.8064740  97.9342460  18.1720930  75.8886140  97.2842920  17.3363830
  84.9869580  91.3594380  27.8382520  85.3550400  90.5389590  28.1662090
  84.1267780  91.4196270  28.2538170  88.3531610  90.3151320  18.6470080
  87.7244770  90.4196990  17.9328310  87.8583530  90.5348100  19.4363960
  82.7989750 102.0356910  16.0804060  82.9001730 101.8320900  15.1506040
  81.8991490 101.7815190  16.2851840  80.3215640  92.5937270  20.0627960
  79.6131790  93.0623610  20.5041570  80.6060120  91.9359280  20.6973150
  81.9471570  94.0133970  28.0620490  82.4456820  94.4879790  28.7272340
  82.0894520  93.0897490  28.2690520  84.3531070  89.3187930  21.5023750
  84.2298850  89.3374060  20.5533260  85.3015630  89.3666870  21.6222150
  81.4407860 104.5543230  20.7751730  81.6949360 104.5164620  19.8531100
  80.4920340 104.4276560  20.7679980  78.5250660  90.9022350  17.4378670
  79.3741190  91.3392500  17.3718860  78.1581930  91.2142610  18.2650730
  89.1538430  90.2301930  28.9048880  88.6512030  90.9707330  29.2442690
  89.9695090  90.6185930  28.5885670  87.4460440  95.4735110  22.3510240
  86.5050580  95.4885340  22.5257930  87.7604510  94.6871070  22.7970540
  77.4242080  97.1554710  15.9114200  78.1905350  97.0436070  16.4739630
  77.5016770  96.4592680  15.2590970  76.1188840  94.5879780  16.5947090
  76.1992430  93.6407290  16.7064490  77.0108590  94.9186660  16.7007750
  89.4486020 102.6443960  24.0264500  89.5733440 103.4675130  24.4988310
  90.3151580 102.4334690  23.6788650  76.9203550 104.7375170  23.6981630
  77.6566030 104.1890630  23.9690200  77.3044470 105.6031180  23.5587620
  73.8049030 100.8048740  19.5723140  72.8788810 101.0469880  19.5628550
  74.2705460 101.6323000  19.4507890  75.9261830 103.9221240  32.8867210
  76.7274560 104.2433290  33.3002610  75.4113650 103.5616820  33.6087120
  80.0305860 103.9105480  15.5207200  80.8234470 104.1994310  15.0688990
  79.5110210 103.4797650  14.8419680  84.7626460 100.0301110  32.8342620
  84.1564620 100.0532710  32.0938370  84.4580570  99.2984150  33.3709870
  86.1926830 103.7581400  31.4452030  87.1448580 103.6739420  31.3952270
  86.0455050 104.4223110  32.1185820  89.0836030 103.1375610  16.9443940
  88.7977540 102.7240750  16.1298120  88.8855580 104.0663320  16.8244460
  73.6459640  96.4094700  31.8303260  74.1498660  95.8301980  32.4019490
  72.9067060  96.6934930  32.3679630  80.5483260  99.1308890  15.3849550
  80.4433900  98.5161240  16.1110930  80.3807480  98.6074780  14.6012560
  80.6997580  97.8165690  31.3638780  79.9343250  98.3850690  31.2793450
  80.8813540  97.5241900  30.4707010  83.7885990  98.1928920  15.9891540
  83.2396090  98.6398220  16.6334280  84.4105250  97.6878170  16.5129210
  87.8420930  99.5471020  31.9213800  88.5830400  99.8846780  31.4181260
  87.0793610  99.7163080  31.3683570  75.6782720  94.5524290  32.7253330
  75.7188060  94.2538160  33.6338560  76.5328220  94.9531900  32.5660850
  79.4561110  97.1519840  17.8856840  79.8777530  96.9859710  18.7288230
  79.5811950  96.3420070  17.3911980  77.6188530  93.1316390  30.6927820
  77.0884990  92.6407340  30.0651160  78.2876600  93.5600590  30.1585750
  81.9688750  96.1757450  15.1333940  82.4894410  95.4606470  14.7675090
  82.6157150  96.8143320  15.4334450  86.5166590  97.5985850  30.4569010
  86.9307610  97.7530930  31.3059430  85.5817590  97.7241070  30.6194790
  86.9888760  94.9382010  32.4608160  87.5709530  94.1834330  32.3728640
  87.1650530  95.4689450  31.6839640  78.1060830  90.0978760  30.7725110
  78.0117700  89.4799510  30.0475980  77.5258220  90.8245050  30.5455020
  80.8722270  88.6552000  27.8052500  80.4239570  88.6776260  26.9598050
  80.2387470  88.2571020  28.4022800  81.2781820  97.5506330  28.4264940
  81.6969930  98.3939060  28.2541180  80.3590450  97.6878370  28.1971720
  83.6145720  95.2822510  29.8102780  83.7341930  94.6863650  30.5497620
  84.4739720  95.3192200  29.3904080  85.9533620  95.8359700  28.3865290
  85.4268840  96.3602320  27.7830430  86.2964960  96.4687090  29.0175020
  78.3520010  93.2253070  14.8315000  78.1509070  92.3620430  15.1928340
  78.1812060  93.1386430  13.8936600  79.1289240 103.8559340  29.5422670
  78.5910330 104.5805400  29.2231370  79.3823200 103.3789680  28.7520010
  80.3814490  91.8243860  31.0678600  80.9714180  91.5159710  31.7556420
  79.5634730  91.3523610  31.2238500  85.2007920  91.4409670  31.3011620
  84.5123440  90.7791210  31.2361610  85.9213940  90.9947940  31.7460080
  85.8308320  88.0361300  17.3601880  86.1110610  87.1929200  17.7161300
  85.0574050  88.2684410  17.8740630  77.1502810  90.3253690  14.8192880
  77.4528710  90.3321120  13.9112030  77.8897400  89.9751550  15.3160540
  81.9851450 105.0910550  29.8009320  81.9110150 105.9945690  30.1081690
  81.0830290 104.7722450  29.7731390  80.3687740  89.2688310  15.8049080
  80.0209740  88.5912300  15.2251530  80.5700510  88.8077820  16.6192470
  82.5336780 104.2569060  17.4235680  83.4287570 104.5954030  17.4454440
  82.5654410 103.5348470  16.7959960  76.1732940  99.6296110  15.6522680
  76.6107810 100.1725780  16.3080260  76.6580670  98.8043060  15.6619020
  73.3878740 102.4185140  23.1042940  73.7181750 101.5506200  22.8721580
  73.8169740 102.6243660  23.9347900  77.9840660 100.7494150  20.7644910
  77.6836200 100.6259120  21.6648820  77.8778150  99.8902740  20.3560640
  73.8768950 103.2855730  25.8424570  73.4399940 103.4656530  26.6748720
  74.4446630 104.0430350  25.7006290  89.5131130 102.7872730  30.1301880
  88.9133120 102.8465290  29.3865800  89.6425030 101.8477710  30.2598730
  90.7532580 100.5290550  15.4671590  89.9225540 100.5967200  15.9378820
  90.9304410 101.4194670  15.1638450  90.2089040  97.2738030  17.9705790
  90.9707950  97.8434680  18.0765480  90.2243410  96.7065230  18.7414100
  73.7093380  95.7975960  22.2013450  73.0542220  95.5287600  21.5573150
  74.5471330  95.6880440  21.7515430  91.2149010  98.1288130  22.8147720
  91.5857840  97.3455450  22.4083690  91.8550940  98.8177230  22.6365020
  88.1982770  99.5124710  28.2278040  87.3842610  99.9421870  28.4903830
  88.6056970 100.1243120  27.6147090  90.2608210  97.5672400  15.1278310
  90.5357050  98.4751280  14.9997530  90.0718950  97.5034930  16.0640300
  86.6583820  90.5917250  16.4231940  87.0768700  90.4048230  15.5828600
  86.3519880  89.7396300  16.7334870  90.1573550  95.5041390  20.1207740
  89.7817150  94.7369320  19.6889030  89.4276670  95.8864090  20.6082670
  74.7469310  96.1828530  26.7416790  75.1142350  96.0955930  27.6212810
  74.1780130  95.4195080  26.6423650  89.5473170  94.6512910  29.7547260
  89.3159260  94.4225660  28.8545210  89.8077720  95.5712460  29.7092150
  74.2985310  93.0937620  30.6475210  73.4041360  93.0604380  30.9868920
  74.8382860  93.2924410  31.4126460  87.9861240  89.8769340  32.5326960
  88.8631420  89.8852740  32.9160960  87.9982080  89.1400180  31.9219310
  72.9231460  93.0074890  18.1438780  72.0195540  93.2705090  17.9690440
  73.4072080  93.2786060  17.3638740  89.4324510  93.7298880  23.4214980
  89.9561990  93.2361530  22.7905150  90.0183930  93.8649240  24.1662550
  89.6114230  93.8138750  26.9434530  88.6616940  93.7802290  27.0579520
  89.7927240  94.7238860  26.7084300  75.4658670  92.0640430  16.0533160
  76.1750370  91.6423650  15.5680440  74.7498610  92.1315660  15.4216510
  75.1132830  88.1179760  15.0935810  75.8360960  88.6588700  15.4117030
  75.3857350  87.8443180  14.2177350  88.9224480  92.9872230  19.3607390
  89.4183600  92.7543100  20.1456270  88.7240550  92.1484070  18.9445030
  74.8025020  87.3685950  24.9958430  75.4501210  86.8183330  24.5553590
  75.2226860  87.6229100  25.8174240  90.3511640  91.6233180  21.8945070
  90.2410920  91.4689220  22.8327340  91.1119230  91.0954120  21.6520480
  88.6977360  87.5627310  28.3528070  89.3349580  88.1761450  28.7187260
  88.8452250  87.5987970  27.4077300  91.2401910  89.4541100  15.1351210
  92.1651220  89.3222280  14.9269500  91.2177700  89.5333920  16.0887660
  91.3140400  90.2251760  17.7607920  90.5191900  90.1596880  18.2900830
  91.5183680  91.1602400  17.7493270  88.2558820 104.2643310  21.7546310
  88.8517890 103.9427880  21.0780730  88.5136970 103.7915130  22.5459580
  74.5557020  87.5241620  27.7383750  74.2071840  87.9805440  28.5041930
  74.2244720  86.6298750  27.8206180  76.1621390 100.6961220  31.9036940
  76.1191020 100.3254130  32.7851400  76.2932400 101.6338790  32.0438760
  79.8627420 102.2520810  27.5046660  79.6218780 102.5195370  26.6177180
  80.8030060 102.4226540  27.5597520  82.0681840  88.7153500  31.2603170
  82.0070730  89.3075330  32.0098580  83.0082220  88.6079460  31.1153430
  84.7056400  88.3723560  30.8995460  85.3196810  88.6902850  30.2376540
  85.2505960  87.8872150  31.5191320  91.1231580 104.2715190  28.3057300
  90.6289860 104.6684060  27.5884430  90.5144870 103.6464400  28.6994580
  75.2277660  87.0517820  31.0134520  75.7760650  86.8705870  30.2500630
  75.2932970  86.2611930  31.5490830  76.0009420 103.6423470  29.0234720
  75.4069740 103.5108170  29.7624760  75.9933260 102.8061610  28.5576820
  85.4464440  86.9355700  27.2264750  84.5724280  87.2690810  27.0237680
  85.3375190  86.4628880  28.0516620  86.3536420  89.1426570  28.6106470
  86.0249780  88.3278330  28.2308200  87.3018720  89.0996380  28.4872160
  88.8071030 104.9138610  25.5844040  88.3474000 105.6654420  25.2102060
  88.1783490 104.1945080  25.5258840  75.6321650 101.0081850  27.9742760
  74.9055710 100.3887140  27.9068710  75.6930800 101.4022460  27.1040840
  79.2366750 103.2226850  24.7592170  79.7531770 102.6114210  24.2340430
  79.8864130 103.7255630  25.2503180  81.9762250 104.1135340  25.5861150
  82.2640060 103.8589640  24.7094160  82.4885470 103.5612700  26.1766720
  83.1939260  87.8525540  26.1657660  82.4111050  88.3271040  26.4454420
  82.9002190  86.9480370  26.0570840  87.7460330  88.5548640  24.2106750
  88.1868420  88.4993740  23.3628350  87.4767920  89.4706650  24.2816930
  89.6098900  88.1863880  22.2215570  89.5487300  87.2425100  22.0746590
  90.3890930  88.2943970  22.7669030  73.9151650 104.3256240  21.1839520
  73.7473690 103.6926920  21.8821410  73.0486160 104.5315640  20.8333710
  74.5379670  88.1573020  18.6871380  75.2959030  88.2701900  18.1135410
  74.0756840  88.9942220  18.6414810  81.0793480  90.2712290  21.6773690
  80.2667990  89.8969180  21.3369570  81.5835120  89.5157370  21.9794880
  85.5818460  86.9354740  22.9156760  86.1847830  87.5074950  23.3905280
  84.8411450  87.4994180  22.6930660  88.7253060  87.3376300  18.1897040
  88.9203690  88.2359750  18.4564470  87.9382930  87.1063380  18.6829990
  75.5214350 103.0189470  18.6289660  74.9961970 103.3997500  17.9251620
  75.4458930 103.6440240  19.3499370  76.9104820  88.6837070  17.2273350
  77.4397580  87.8966870  17.0981300  77.5433140  89.3628260  17.4608880
  79.1042660  88.4212210  20.2818740  78.4745400  87.7199520  20.4488870
  78.5647800  89.1816340  20.0651900  82.0434610 105.0351440  32.9529350
  82.9701920 104.7995710  32.9965310  82.0285040 105.8623440  32.4715380
  90.2779670 104.5777010  19.9503600  90.4531860 103.8914750  19.3064520
  89.5801240 105.1024060  19.5580270  79.2298220  87.6996190  32.7171230
  78.9482490  88.2029790  31.9532050  79.6117920  86.9017940  32.3513360
  78.1207320 104.9671850  17.5038910  78.8526140 104.6831130  16.9562800
  78.3800990 104.7285130  18.3938290  77.2822110 101.0836580  17.5085240
  76.6530990 101.5521680  18.0571070  77.3969940 100.2385800  17.9431430
  85.8313680  87.1149770  33.2951700  85.7179130  87.4344380  34.1903220
  86.6483420  87.5162280  32.9988980  88.6112170 104.2621300  32.7770390
  89.4037490 103.7670530  32.5696350  88.9045320 104.9411440  33.3846000
  84.7371830  95.1342240   3.6586440  84.6565880  94.2196850   3.3878150
  84.3236250  95.6309310   2.9526150  82.8689870  96.9121260   5.5395710
  82.0931970  96.4321700   5.8294280  83.5202800  96.2326910   5.3651870
  76.8855700  97.2241070   6.4171470  76.0540580  96.9689780   6.8167980
  77.4936680  97.2951840   7.1529390  86.8897300 101.3181450   4.3194840
  86.4278830 100.5468690   4.6482010  87.7022850 101.3447520   4.8247290
  76.8656960 101.2581160   6.6129490  77.1685000 100.3678900   6.4339710
  77.6100550 101.8151380   6.3851740  73.2580660  94.7848610   6.0853560
  73.8296770  94.0170810   6.0857200  73.2582200  95.0837370   5.1760170
  83.1160610 103.6039460   3.9398830  82.4972050 104.0596960   3.3693270
  83.9712390 103.7590920   3.5388530  82.3098860  99.5878450   5.5465870
  82.2407140  98.6468390   5.3855000  83.0718720  99.6779860   6.1188440
  74.5005530  90.1932970   7.8722490  74.3208370  89.2958720   8.1525250
  74.0985610  90.7404840   8.5469440  83.3404030  92.3948830   5.7734800
  83.7168850  91.5220710   5.6608470  83.2423540  92.7307530   4.8825240
  87.1228150  89.8899270   2.7063140  87.9437770  89.3995840   2.7488620
  87.1562230  90.4796930   3.4594980  75.1192200  92.6893470   6.4804830
  75.8002310  92.9531840   7.0992230  74.8040250  91.8494340   6.8142840
  79.3116770  93.7360830   5.5677420  79.8194990  94.2341800   6.2082440
  79.8430010  92.9596030   5.3916780  91.4127700  91.9066020   9.2706770
  90.7079870  92.2947730   8.7521880  91.6785620  92.6016310   9.8727700
  77.5952870  88.3759390   9.8340840  77.5971310  88.8931780   9.0286740
  76.7657180  87.8989570   9.8110770  78.8455720  98.0154570   8.0114340
  78.5125100  98.6423490   8.6535410  79.0222400  98.5416450   7.2316010
  87.3589630  91.8299650   5.4790680  86.6545200  92.1184540   6.0593790
  87.7201790  92.6399760   5.1190240  77.2768200  90.0869350   7.8411290
  77.6185010  90.9311400   7.5465160  76.3384010  90.2353090   7.9576630
  78.0574820  99.9835370   9.8263520  78.6748820 100.6586450   9.5447970
  77.1967940 100.3923350   9.7351020  88.9752410 101.4474780   7.7418160
  88.2915930 102.1173890   7.7334830  89.5146700 101.6455430   6.9763020
  90.4276550  91.2754440   5.8699890  89.4801460  91.3093420   6.0015320
  90.7526540  92.0893390   6.2549250  80.9596090  87.5751620   4.1655880
  81.2671070  87.0198510   3.4491380  80.0296790  87.7096080   3.9828870
  86.5111150 103.2918910   6.4563340  86.5238310 102.8881200   5.5885600
  85.9586370 104.0666200   6.3524770  85.9096590  98.1948750   7.7845950
  86.3265380  97.9808860   6.9499410  86.6336410  98.4521540   8.3554570
  89.8558690  96.5935970   7.8762190  89.0277320  96.6629060   7.4012320
  90.4509170  97.1790280   7.4078020  86.8200700  93.3805290   8.8217060
  86.4071880  94.2059000   9.0757050  86.0876650  92.7950330   8.6293420
  78.9533490  96.1665190   3.6835730  78.5490490  95.4542440   3.1881630
  79.0396610  95.8218430   4.5723770  79.4215190  99.8532750   5.8474940
  79.1243480  99.2478220   5.1682720  80.3715010  99.8910060   5.7364300
  77.6662110  92.9408400   7.4634770  78.2176700  93.0503740   6.6888020
  78.1805620  93.3146000   8.1790000  87.5100800 103.4264620   9.5098040
  87.0331360 104.2336810   9.3170650  86.8262590 102.7742950   9.6624250
  78.5133620  99.5914440  12.4982740  77.6162150  99.8154410  12.7456140
  78.5386490  99.7149380  11.5494140  77.3404840  96.4627760  11.0740110
  77.2012610  97.3350560  11.4427510  76.4586200  96.1200570  10.9288050
  83.6634220 101.3803630   2.3805240  84.1030130 102.1227960   1.9660630
  83.6021110 101.6230200   3.3044200  79.1385190 102.4049460  13.2825260
  79.1100620 102.8092410  12.4153690  78.9750160 101.4759820  13.1196860
  91.0900010 103.1876560  14.5789430  91.5659730 103.6659450  15.2578510
  91.7107170 103.1194050  13.8534930  73.2923490  98.2325310   6.9911020
  73.3703910  98.3674080   6.0466740  73.9065170  97.5241200   7.1839140
  74.5371120  99.9325500   3.4017200  74.1299200 100.0740090   2.5470800
  75.4284130  99.6485660   3.1988410  90.4933260 100.3789410  11.7389440
  90.6196320 100.1401290  10.8206620  90.5354640  99.5473950  12.2111520
  84.3550000 104.0817410  10.3084250  84.8694670 103.9925420  11.1106680
  83.5119080 104.4277110  10.6012160  85.5980460 103.5023020   2.3714740
  86.0537410 102.7212400   2.6853360  85.9372980 104.2129840   2.9155920
  90.3457270  92.4321870  12.7039180  89.7301540  92.9401540  12.1754640
  90.0253690  91.5320200  12.6465120  73.3483010  99.2739480   9.5305480
  73.5114050  98.8044840   8.7124850  73.8135460  98.7663040  10.1954320
  78.1201780  88.4045240   4.5666050  77.6769930  89.1854780   4.2350570
  78.6786770  88.7275130   5.2736990  82.4071590  91.2713760  10.1701370
  81.9450960  91.4796780  10.9821310  82.0049700  90.4573110   9.8672040
  87.4076100  92.4922710  11.2998030  86.5569690  92.1928460  11.6207100
  87.2477890  92.7364720  10.3881850  84.5025810  93.9924460  13.3996820
  84.8279220  93.1588210  13.0599050  85.2906140  94.5152980  13.5475150
  80.1577680  88.9492570   6.4255650  80.4550010  89.8555400   6.3447670
  80.7063240  88.4611350   5.8115220  77.9116000  93.5278810   2.2947300
  77.6856920  93.3115980   3.1993920  77.1308530  93.9607270   1.9493270
  80.3515210  94.4264390  12.9607570  80.2558810  93.4859120  12.8107970
  81.1947190  94.6479460  12.5655640  83.7478630  92.1705720   2.9241230
  84.1408200  92.4877920   2.1109920  84.1095480  91.2917600   3.0385750
  75.4825750  90.8378060  11.1141350  75.0889140  91.6853270  11.3214130
  74.7944150  90.2004430  11.3049990  82.0570800  90.9213030  14.1838090
  81.3669120  90.7285230  14.8184180  82.8003100  91.2047670  14.7162390
  72.7842800  88.7606520   5.1471430  72.4955850  89.3309380   5.8596410
  73.5288560  88.2810970   5.5102660  84.3333770  94.7611470   7.0192010
  83.6014890  95.2698280   7.3682110  83.9358110  93.9441450   6.7180790
  80.7711160  91.4365670   5.4244500  80.7747220  90.9955620   4.5749040
  81.6662280  91.7583000   5.5316320  76.6213540  91.3192160   4.3838710
  76.2813590  91.7967390   5.1405760  75.8590860  90.8657280   4.0239810
  84.7959680  90.2145150   6.4314950  84.8132420  90.6653800   7.2756800
  84.5475260  89.3150790   6.6448390  88.2230430  87.6277330  12.2701330
  88.5476200  86.8966990  12.7959310  88.2586940  87.3090970  11.3682320
  74.9221990  98.6490910  11.6901290  74.5376780  98.0084580  12.2884250
  75.2334180  99.3527030  12.2596020  81.0719130  95.4967450   7.1709910
  81.4389260  95.0226020   7.9171250  80.8824190  96.3709020   7.5118250
  73.9359620  90.2411140   3.3003380  73.6506540  89.8766810   4.1382000
  73.8738480  89.5091600   2.6866520  78.8618500  94.5376090   9.4894120
  78.5575570  95.4168070   9.7144480  79.8164960  94.5975880   9.5251560
  88.1488270  97.7402440   5.8787360  88.8687390  98.2357730   5.4883470
  87.9470090  97.0620330   5.2341230  83.5307070  97.8111500  11.7656360
  83.4644380  96.8907170  11.5113950  82.9012210  97.9086940  12.4801000
  77.4337690  98.4117460   3.7239780  77.9516360  97.6085720   3.6696670
  76.9821710  98.3496600   4.5656610  74.9182230  95.3778830  10.6365480
  74.5597170  96.0432680  11.2238820  74.6236790  94.5462380  11.0078100
  78.1195350  95.8363070  13.5205030  77.8195490  95.9820250  12.6232850
  78.8906590  95.2768360  13.4278420  83.4623800 100.6332070  11.5160160
  83.4768340  99.7013030  11.2979070  82.7548900 100.7191830  12.1549930
  89.6735010  97.2739410  10.8628740  88.9483200  97.8668190  10.6658130
  90.2010470  97.2662950  10.0642110  85.2034600  98.9999580   4.3612590
  85.5558420  98.4027710   3.7013960  84.3196930  98.6743810   4.5320840
  81.2897880  99.7597270   1.7683000  81.9769010 100.3066480   2.1490590
  80.5030300 100.3038000   1.8032610  82.8957700 102.2749640   8.6100660
  83.5399920 102.4809020   9.2874080  83.2587140 101.5138040   8.1571510
  84.1689780 100.2781990   7.3278110  84.8112010  99.5775150   7.4410280
  84.6939130 101.0580430   7.1475000  85.9427400 101.0776890  10.5314170
  86.2783640 101.6643580  11.2092090  85.0227740 100.9469600  10.7611960
  73.4930800  88.8672070  11.3137580  72.7789320  89.0668990  11.9190190
  73.9125840  88.0911640  11.6852380  73.7803390 102.8552330  12.3004110
  73.8894510 101.9147070  12.1599500  73.1283950 103.1207080  11.6517840
  81.7715980 101.1268220  13.7002230  81.4512850 100.4077460  14.2447920
  81.0974340 101.8023290  13.7738290  84.9869580  91.3594380   9.0639030
  85.3550400  90.5389590   9.3918600  84.1267780  91.4196270   9.4794680
  81.9471570  94.0133970   9.2877000  82.4456820  94.4879790   9.9528850
  82.0894520  93.0897490   9.4947030  84.3531070  89.3187930   2.7280260
  84.2298850  89.3374060   1.7789770  85.3015630  89.3666870   2.8478660
  89.1538430  90.2301930  10.1305390  88.6512030  90.9707330  10.4699200
  89.9695090  90.6185930   9.8142180  87.4460440  95.4735110   3.5766750
  86.5050580  95.4885340   3.7514440  87.7604510  94.6871070   4.0227050
  89.4486020 102.6443960   5.2521010  89.5733440 103.4675130   5.7244820
  90.3151580 102.4334690   4.9045160  76.9203550 104.7375170   4.9238140
  77.6566030 104.1890630   5.1946710  77.3044470 105.6031180   4.7844130
  75.9261830 103.9221240  14.1123720  76.7274560 104.2433290  14.5259120
  75.4113650 103.5616820  14.8343630  84.7626460 100.0301110  14.0599130
  84.1564620 100.0532710  13.3194880  84.4580570  99.2984150  14.5966380
  86.1926830 103.7581400  12.6708540  87.1448580 103.6739420  12.6208780
  86.0455050 104.4223110  13.3442330  73.6459640  96.4094700  13.0559770
  74.1498660  95.8301980  13.6276000  72.9067060  96.6934930  13.5936140
  80.6997580  97.8165690  12.5895290  79.9343250  98.3850690  12.5049960
  80.8813540  97.5241900  11.6963520  87.8420930  99.5471020  13.1470310
  88.5830400  99.8846780  12.6437770  87.0793610  99.7163080  12.5940080
  75.6782720  94.5524290  13.9509840  75.7188060  94.2538160  14.8595070
  76.5328220  94.9531900  13.7917360  77.6188530  93.1316390  11.9184330
  77.0884990  92.6407340  11.2907670  78.2876600  93.5600590  11.3842260
  86.5166590  97.5985850  11.6825520  86.9307610  97.7530930  12.5315940
  85.5817590  97.7241070  11.8451300  86.9888760  94.9382010  13.6864670
  87.5709530  94.1834330  13.5985150  87.1650530  95.4689450  12.9096150
  78.1060830  90.0978760  11.9981620  78.0117700  89.4799510  11.2732490
  77.5258220  90.8245050  11.7711530  80.8722270  88.6552000   9.0309010
  80.4239570  88.6776260   8.1854560  80.2387470  88.2571020   9.6279310
  81.2781820  97.5506330   9.6521450  81.6969930  98.3939060   9.4797690
  80.3590450  97.6878370   9.4228230  83.6145720  95.2822510  11.0359290
  83.7341930  94.6863650  11.7754130  84.4739720  95.3192200  10.6160590
  85.9533620  95.8359700   9.6121800  85.4268840  96.3602320   9.0086940
  86.2964960  96.4687090  10.2431530  79.1289240 103.8559340  10.7679180
  78.5910330 104.5805400  10.4487880  79.3823200 103.3789680   9.9776520
  80.3814490  91.8243860  12.2935110  80.9714180  91.5159710  12.9812930
  79.5634730  91.3523610  12.4495010  85.2007920  91.4409670  12.5268130
  84.5123440  90.7791210  12.4618120  85.9213940  90.9947940  12.9716590
  81.9851450 105.0910550  11.0265830  81.9110150 105.9945690  11.3338200
  81.0830290 104.7722450  10.9987900  73.3878740 102.4185140   4.3299450
  73.7181750 101.5506200   4.0978090  73.8169740 102.6243660   5.1604410
  73.8768950 103.2855730   7.0681080  73.4399940 103.4656530   7.9005230
  74.4446630 104.0430350   6.9262800  89.5131130 102.7872730  11.3558390
  88.9133120 102.8465290  10.6122310  89.6425030 101.8477710  11.4855240
  73.7093380  95.7975960   3.4269960  73.0542220  95.5287600   2.7829660
  74.5471330  95.6880440   2.9771940  91.2149010  98.1288130   4.0404230
  91.5857840  97.3455450   3.6340200  91.8550940  98.8177230   3.8621530
  88.1982770  99.5124710   9.4534550  87.3842610  99.9421870   9.7160340
  88.6056970 100.1243120   8.8403600  74.7469310  96.1828530   7.9673300
  75.1142350  96.0955930   8.8469320  74.1780130  95.4195080   7.8680160
  89.5473170  94.6512910  10.9803770  89.3159260  94.4225660  10.0801720
  89.8077720  95.5712460  10.9348660  74.2985310  93.0937620  11.8731720
  73.4041360  93.0604380  12.2125430  74.8382860  93.2924410  12.6382970
  87.9861240  89.8769340  13.7583470  88.8631420  89.8852740  14.1417470
  87.9982080  89.1400180  13.1475820  89.4324510  93.7298880   4.6471490
  89.9561990  93.2361530   4.0161660  90.0183930  93.8649240   5.3919060
  89.6114230  93.8138750   8.1691040  88.6616940  93.7802290   8.2836030
  89.7927240  94.7238860   7.9340810  74.8025020  87.3685950   6.2214940
  75.4501210  86.8183330   5.7810100  75.2226860  87.6229100   7.0430750
  90.3511640  91.6233180   3.1201580  90.2410920  91.4689220   4.0583850
  91.1119230  91.0954120   2.8776990  88.6977360  87.5627310   9.5784580
  89.3349580  88.1761450   9.9443770  88.8452250  87.5987970   8.6333810
  88.2558820 104.2643310   2.9802820  88.8517890 103.9427880   2.3037240
  88.5136970 103.7915130   3.7716090  74.5557020  87.5241620   8.9640260
  74.2071840  87.9805440   9.7298440  74.2244720  86.6298750   9.0462690
  76.1621390 100.6961220  13.1293450  76.1191020 100.3254130  14.0107910
  76.2932400 101.6338790  13.2695270  79.8627420 102.2520810   8.7303170
  79.6218780 102.5195370   7.8433690  80.8030060 102.4226540   8.7854030
  82.0681840  88.7153500  12.4859680  82.0070730  89.3075330  13.2355090
  83.0082220  88.6079460  12.3409940  84.7056400  88.3723560  12.1251970
  85.3196810  88.6902850  11.4633050  85.2505960  87.8872150  12.7447830
  91.1231580 104.2715190   9.5313810  90.6289860 104.6684060   8.8140940
  90.5144870 103.6464400   9.9251090  75.2277660  87.0517820  12.2391030
  75.7760650  86.8705870  11.4757140  75.2932970  86.2611930  12.7747340
  76.0009420 103.6423470  10.2491230  75.4069740 103.5108170  10.9881270
  75.9933260 102.8061610   9.7833330  85.4464440  86.9355700   8.4521260
  84.5724280  87.2690810   8.2494190  85.3375190  86.4628880   9.2773130
  86.3536420  89.1426570   9.8362980  86.0249780  88.3278330   9.4564710
  87.3018720  89.0996380   9.7128670  88.8071030 104.9138610   6.8100550
  88.3474000 105.6654420   6.4358570  88.1783490 104.1945080   6.7515350
  75.6321650 101.0081850   9.1999270  74.9055710 100.3887140   9.1325220
  75.6930800 101.4022460   8.3297350  79.2366750 103.2226850   5.9848680
  79.7531770 102.6114210   5.4596940  79.8864130 103.7255630   6.4759690
  81.9762250 104.1135340   6.8117660  82.2640060 103.8589640   5.9350670
  82.4885470 103.5612700   7.4023230  83.1939260  87.8525540   7.3914170
  82.4111050  88.3271040   7.6710930  82.9002190  86.9480370   7.2827350
  87.7460330  88.5548640   5.4363260  88.1868420  88.4993740   4.5884860
  87.4767920  89.4706650   5.5073440  89.6098900  88.1863880   3.4472080
  89.5487300  87.2425100   3.3003100  90.3890930  88.2943970   3.9925540
  73.9151650 104.3256240   2.4096030  73.7473690 103.6926920   3.1077920
  73.0486160 104.5315640   2.0590220  81.0793480  90.2712290   2.9030200
  80.2667990  89.8969180   2.5626080  81.5835120  89.5157370   3.2051390
  85.5818460  86.9354740   4.1413270  86.1847830  87.5074950   4.6161790
  84.8411450  87.4994180   3.9187170  82.0434610 105.0351440  14.1785860
  82.9701920 104.7995710  14.2221820  82.0285040 105.8623440  13.6971890
  79.2298220  87.6996190  13.9427740  78.9482490  88.2029790  13.1788560
  79.6117920  86.9017940  13.5769870  85.8313680  87.1149770  14.5208210
  85.7179130  87.4344380  15.4159730  86.6483420  87.5162280  14.2245490
  88.6112170 104.2621300  14.0026900  89.4037490 103.7670530  13.7952860
  88.9045320 104.9411440  14.6102510  84.7371830  76.3598750  97.5303890
  84.6565880  75.4453360  97.2595600  84.3236250  76.8565820  96.8243600
  82.8689870  78.1377770  99.4113160  82.0931970  77.6578210  99.7011730
  83.5202800  77.4583420  99.2369320  76.8855700  78.4497580 100.2888920
  76.0540580  78.1946290 100.6885430  77.4936680  78.5208350 101.0246840
  86.8897300  82.5437960  98.1912290  86.4278830  81.7725200  98.5199460
  87.7022850  82.5704030  98.6964740  76.8656960  82.4837670 100.4846940
  77.1685000  81.5935410 100.3057160  77.6100550  83.0407890 100.2569190
  75.2947650  73.4099470  94.0731310  74.4064350  73.7515440  93.9711190
  75.5788840  73.2099790  93.1812140  73.2580660  76.0105120  99.9571010
  73.8296770  75.2427320  99.9574650  73.2582200  76.3093880  99.0477620
  83.1160610  84.8295970  97.8116280  82.4972050  85.2853470  97.2410720
  83.9712390  84.9847430  97.4105980  82.3098860  80.8134960  99.4183320
  82.2407140  79.8724900  99.2572450  83.0718720  80.9036370  99.9905890
  74.5005530  71.4189480 101.7439940  74.3208370  70.5215230 102.0242700
  74.0985610  71.9661350 102.4186890  83.3404030  73.6205340  99.6452250
  83.7168850  72.7477220  99.5325920  83.2423540  73.9564040  98.7542690
  77.4709040  71.9930970  95.1069690  77.5775790  72.8934700  95.4138450
  76.5601400  71.9448940  94.8164340  87.1228150  71.1155780  96.5780590
  87.9437770  70.6252350  96.6206070  87.1562230  71.7053440  97.3312430
  75.1192200  73.9149980 100.3522280  75.8002310  74.1788350 100.9709680
  74.8040250  73.0750850 100.6860290  79.3116770  74.9617340  99.4394870
  79.8194990  75.4598310 100.0799890  79.8430010  74.1852540  99.2634230
  83.9823960  79.7135210  95.2048190  83.3641230  80.1784660  94.6410910
  84.4947210  80.4062690  95.6217700  78.8455720  79.2411080 101.8831790
  78.5125100  79.8680000 102.5252860  79.0222400  79.7672960 101.1033460
  87.3589630  73.0556160  99.3508130  86.6545200  73.3441050  99.9311240
  87.7201790  73.8656270  98.9907690  77.2768200  71.3125860 101.7128740
  77.6185010  72.1567910 101.4182610  76.3384010  71.4609600 101.8294080
  73.3507160  80.3991740  92.5787820  72.9735140  80.8878840  91.8472720
  73.6080230  81.0717020  93.2094350  88.9752410  82.6731290 101.6135610
  88.2915930  83.3430400 101.6052280  89.5146700  82.8711940 100.8480470
  90.4276550  72.5010950  99.7417340  89.4801460  72.5349930  99.8732770
  90.7526540  73.3149900 100.1266700  80.9596090  68.8008130  98.0373330
  81.2671070  68.2455020  97.3208830  80.0296790  68.9352590  97.8546320
  86.5111150  84.5175420 100.3280790  86.5238310  84.1137710  99.4603050
  85.9586370  85.2922710 100.2242220  87.8056570  81.2391640  95.4170960
  87.6952900  80.2965970  95.5420380  87.8024820  81.6007280  96.3033720
  85.9096590  79.4205260 101.6563400  86.3265380  79.2065370 100.8216860
  86.6336410  79.6778050 102.2272020  83.3476850  76.8656960  94.7733450
  82.4206130  76.7994340  95.0021920  83.5001670  77.8037090  94.6588690
  83.3345930  73.1373960  91.7700610  82.3949600  73.2987920  91.8553070
  83.6529190  73.8559640  91.2236600  89.8558690  77.8192480 101.7479640
  89.0277320  77.8885570 101.2729770  90.4509170  78.4046790 101.2795470
  87.3774140  78.4277260  95.2768700  86.7586560  78.0896810  94.6295000
  87.3598590  77.7837020  95.9847890  78.9533490  77.3921700  97.5553180
  78.5490490  76.6798950  97.0599080  79.0396610  77.0474940  98.4441220
  79.4215190  81.0789260  99.7192390  79.1243480  80.4734730  99.0400170
  80.3715010  81.1166570  99.6081750  77.6662110  74.1664910 101.3352220
  78.2176700  74.2760250 100.5605470  78.1805620  74.5402510 102.0507450
  85.5538840  77.6664070  92.2841450  85.9932120  76.8286500  92.1379270
  86.2667260  78.2993470  92.3705590  83.6634220  82.6060140  96.2522690
  84.1030130  83.3484470  95.8378080  83.6021110  82.8486710  97.1761650
  89.1355980  68.9206880  90.5982490  88.8228640  69.0133710  91.4981560
  89.8968450  69.4987910  90.5479920  75.6538120  76.2866680  95.0559830
  75.5335720  77.0128770  94.4441100  75.3439010  75.5169590  94.5787740
  73.2923490  79.4581820 100.8628470  73.3703910  79.5930590  99.9184190
  73.9065170  78.7497710 101.0556590  74.5371120  81.1582010  97.2734650
  74.1299200  81.2996600  96.4188250  75.4284130  80.8742170  97.0705860
  86.3304400  85.5929260  93.6085700  86.1705540  85.3032200  94.5067530
  86.1651110  84.8169390  93.0730930  78.8092780  85.3727790  95.3857320
  78.6335260  84.4563330  95.1725120  77.9548520  85.7315080  95.6255120
  86.0330530  83.1016820  92.1683700  85.3395690  83.0994110  91.5085980
  86.7753390  82.6776140  91.7377870  85.5980460  84.7279530  96.2432190
  86.0537410  83.9468910  96.5570810  85.9372980  85.4386350  96.7873370
  78.1201780  69.6301750  98.4383500  77.6769930  70.4111290  98.1068020
  78.6786770  69.9531640  99.1454440  81.2360600  69.2512450  93.3189330
  80.6114780  69.2472320  94.0442640  81.1490720  68.3843410  92.9225300
  80.1577680  70.1749080 100.2973100  80.4550010  71.0811910 100.2165120
  80.7063240  69.6867860  99.6832670  77.9116000  74.7535320  96.1664750
  77.6856920  74.5372490  97.0711370  77.1308530  75.1863780  95.8210720
  85.1413760  74.7598690  94.7655400  84.5422650  75.4834490  94.5819020
  85.6893370  74.6975470  93.9831850  83.7478630  73.3962230  96.7958680
  84.1408200  73.7134430  95.9827370  84.1095480  72.5174110  96.9103200
  72.7842800  69.9863030  99.0188880  72.4955850  70.5565890  99.7313860
  73.5288560  69.5067480  99.3820110  72.9713030  73.9283150  90.2291600
  72.8887700  74.8713910  90.3706590  72.6196090  73.7858060  89.3503950
  84.3333770  75.9867980 100.8909460  83.6014890  76.4954790 101.2399560
  83.9358110  75.1697960 100.5898240  80.7711160  72.6622180  99.2961950
  80.7747220  72.2212130  98.4466490  81.6662280  72.9839510  99.4033770
  76.6213540  72.5448670  98.2556160  76.2813590  73.0223900  99.0123210
  75.8590860  72.0913790  97.8957260  80.8331310  73.6634260  92.2868710
  80.9544130  73.6220740  93.2354530  80.4479820  74.5258410  92.1315440
  84.7959680  71.4401660 100.3032400  84.8132420  71.8910310 101.1474250
  84.5475260  70.5407300 100.5165840  79.8452810  75.9735400  91.6852010
  79.2769710  75.5253650  91.0587920  80.5541810  76.3328180  91.1517160
  81.0719130  76.7223960 101.0427360  81.4389260  76.2482530 101.7888700
  80.8824190  77.5965530 101.3835700  73.9359620  71.4667650  97.1720830
  73.6506540  71.1023320  98.0099450  73.8738480  70.7348110  96.5583970
  77.3900290  79.9693590  93.9578420  76.6162550  79.4291210  93.7977140
  78.1194920  79.4500200  93.6196180  88.1488270  78.9658950  99.7504810
  88.8687390  79.4614240  99.3600920  87.9470090  78.2876840  99.1058680
  83.6098210  70.3596910  93.8934200  82.7962820  69.8610080  93.8179510
  83.4160160  71.1995160  93.4770550  86.3246600  74.7316560  92.1896360
  87.2126220  75.0433790  92.0147700  86.2951690  73.8588810  91.7976940
  77.4337690  79.6373970  97.5957230  77.9516360  78.8342230  97.5414120
  76.9821710  79.5753110  98.4374060  82.3207190  80.9040250  92.8684530
  82.6622890  81.6482480  92.3727850  81.4919900  81.2171370  93.2309360
  88.5960870  76.0428400  91.6576220  88.5124590  76.4742620  90.8072660
  89.3155060  76.5026750  92.0903040  89.6248120  82.8970660  94.3858350
  88.9824280  82.2426280  94.6602070  89.2378780  83.3025750  93.6099020
  85.2034600  80.2256090  98.2330040  85.5558420  79.6284220  97.5731410
  84.3196930  79.9000320  98.4038290  81.2897880  80.9853780  95.6400450
  81.9769010  81.5322990  96.0208040  80.5030300  81.5294510  95.6750060
  73.4290280  76.6026600  91.1317530  74.2985130  76.8851400  91.4153450
  72.9380600  77.4162470  91.0166340  80.5925090  77.9899810  95.2525810
  81.0487870  78.8005060  95.4786000  80.2413300  77.6722950  96.0844300
  76.4936870  68.3337460  95.7248330  76.3651500  68.3255360  96.6733250
  75.6698890  68.6720550  95.3739340  84.1689780  81.5038500 101.1995560
  84.8112010  80.8031660 101.3127730  84.6939130  82.2836940 101.0192450
  88.0145500  81.7887120  90.9234700  87.7883080  81.0717560  91.5159340
  87.6241700  81.5399560  90.0856450  73.7961530  85.8153980  91.6979160
  74.1559170  86.4143320  91.0436430  73.6553870  86.3613870  92.4714190
  87.5961750  79.7059060  92.5848860  87.3083450  80.1671750  93.3726740
  88.3913920  79.2456830  92.8533080  79.8130150  83.1985180  92.5152830
  79.8040250  83.9314870  91.8997340  78.8928510  82.9516760  92.6079790
  75.4136790  78.4200070  93.2599590  74.8064740  79.1598970  93.2694890
  75.8886140  78.5099430  92.4337790  88.3531610  71.5407830  93.7444040
  87.7244770  71.6453500  93.0302270  87.8583530  71.7604610  94.5337920
  82.7989750  83.2613420  91.1778020  82.9001730  83.0577410  90.2480000
  81.8991490  83.0071700  91.3825800  80.3215640  73.8193780  95.1601920
  79.6131790  74.2880120  95.6015530  80.6060120  73.1615790  95.7947110
  84.3531070  70.5444440  96.5997710  84.2298850  70.5630570  95.6507220
  85.3015630  70.5923380  96.7196110  81.4407860  85.7799740  95.8725690
  81.6949360  85.7421130  94.9505060  80.4920340  85.6533070  95.8653940
  78.5250660  72.1278860  92.5352630  79.3741190  72.5649010  92.4692820
  78.1581930  72.4399120  93.3624690  87.4460440  76.6991620  97.4484200
  86.5050580  76.7141850  97.6231890  87.7604510  75.9127580  97.8944500
  77.4242080  78.3811220  91.0088160  78.1905350  78.2692580  91.5713590
  77.5016770  77.6849190  90.3564930  76.1188840  75.8136290  91.6921050
  76.1992430  74.8663800  91.8038450  77.0108590  76.1443170  91.7981710
  89.4486020  83.8700470  99.1238460  89.5733440  84.6931640  99.5962270
  90.3151580  83.6591200  98.7762610  76.9203550  85.9631680  98.7955590
  77.6566030  85.4147140  99.0664160  77.3044470  86.8287690  98.6561580
  73.8049030  82.0305250  94.6697100  72.8788810  82.2726390  94.6602510
  74.2705460  82.8579510  94.5481850  80.0305860  85.1361990  90.6181160
  80.8234470  85.4250820  90.1662950  79.5110210  84.7054160  89.9393640
  89.0836030  84.3632120  92.0417900  88.7977540  83.9497260  91.2272080
  88.8855580  85.2919830  91.9218420  80.5483260  80.3565400  90.4823510
  80.4433900  79.7417750  91.2084890  80.3807480  79.8331290  89.6986520
  83.7885990  79.4185430  91.0865500  83.2396090  79.8654730  91.7308240
  84.4105250  78.9134680  91.6103170  79.4561110  78.3776350  92.9830800
  79.8777530  78.2116220  93.8262190  79.5811950  77.5676580  92.4885940
  81.9688750  77.4013960  90.2307900  82.4894410  76.6862980  89.8649050
  82.6157150  78.0399830  90.5308410  78.3520010  74.4509580  89.9288960
  78.1509070  73.5876940  90.2902300  78.1812060  74.3642940  88.9910560
  85.8308320  69.2617810  92.4575840  86.1110610  68.4185710  92.8135260
  85.0574050  69.4940920  92.9714590  77.1502810  71.5510200  89.9166840
  77.4528710  71.5577630  89.0085990  77.8897400  71.2008060  90.4134500
  80.3687740  70.4944820  90.9023040  80.0209740  69.8168810  90.3225490
  80.5700510  70.0334330  91.7166430  82.5336780  85.4825570  92.5209640
  83.4287570  85.8210540  92.5428400  82.5654410  84.7604980  91.8933920
  76.1732940  80.8552620  90.7496640  76.6107810  81.3982290  91.4054220
  76.6580670  80.0299570  90.7592980  73.3878740  83.6441650  98.2016900
  73.7181750  82.7762710  97.9695540  73.8169740  83.8500170  99.0321860
  77.9840660  81.9750660  95.8618870  77.6836200  81.8515630  96.7622780
  77.8778150  81.1159250  95.4534600  73.8768950  84.5112240 100.9398530
  73.4399940  84.6913040 101.7722680  74.4446630  85.2686860 100.7980250
  90.7532580  81.7547060  90.5645550  89.9225540  81.8223710  91.0352780
  90.9304410  82.6451180  90.2612410  90.2089040  78.4994540  93.0679750
  90.9707950  79.0691190  93.1739440  90.2243410  77.9321740  93.8388060
  73.7093380  77.0232470  97.2987410  73.0542220  76.7544110  96.6547110
  74.5471330  76.9136950  96.8489390  91.2149010  79.3544640  97.9121680
  91.5857840  78.5711960  97.5057650  91.8550940  80.0433740  97.7338980
  90.2608210  78.7928910  90.2252270  90.5357050  79.7007790  90.0971490
  90.0718950  78.7291440  91.1614260  86.6583820  71.8173760  91.5205900
  87.0768700  71.6304740  90.6802560  86.3519880  70.9652810  91.8308830
  90.1573550  76.7297900  95.2181700  89.7817150  75.9625830  94.7862990
  89.4276670  77.1120600  95.7056630  74.7469310  77.4085040 101.8390750
  75.1142350  77.3212440 102.7186770  74.1780130  76.6451590 101.7397610
  72.9231460  74.2331400  93.2412740  72.0195540  74.4961600  93.0664400
  73.4072080  74.5042570  92.4612700  89.4324510  74.9555390  98.5188940
  89.9561990  74.4618040  97.8879110  90.0183930  75.0905750  99.2636510
  89.6114230  75.0395260 102.0408490  88.6616940  75.0058800 102.1553480
  89.7927240  75.9495370 101.8058260  75.4658670  73.2896940  91.1507120
  76.1750370  72.8680160  90.6654400  74.7498610  73.3572170  90.5190470
  75.1132830  69.3436270  90.1909770  75.8360960  69.8845210  90.5090990
  75.3857350  69.0699690  89.3151310  88.9224480  74.2128740  94.4581350
  89.4183600  73.9799610  95.2430230  88.7240550  73.3740580  94.0418990
  74.8025020  68.5942460 100.0932390  75.4501210  68.0439840  99.6527550
  75.2226860  68.8485610 100.9148200  90.3511640  72.8489690  96.9919030
  90.2410920  72.6945730  97.9301300  91.1119230  72.3210630  96.7494440
  91.2401910  70.6797610  90.2325170  92.1651220  70.5478790  90.0243460
  91.2177700  70.7590430  91.1861620  91.3140400  71.4508270  92.8581880
  90.5191900  71.3853390  93.3874790  91.5183680  72.3858910  92.8467230
  88.2558820  85.4899820  96.8520270  88.8517890  85.1684390  96.1754690
  88.5136970  85.0171640  97.6433540  79.8627420  83.4777320 102.6020620
  79.6218780  83.7451880 101.7151140  80.8030060  83.6483050 102.6571480
  88.8071030  86.1395120 100.6818000  88.3474000  86.8910930 100.3076020
  88.1783490  85.4201590 100.6232800  79.2366750  84.4483360  99.8566130
  79.7531770  83.8370720  99.3314390  79.8864130  84.9512140 100.3477140
  81.9762250  85.3391850 100.6835110  82.2640060  85.0846150  99.8068120
  82.4885470  84.7869210 101.2740680  83.1939260  69.0782050 101.2631620
  82.4111050  69.5527550 101.5428380  82.9002190  68.1736880 101.1544800
  87.7460330  69.7805150  99.3080710  88.1868420  69.7250250  98.4602310
  87.4767920  70.6963160  99.3790890  89.6098900  69.4120390  97.3189530
  89.5487300  68.4681610  97.1720550  90.3890930  69.5200480  97.8642990
  73.9151650  85.5512750  96.2813480  73.7473690  84.9183430  96.9795370
  73.0486160  85.7572150  95.9307670  74.5379670  69.3829530  93.7845340
  75.2959030  69.4958410  93.2109370  74.0756840  70.2198730  93.7388770
  81.0793480  71.4968800  96.7747650  80.2667990  71.1225690  96.4343530
  81.5835120  70.7413880  97.0768840  85.5818460  68.1611250  98.0130720
  86.1847830  68.7331460  98.4879240  84.8411450  68.7250690  97.7904620
  88.7253060  68.5632810  93.2871000  88.9203690  69.4616260  93.5538430
  87.9382930  68.3319890  93.7803950  75.5214350  84.2445980  93.7263620
  74.9961970  84.6254010  93.0225580  75.4458930  84.8696750  94.4473330
  76.9104820  69.9093580  92.3247310  77.4397580  69.1223380  92.1955260
  77.5433140  70.5884770  92.5582840  79.1042660  69.6468720  95.3792700
  78.4745400  68.9456030  95.5462830  78.5647800  70.4072850  95.1625860
  90.2779670  85.8033520  95.0477560  90.4531860  85.1171260  94.4038480
  89.5801240  86.3280570  94.6554230  78.1207320  86.1928360  92.6012870
  78.8526140  85.9087640  92.0536760  78.3800990  85.9541640  93.4912250
  77.2822110  82.3093090  92.6059200  76.6530990  82.7778190  93.1545030
  77.3969940  81.4642310  93.0405390  84.7371830  76.3598750  78.7560400
  84.6565880  75.4453360  78.4852110  84.3236250  76.8565820  78.0500110
  82.8689870  78.1377770  80.6369670  82.0931970  77.6578210  80.9268240
  83.5202800  77.4583420  80.4625830  76.8855700  78.4497580  81.5145430
  76.0540580  78.1946290  81.9141940  77.4936680  78.5208350  82.2503350
  86.8897300  82.5437960  79.4168800  86.4278830  81.7725200  79.7455970
  87.7022850  82.5704030  79.9221250  76.8656960  82.4837670  81.7103450
  77.1685000  81.5935410  81.5313670  77.6100550  83.0407890  81.4825700
  75.2947650  73.4099470  75.2987820  74.4064350  73.7515440  75.1967700
  75.5788840  73.2099790  74.4068650  73.2580660  76.0105120  81.1827520
  73.8296770  75.2427320  81.1831160  73.2582200  76.3093880  80.2734130
  83.1160610  84.8295970  79.0372790  82.4972050  85.2853470  78.4667230
  83.9712390  84.9847430  78.6362490  82.3098860  80.8134960  80.6439830
  82.2407140  79.8724900  80.4828960  83.0718720  80.9036370  81.2162400
  74.5005530  71.4189480  82.9696450  74.3208370  70.5215230  83.2499210
  74.0985610  71.9661350  83.6443400  83.3404030  73.6205340  80.8708760
  83.7168850  72.7477220  80.7582430  83.2423540  73.9564040  79.9799200
  77.4709040  71.9930970  76.3326200  77.5775790  72.8934700  76.6394960
  76.5601400  71.9448940  76.0420850  87.1228150  71.1155780  77.8037100
  87.9437770  70.6252350  77.8462580  87.1562230  71.7053440  78.5568940
  75.1192200  73.9149980  81.5778790  75.8002310  74.1788350  82.1966190
  74.8040250  73.0750850  81.9116800  79.3116770  74.9617340  80.6651380
  79.8194990  75.4598310  81.3056400  79.8430010  74.1852540  80.4890740
  91.4127700  73.1322530  84.3680730  90.7079870  73.5204240  83.8495840
  91.6785620  73.8272820  84.9701660  77.5952870  69.6015900  84.9314800
  77.5971310  70.1188290  84.1260700  76.7657180  69.1246080  84.9084730
  83.9823960  79.7135210  76.4304700  83.3641230  80.1784660  75.8667420
  84.4947210  80.4062690  76.8474210  78.8455720  79.2411080  83.1088300
  78.5125100  79.8680000  83.7509370  79.0222400  79.7672960  82.3289970
  87.3589630  73.0556160  80.5764640  86.6545200  73.3441050  81.1567750
  87.7201790  73.8656270  80.2164200  77.2768200  71.3125860  82.9385250
  77.6185010  72.1567910  82.6439120  76.3384010  71.4609600  83.0550590
  78.0574820  81.2091880  84.9237480  78.6748820  81.8842960  84.6421930
  77.1967940  81.6179860  84.8324980  73.3507160  80.3991740  73.8044330
  72.9735140  80.8878840  73.0729230  73.6080230  81.0717020  74.4350860
  88.9752410  82.6731290  82.8392120  88.2915930  83.3430400  82.8308790
  89.5146700  82.8711940  82.0736980  90.4276550  72.5010950  80.9673850
  89.4801460  72.5349930  81.0989280  90.7526540  73.3149900  81.3523210
  80.9596090  68.8008130  79.2629840  81.2671070  68.2455020  78.5465340
  80.0296790  68.9352590  79.0802830  86.5111150  84.5175420  81.5537300
  86.5238310  84.1137710  80.6859560  85.9586370  85.2922710  81.4498730
  87.8056570  81.2391640  76.6427470  87.6952900  80.2965970  76.7676890
  87.8024820  81.6007280  77.5290230  85.9096590  79.4205260  82.8819910
  86.3265380  79.2065370  82.0473370  86.6336410  79.6778050  83.4528530
  83.3476850  76.8656960  75.9989960  82.4206130  76.7994340  76.2278430
  83.5001670  77.8037090  75.8845200  83.3345930  73.1373960  72.9957120
  82.3949600  73.2987920  73.0809580  83.6529190  73.8559640  72.4493110
  89.8558690  77.8192480  82.9736150  89.0277320  77.8885570  82.4986280
  90.4509170  78.4046790  82.5051980  87.3774140  78.4277260  76.5025210
  86.7586560  78.0896810  75.8551510  87.3598590  77.7837020  77.2104400
  86.8200700  74.6061800  83.9191020  86.4071880  75.4315510  84.1731010
  86.0876650  74.0206840  83.7267380  78.9533490  77.3921700  78.7809690
  78.5490490  76.6798950  78.2855590  79.0396610  77.0474940  79.6697730
  79.4215190  81.0789260  80.9448900  79.1243480  80.4734730  80.2656680
  80.3715010  81.1166570  80.8338260  77.6662110  74.1664910  82.5608730
  78.2176700  74.2760250  81.7861980  78.1805620  74.5402510  83.2763960
  87.5100800  84.6521130  84.6072000  87.0331360  85.4593320  84.4144610
  86.8262590  83.9999460  84.7598210  78.5133620  80.8170950  87.5956700
  77.6162150  81.0410920  87.8430100  78.5386490  80.9405890  86.6468100
  85.5538840  77.6664070  73.5097960  85.9932120  76.8286500  73.3635780
  86.2667260  78.2993470  73.5962100  77.3404840  77.6884270  86.1714070
  77.2012610  78.5607070  86.5401470  76.4586200  77.3457080  86.0262010
  83.6634220  82.6060140  77.4779200  84.1030130  83.3484470  77.0634590
  83.6021110  82.8486710  78.4018160  79.1385190  83.6305970  88.3799220
  79.1100620  84.0348920  87.5127650  78.9750160  82.7016330  88.2170820
  89.1355980  68.9206880  71.8239000  88.8228640  69.0133710  72.7238070
  89.8968450  69.4987910  71.7736430  75.6538120  76.2866680  76.2816340
  75.5335720  77.0128770  75.6697610  75.3439010  75.5169590  75.8044250
  91.0900010  84.4133070  89.6763390  91.5659730  84.8915960  90.3552470
  91.7107170  84.3450560  88.9508890  73.2923490  79.4581820  82.0884980
  73.3703910  79.5930590  81.1440700  73.9065170  78.7497710  82.2813100
  74.5371120  81.1582010  78.4991160  74.1299200  81.2996600  77.6444760
  75.4284130  80.8742170  78.2962370  90.4933260  81.6045920  86.8363400
  90.6196320  81.3657800  85.9180580  90.5354640  80.7730460  87.3085480
  84.3550000  85.3073920  85.4058210  84.8694670  85.2181930  86.2080640
  83.5119080  85.6533620  85.6986120  86.3304400  85.5929260  74.8342210
  86.1705540  85.3032200  75.7324040  86.1651110  84.8169390  74.2987440
  78.8092780  85.3727790  76.6113830  78.6335260  84.4563330  76.3981630
  77.9548520  85.7315080  76.8511630  86.0330530  83.1016820  73.3940210
  85.3395690  83.0994110  72.7342490  86.7753390  82.6776140  72.9634380
  85.5980460  84.7279530  77.4688700  86.0537410  83.9468910  77.7827320
  85.9372980  85.4386350  78.0129880  90.3457270  73.6578380  87.8013140
  89.7301540  74.1658050  87.2728600  90.0253690  72.7576710  87.7439080
  73.3483010  80.4995990  84.6279440  73.5114050  80.0301350  83.8098810
  73.8135460  79.9919550  85.2928280  78.1201780  69.6301750  79.6640010
  77.6769930  70.4111290  79.3324530  78.6786770  69.9531640  80.3710950
  82.4071590  72.4970270  85.2675330  81.9450960  72.7053290  86.0795270
  82.0049700  71.6829620  84.9646000  87.4076100  73.7179220  86.3971990
  86.5569690  73.4184970  86.7181060  87.2477890  73.9621230  85.4855810
  84.5025810  75.2180970  88.4970780  84.8279220  74.3844720  88.1573010
  85.2906140  75.7409490  88.6449110  81.2360600  69.2512450  74.5445840
  80.6114780  69.2472320  75.2699150  81.1490720  68.3843410  74.1481810
  80.1577680  70.1749080  81.5229610  80.4550010  71.0811910  81.4421630
  80.7063240  69.6867860  80.9089180  77.9116000  74.7535320  77.3921260
  77.6856920  74.5372490  78.2967880  77.1308530  75.1863780  77.0467230
  85.1413760  74.7598690  75.9911910  84.5422650  75.4834490  75.8075530
  85.6893370  74.6975470  75.2088360  80.3515210  75.6520900  88.0581530
  80.2558810  74.7115630  87.9081930  81.1947190  75.8735970  87.6629600
  83.7478630  73.3962230  78.0215190  84.1408200  73.7134430  77.2083880
  84.1095480  72.5174110  78.1359710  75.4825750  72.0634570  86.2115310
  75.0889140  72.9109780  86.4188090  74.7944150  71.4260940  86.4023950
  82.0570800  72.1469540  89.2812050  81.3669120  71.9541740  89.9158140
  82.8003100  72.4304180  89.8136350  72.7842800  69.9863030  80.2445390
  72.4955850  70.5565890  80.9570370  73.5288560  69.5067480  80.6076620
  72.9713030  73.9283150  71.4548110  72.8887700  74.8713910  71.5963100
  72.6196090  73.7858060  70.5760460  84.3333770  75.9867980  82.1165970
  83.6014890  76.4954790  82.4656070  83.9358110  75.1697960  81.8154750
  80.7711160  72.6622180  80.5218460  80.7747220  72.2212130  79.6723000
  81.6662280  72.9839510  80.6290280  76.6213540  72.5448670  79.4812670
  76.2813590  73.0223900  80.2379720  75.8590860  72.0913790  79.1213770
  80.8331310  73.6634260  73.5125220  80.9544130  73.6220740  74.4611040
  80.4479820  74.5258410  73.3571950  84.7959680  71.4401660  81.5288910
  84.8132420  71.8910310  82.3730760  84.5475260  70.5407300  81.7422350
  79.8452810  75.9735400  72.9108520  79.2769710  75.5253650  72.2844430
  80.5541810  76.3328180  72.3773670  88.2230430  68.8533840  87.3675290
  88.5476200  68.1223500  87.8933270  88.2586940  68.5347480  86.4656280
  74.9221990  79.8747420  86.7875250  74.5376780  79.2341090  87.3858210
  75.2334180  80.5783540  87.3569980  81.0719130  76.7223960  82.2683870
  81.4389260  76.2482530  83.0145210  80.8824190  77.5965530  82.6092210
  73.9359620  71.4667650  78.3977340  73.6506540  71.1023320  79.2355960
  73.8738480  70.7348110  77.7840480  78.8618500  75.7632600  84.5868080
  78.5575570  76.6424580  84.8118440  79.8164960  75.8232390  84.6225520
  77.3900290  79.9693590  75.1834930  76.6162550  79.4291210  75.0233650
  78.1194920  79.4500200  74.8452690  88.1488270  78.9658950  80.9761320
  88.8687390  79.4614240  80.5857430  87.9470090  78.2876840  80.3315190
  83.6098210  70.3596910  75.1190710  82.7962820  69.8610080  75.0436020
  83.4160160  71.1995160  74.7027060  83.5307070  79.0368010  86.8630320
  83.4644380  78.1163680  86.6087910  82.9012210  79.1343450  87.5774960
  86.3246600  74.7316560  73.4152870  87.2126220  75.0433790  73.2404210
  86.2951690  73.8588810  73.0233450  77.4337690  79.6373970  78.8213740
  77.9516360  78.8342230  78.7670630  76.9821710  79.5753110  79.6630570
  82.3207190  80.9040250  74.0941040  82.6622890  81.6482480  73.5984360
  81.4919900  81.2171370  74.4565870  74.9182230  76.6035340  85.7339440
  74.5597170  77.2689190  86.3212780  74.6236790  75.7718890  86.1052060
  78.1195350  77.0619580  88.6178990  77.8195490  77.2076760  87.7206810
  78.8906590  76.5024870  88.5252380  83.4623800  81.8588580  86.6134120
  83.4768340  80.9269540  86.3953030  82.7548900  81.9448340  87.2523890
  88.5960870  76.0428400  72.8832730  88.5124590  76.4742620  72.0329170
  89.3155060  76.5026750  73.3159550  89.6735010  78.4995920  85.9602700
  88.9483200  79.0924700  85.7632090  90.2010470  78.4919460  85.1616070
  89.6248120  82.8970660  75.6114860  88.9824280  82.2426280  75.8858580
  89.2378780  83.3025750  74.8355530  85.2034600  80.2256090  79.4586550
  85.5558420  79.6284220  78.7987920  84.3196930  79.9000320  79.6294800
  81.2897880  80.9853780  76.8656960  81.9769010  81.5322990  77.2464550
  80.5030300  81.5294510  76.9006570  73.4290280  76.6026600  72.3574040
  74.2985130  76.8851400  72.6409960  72.9380600  77.4162470  72.2422850
  80.5925090  77.9899810  76.4782320  81.0487870  78.8005060  76.7042510
  80.2413300  77.6722950  77.3100810  82.8957700  83.5006150  83.7074620
  83.5399920  83.7065530  84.3848040  83.2587140  82.7394550  83.2545470
  76.4936870  68.3337460  76.9504840  76.3651500  68.3255360  77.8989760
  75.6698890  68.6720550  76.5995850  84.1689780  81.5038500  82.4252070
  84.8112010  80.8031660  82.5384240  84.6939130  82.2836940  82.2448960
  88.0145500  81.7887120  72.1491210  87.7883080  81.0717560  72.7415850
  87.6241700  81.5399560  71.3112960  85.9427400  82.3033400  85.6288130
  86.2783640  82.8900090  86.3066050  85.0227740  82.1726110  85.8585920
  73.7961530  85.8153980  72.9235670  74.1559170  86.4143320  72.2692940
  73.6553870  86.3613870  73.6970700  73.4930800  70.0928580  86.4111540
  72.7789320  70.2925500  87.0164150  73.9125840  69.3168150  86.7826340
  87.5961750  79.7059060  73.8105370  87.3083450  80.1671750  74.5983250
  88.3913920  79.2456830  74.0789590  73.7803390  84.0808840  87.3978070
  73.8894510  83.1403580  87.2573460  73.1283950  84.3463590  86.7491800
  81.7715980  82.3524730  88.7976190  81.4512850  81.6333970  89.3421880
  81.0974340  83.0279800  88.8712250  79.8130150  83.1985180  73.7409340
  79.8040250  83.9314870  73.1253850  78.8928510  82.9516760  73.8336300
  75.4136790  78.4200070  74.4856100  74.8064740  79.1598970  74.4951400
  75.8886140  78.5099430  73.6594300  84.9869580  72.5850890  84.1612990
  85.3550400  71.7646100  84.4892560  84.1267780  72.6452780  84.5768640
  88.3531610  71.5407830  74.9700550  87.7244770  71.6453500  74.2558780
  87.8583530  71.7604610  75.7594430  82.7989750  83.2613420  72.4034530
  82.9001730  83.0577410  71.4736510  81.8991490  83.0071700  72.6082310
  80.3215640  73.8193780  76.3858430  79.6131790  74.2880120  76.8272040
  80.6060120  73.1615790  77.0203620  81.9471570  75.2390480  84.3850960
  82.4456820  75.7136300  85.0502810  82.0894520  74.3154000  84.5920990
  84.3531070  70.5444440  77.8254220  84.2298850  70.5630570  76.8763730
  85.3015630  70.5923380  77.9452620  81.4407860  85.7799740  77.0982200
  81.6949360  85.7421130  76.1761570  80.4920340  85.6533070  77.0910450
  78.5250660  72.1278860  73.7609140  79.3741190  72.5649010  73.6949330
  78.1581930  72.4399120  74.5881200  89.1538430  71.4558440  85.2279350
  88.6512030  72.1963840  85.5673160  89.9695090  71.8442440  84.9116140
  87.4460440  76.6991620  78.6740710  86.5050580  76.7141850  78.8488400
  87.7604510  75.9127580  79.1201010  77.4242080  78.3811220  72.2344670
  78.1905350  78.2692580  72.7970100  77.5016770  77.6849190  71.5821440
  76.1188840  75.8136290  72.9177560  76.1992430  74.8663800  73.0294960
  77.0108590  76.1443170  73.0238220  89.4486020  83.8700470  80.3494970
  89.5733440  84.6931640  80.8218780  90.3151580  83.6591200  80.0019120
  76.9203550  85.9631680  80.0212100  77.6566030  85.4147140  80.2920670
  77.3044470  86.8287690  79.8818090  73.8049030  82.0305250  75.8953610
  72.8788810  82.2726390  75.8859020  74.2705460  82.8579510  75.7738360
  75.9261830  85.1477750  89.2097680  76.7274560  85.4689800  89.6233080
  75.4113650  84.7873330  89.9317590  80.0305860  85.1361990  71.8437670
  80.8234470  85.4250820  71.3919460  79.5110210  84.7054160  71.1650150
  84.7626460  81.2557620  89.1573090  84.1564620  81.2789220  88.4168840
  84.4580570  80.5240660  89.6940340  86.1926830  84.9837910  87.7682500
  87.1448580  84.8995930  87.7182740  86.0455050  85.6479620  88.4416290
  89.0836030  84.3632120  73.2674410  88.7977540  83.9497260  72.4528590
  88.8855580  85.2919830  73.1474930  73.6459640  77.6351210  88.1533730
  74.1498660  77.0558490  88.7249960  72.9067060  77.9191440  88.6910100
  80.5483260  80.3565400  71.7080020  80.4433900  79.7417750  72.4341400
  80.3807480  79.8331290  70.9243030  80.6997580  79.0422200  87.6869250
  79.9343250  79.6107200  87.6023920  80.8813540  78.7498410  86.7937480
  83.7885990  79.4185430  72.3122010  83.2396090  79.8654730  72.9564750
  84.4105250  78.9134680  72.8359680  87.8420930  80.7727530  88.2444270
  88.5830400  81.1103290  87.7411730  87.0793610  80.9419590  87.6914040
  75.6782720  75.7780800  89.0483800  75.7188060  75.4794670  89.9569030
  76.5328220  76.1788410  88.8891320  79.4561110  78.3776350  74.2087310
  79.8777530  78.2116220  75.0518700  79.5811950  77.5676580  73.7142450
  77.6188530  74.3572900  87.0158290  77.0884990  73.8663850  86.3881630
  78.2876600  74.7857100  86.4816220  81.9688750  77.4013960  71.4564410
  82.4894410  76.6862980  71.0905560  82.6157150  78.0399830  71.7564920
  86.5166590  78.8242360  86.7799480  86.9307610  78.9787440  87.6289900
  85.5817590  78.9497580  86.9425260  86.9888760  76.1638520  88.7838630
  87.5709530  75.4090840  88.6959110  87.1650530  76.6945960  88.0070110
  78.1060830  71.3235270  87.0955580  78.0117700  70.7056020  86.3706450
  77.5258220  72.0501560  86.8685490  80.8722270  69.8808510  84.1282970
  80.4239570  69.9032770  83.2828520  80.2387470  69.4827530  84.7253270
  81.2781820  78.7762840  84.7495410  81.6969930  79.6195570  84.5771650
  80.3590450  78.9134880  84.5202190  83.6145720  76.5079020  86.1333250
  83.7341930  75.9120160  86.8728090  84.4739720  76.5448710  85.7134550
  85.9533620  77.0616210  84.7095760  85.4268840  77.5858830  84.1060900
  86.2964960  77.6943600  85.3405490  78.3520010  74.4509580  71.1545470
  78.1509070  73.5876940  71.5158810  78.1812060  74.3642940  70.2167070
  79.1289240  85.0815850  85.8653140  78.5910330  85.8061910  85.5461840
  79.3823200  84.6046190  85.0750480  80.3814490  73.0500370  87.3909070
  80.9714180  72.7416220  88.0786890  79.5634730  72.5780120  87.5468970
  85.2007920  72.6666180  87.6242090  84.5123440  72.0047720  87.5592080
  85.9213940  72.2204450  88.0690550  85.8308320  69.2617810  73.6832350
  86.1110610  68.4185710  74.0391770  85.0574050  69.4940920  74.1971100
  77.1502810  71.5510200  71.1423350  77.4528710  71.5577630  70.2342500
  77.8897400  71.2008060  71.6391010  81.9851450  86.3167060  86.1239790
  81.9110150  87.2202200  86.4312160  81.0830290  85.9978960  86.0961860
  80.3687740  70.4944820  72.1279550  80.0209740  69.8168810  71.5482000
  80.5700510  70.0334330  72.9422940  82.5336780  85.4825570  73.7466150
  83.4287570  85.8210540  73.7684910  82.5654410  84.7604980  73.1190430
  76.1732940  80.8552620  71.9753150  76.6107810  81.3982290  72.6310730
  76.6580670  80.0299570  71.9849490  73.3878740  83.6441650  79.4273410
  73.7181750  82.7762710  79.1952050  73.8169740  83.8500170  80.2578370
  77.9840660  81.9750660  77.0875380  77.6836200  81.8515630  77.9879290
  77.8778150  81.1159250  76.6791110  73.8768950  84.5112240  82.1655040
  73.4399940  84.6913040  82.9979190  74.4446630  85.2686860  82.0236760
  89.5131130  84.0129240  86.4532350  88.9133120  84.0721800  85.7096270
  89.6425030  83.0734220  86.5829200  90.7532580  81.7547060  71.7902060
  89.9225540  81.8223710  72.2609290  90.9304410  82.6451180  71.4868920
  90.2089040  78.4994540  74.2936260  90.9707950  79.0691190  74.3995950
  90.2243410  77.9321740  75.0644570  73.7093380  77.0232470  78.5243920
  73.0542220  76.7544110  77.8803620  74.5471330  76.9136950  78.0745900
  91.2149010  79.3544640  79.1378190  91.5857840  78.5711960  78.7314160
  91.8550940  80.0433740  78.9595490  88.1982770  80.7381220  84.5508510
  87.3842610  81.1678380  84.8134300  88.6056970  81.3499630  83.9377560
  86.6583820  71.8173760  72.7462410  87.0768700  71.6304740  71.9059070
  86.3519880  70.9652810  73.0565340  90.1573550  76.7297900  76.4438210
  89.7817150  75.9625830  76.0119500  89.4276670  77.1120600  76.9313140
  74.7469310  77.4085040  83.0647260  75.1142350  77.3212440  83.9443280
  74.1780130  76.6451590  82.9654120  89.5473170  75.8769420  86.0777730
  89.3159260  75.6482170  85.1775680  89.8077720  76.7968970  86.0322620
  74.2985310  74.3194130  86.9705680  73.4041360  74.2860890  87.3099390
  74.8382860  74.5180920  87.7356930  87.9861240  71.1025850  88.8557430
  88.8631420  71.1109250  89.2391430  87.9982080  70.3656690  88.2449780
  72.9231460  74.2331400  74.4669250  72.0195540  74.4961600  74.2920910
  73.4072080  74.5042570  73.6869210  89.4324510  74.9555390  79.7445450
  89.9561990  74.4618040  79.1135620  90.0183930  75.0905750  80.4893020
  89.6114230  75.0395260  83.2665000  88.6616940  75.0058800  83.3809990
  89.7927240  75.9495370  83.0314770  75.4658670  73.2896940  72.3763630
  76.1750370  72.8680160  71.8910910  74.7498610  73.3572170  71.7446980
  75.1132830  69.3436270  71.4166280  75.8360960  69.8845210  71.7347500
  75.3857350  69.0699690  70.5407820  88.9224480  74.2128740  75.6837860
  89.4183600  73.9799610  76.4686740  88.7240550  73.3740580  75.2675500
  74.8025020  68.5942460  81.3188900  75.4501210  68.0439840  80.8784060
  75.2226860  68.8485610  82.1404710  90.3511640  72.8489690  78.2175540
  90.2410920  72.6945730  79.1557810  91.1119230  72.3210630  77.9750950
  88.6977360  68.7883820  84.6758540  89.3349580  69.4017960  85.0417730
  88.8452250  68.8244480  83.7307770  91.2401910  70.6797610  71.4581680
  92.1651220  70.5478790  71.2499970  91.2177700  70.7590430  72.4118130
  91.3140400  71.4508270  74.0838390  90.5191900  71.3853390  74.6131300
  91.5183680  72.3858910  74.0723740  88.2558820  85.4899820  78.0776780
  88.8517890  85.1684390  77.4011200  88.5136970  85.0171640  78.8690050
  74.5557020  68.7498130  84.0614220  74.2071840  69.2061950  84.8272400
  74.2244720  67.8555260  84.1436650  76.1621390  81.9217730  88.2267410
  76.1191020  81.5510640  89.1081870  76.2932400  82.8595300  88.3669230
  79.8627420  83.4777320  83.8277130  79.6218780  83.7451880  82.9407650
  80.8030060  83.6483050  83.8827990  82.0681840  69.9410010  87.5833640
  82.0070730  70.5331840  88.3329050  83.0082220  69.8335970  87.4383900
  84.7056400  69.5980070  87.2225930  85.3196810  69.9159360  86.5607010
  85.2505960  69.1128660  87.8421790  91.1231580  85.4971700  84.6287770
  90.6289860  85.8940570  83.9114900  90.5144870  84.8720910  85.0225050
  75.2277660  68.2774330  87.3364990  75.7760650  68.0962380  86.5731100
  75.2932970  67.4868440  87.8721300  76.0009420  84.8679980  85.3465190
  75.4069740  84.7364680  86.0855230  75.9933260  84.0318120  84.8807290
  85.4464440  68.1612210  83.5495220  84.5724280  68.4947320  83.3468150
  85.3375190  67.6885390  84.3747090  86.3536420  70.3683080  84.9336940
  86.0249780  69.5534840  84.5538670  87.3018720  70.3252890  84.8102630
  88.8071030  86.1395120  81.9074510  88.3474000  86.8910930  81.5332530
  88.1783490  85.4201590  81.8489310  75.6321650  82.2338360  84.2973230
  74.9055710  81.6143650  84.2299180  75.6930800  82.6278970  83.4271310
  79.2366750  84.4483360  81.0822640  79.7531770  83.8370720  80.5570900
  79.8864130  84.9512140  81.5733650  81.9762250  85.3391850  81.9091620
  82.2640060  85.0846150  81.0324630  82.4885470  84.7869210  82.4997190
  83.1939260  69.0782050  82.4888130  82.4111050  69.5527550  82.7684890
  82.9002190  68.1736880  82.3801310  87.7460330  69.7805150  80.5337220
  88.1868420  69.7250250  79.6858820  87.4767920  70.6963160  80.6047400
  89.6098900  69.4120390  78.5446040  89.5487300  68.4681610  78.3977060
  90.3890930  69.5200480  79.0899500  73.9151650  85.5512750  77.5069990
  73.7473690  84.9183430  78.2051880  73.0486160  85.7572150  77.1564180
  74.5379670  69.3829530  75.0101850  75.2959030  69.4958410  74.4365880
  74.0756840  70.2198730  74.9645280  81.0793480  71.4968800  78.0004160
  80.2667990  71.1225690  77.6600040  81.5835120  70.7413880  78.3025350
  85.5818460  68.1611250  79.2387230  86.1847830  68.7331460  79.7135750
  84.8411450  68.7250690  79.0161130  88.7253060  68.5632810  74.5127510
  88.9203690  69.4616260  74.7794940  87.9382930  68.3319890  75.0060460
  75.5214350  84.2445980  74.9520130  74.9961970  84.6254010  74.2482090
  75.4458930  84.8696750  75.6729840  76.9104820  69.9093580  73.5503820
  77.4397580  69.1223380  73.4211770  77.5433140  70.5884770  73.7839350
  79.1042660  69.6468720  76.6049210  78.4745400  68.9456030  76.7719340
  78.5647800  70.4072850  76.3882370  82.0434610  86.2607950  89.2759820
  82.9701920  86.0252220  89.3195780  82.0285040  87.0879950  88.7945850
  90.2779670  85.8033520  76.2734070  90.4531860  85.1171260  75.6294990
  89.5801240  86.3280570  75.8810740  79.2298220  68.9252700  89.0401700
  78.9482490  69.4286300  88.2762520  79.6117920  68.1274450  88.6743830
  78.1207320  86.1928360  73.8269380  78.8526140  85.9087640  73.2793270
  78.3800990  85.9541640  74.7168760  77.2822110  82.3093090  73.8315710
  76.6530990  82.7778190  74.3801540  77.3969940  81.4642310  74.2661900
  85.8313680  68.3406280  89.6182170  85.7179130  68.6600890  90.5133690
  86.6483420  68.7418790  89.3219450  88.6112170  85.4877810  89.1000860
  89.4037490  84.9927040  88.8926820  88.9045320  86.1667950  89.7076470
  84.7371830  76.3598750  59.9816910  84.6565880  75.4453360  59.7108620
  84.3236250  76.8565820  59.2756620  82.8689870  78.1377770  61.8626180
  82.0931970  77.6578210  62.1524750  83.5202800  77.4583420  61.6882340
  76.8855700  78.4497580  62.7401940  76.0540580  78.1946290  63.1398450
  77.4936680  78.5208350  63.4759860  86.8897300  82.5437960  60.6425310
  86.4278830  81.7725200  60.9712480  87.7022850  82.5704030  61.1477760
  75.2947650  73.4099470  56.5244330  74.4064350  73.7515440  56.4224210
  75.5788840  73.2099790  55.6325160  73.2580660  76.0105120  62.4084030
  73.8296770  75.2427320  62.4087670  73.2582200  76.3093880  61.4990640
  83.1160610  84.8295970  60.2629300  82.4972050  85.2853470  59.6923740
  83.9712390  84.9847430  59.8619000  82.3098860  80.8134960  61.8696340
  82.2407140  79.8724900  61.7085470  83.0718720  80.9036370  62.4418910
  74.5005530  71.4189480  64.1952960  74.3208370  70.5215230  64.4755720
  74.0985610  71.9661350  64.8699910  83.3404030  73.6205340  62.0965270
  83.7168850  72.7477220  61.9838940  83.2423540  73.9564040  61.2055710
  77.4709040  71.9930970  57.5582710  77.5775790  72.8934700  57.8651470
  76.5601400  71.9448940  57.2677360  87.1228150  71.1155780  59.0293610
  87.9437770  70.6252350  59.0719090  87.1562230  71.7053440  59.7825450
  75.1192200  73.9149980  62.8035300  75.8002310  74.1788350  63.4222700
  74.8040250  73.0750850  63.1373310  79.3116770  74.9617340  61.8907890
  79.8194990  75.4598310  62.5312910  79.8430010  74.1852540  61.7147250
  91.4127700  73.1322530  65.5937240  90.7079870  73.5204240  65.0752350
  91.6785620  73.8272820  66.1958170  77.5952870  69.6015900  66.1571310
  77.5971310  70.1188290  65.3517210  76.7657180  69.1246080  66.1341240
  83.9823960  79.7135210  57.6561210  83.3641230  80.1784660  57.0923930
  84.4947210  80.4062690  58.0730720  78.8455720  79.2411080  64.3344810
  78.5125100  79.8680000  64.9765880  79.0222400  79.7672960  63.5546480
  87.3589630  73.0556160  61.8021150  86.6545200  73.3441050  62.3824260
  87.7201790  73.8656270  61.4420710  77.2768200  71.3125860  64.1641760
  77.6185010  72.1567910  63.8695630  76.3384010  71.4609600  64.2807100
  78.0574820  81.2091880  66.1493990  78.6748820  81.8842960  65.8678440
  77.1967940  81.6179860  66.0581490  73.3507160  80.3991740  55.0300840
  72.9735140  80.8878840  54.2985740  73.6080230  81.0717020  55.6607370
  88.9752410  82.6731290  64.0648630  88.2915930  83.3430400  64.0565300
  89.5146700  82.8711940  63.2993490  90.4276550  72.5010950  62.1930360
  89.4801460  72.5349930  62.3245790  90.7526540  73.3149900  62.5779720
  80.9596090  68.8008130  60.4886350  81.2671070  68.2455020  59.7721850
  80.0296790  68.9352590  60.3059340  86.5111150  84.5175420  62.7793810
  86.5238310  84.1137710  61.9116070  85.9586370  85.2922710  62.6755240
  87.8056570  81.2391640  57.8683980  87.6952900  80.2965970  57.9933400
  87.8024820  81.6007280  58.7546740  85.9096590  79.4205260  64.1076420
  86.3265380  79.2065370  63.2729880  86.6336410  79.6778050  64.6785040
  83.3476850  76.8656960  57.2246470  82.4206130  76.7994340  57.4534940
  83.5001670  77.8037090  57.1101710  83.3345930  73.1373960  54.2213630
  82.3949600  73.2987920  54.3066090  83.6529190  73.8559640  53.6749620
  89.8558690  77.8192480  64.1992660  89.0277320  77.8885570  63.7242790
  90.4509170  78.4046790  63.7308490  87.3774140  78.4277260  57.7281720
  86.7586560  78.0896810  57.0808020  87.3598590  77.7837020  58.4360910
  86.8200700  74.6061800  65.1447530  86.4071880  75.4315510  65.3987520
  86.0876650  74.0206840  64.9523890  78.9533490  77.3921700  60.0066200
  78.5490490  76.6798950  59.5112100  79.0396610  77.0474940  60.8954240
  79.4215190  81.0789260  62.1705410  79.1243480  80.4734730  61.4913190
  80.3715010  81.1166570  62.0594770  77.6662110  74.1664910  63.7865240
  78.2176700  74.2760250  63.0118490  78.1805620  74.5402510  64.5020470
  87.5100800  84.6521130  65.8328510  87.0331360  85.4593320  65.6401120
  86.8262590  83.9999460  65.9854720  78.5133620  80.8170950  68.8213210
  77.6162150  81.0410920  69.0686610  78.5386490  80.9405890  67.8724610
  85.5538840  77.6664070  54.7354470  85.9932120  76.8286500  54.5892290
  86.2667260  78.2993470  54.8218610  77.3404840  77.6884270  67.3970580
  77.2012610  78.5607070  67.7657980  76.4586200  77.3457080  67.2518520
  83.6634220  82.6060140  58.7035710  84.1030130  83.3484470  58.2891100
  83.6021110  82.8486710  59.6274670  79.1385190  83.6305970  69.6055730
  79.1100620  84.0348920  68.7384160  78.9750160  82.7016330  69.4427330
  89.1355980  68.9206880  53.0495510  88.8228640  69.0133710  53.9494580
  89.8968450  69.4987910  52.9992940  75.6538120  76.2866680  57.5072850
  75.5335720  77.0128770  56.8954120  75.3439010  75.5169590  57.0300760
  91.0900010  84.4133070  70.9019900  91.5659730  84.8915960  71.5808980
  91.7107170  84.3450560  70.1765400  73.2923490  79.4581820  63.3141490
  73.3703910  79.5930590  62.3697210  73.9065170  78.7497710  63.5069610
  90.4933260  81.6045920  68.0619910  90.6196320  81.3657800  67.1437090
  90.5354640  80.7730460  68.5341990  84.3550000  85.3073920  66.6314720
  84.8694670  85.2181930  67.4337150  83.5119080  85.6533620  66.9242630
  86.3304400  85.5929260  56.0598720  86.1705540  85.3032200  56.9580550
  86.1651110  84.8169390  55.5243950  78.8092780  85.3727790  57.8370340
  78.6335260  84.4563330  57.6238140  77.9548520  85.7315080  58.0768140
  86.0330530  83.1016820  54.6196720  85.3395690  83.0994110  53.9599000
  86.7753390  82.6776140  54.1890890  85.5980460  84.7279530  58.6945210
  86.0537410  83.9468910  59.0083830  85.9372980  85.4386350  59.2386390
  73.3483010  80.4995990  65.8535950  73.5114050  80.0301350  65.0355320
  73.8135460  79.9919550  66.5184790  78.1201780  69.6301750  60.8896520
  77.6769930  70.4111290  60.5581040  78.6786770  69.9531640  61.5967460
  82.4071590  72.4970270  66.4931840  81.9450960  72.7053290  67.3051780
  82.0049700  71.6829620  66.1902510  87.4076100  73.7179220  67.6228500
  86.5569690  73.4184970  67.9437570  87.2477890  73.9621230  66.7112320
  84.5025810  75.2180970  69.7227290  84.8279220  74.3844720  69.3829520
  85.2906140  75.7409490  69.8705620  81.2360600  69.2512450  55.7702350
  80.6114780  69.2472320  56.4955660  81.1490720  68.3843410  55.3738320
  80.1577680  70.1749080  62.7486120  80.4550010  71.0811910  62.6678140
  80.7063240  69.6867860  62.1345690  77.9116000  74.7535320  58.6177770
  77.6856920  74.5372490  59.5224390  77.1308530  75.1863780  58.2723740
  85.1413760  74.7598690  57.2168420  84.5422650  75.4834490  57.0332040
  85.6893370  74.6975470  56.4344870  80.3515210  75.6520900  69.2838040
  80.2558810  74.7115630  69.1338440  81.1947190  75.8735970  68.8886110
  83.7478630  73.3962230  59.2471700  84.1408200  73.7134430  58.4340390
  84.1095480  72.5174110  59.3616220  75.4825750  72.0634570  67.4371820
  75.0889140  72.9109780  67.6444600  74.7944150  71.4260940  67.6280460
  82.0570800  72.1469540  70.5068560  81.3669120  71.9541740  71.1414650
  82.8003100  72.4304180  71.0392860  72.7842800  69.9863030  61.4701900
  72.4955850  70.5565890  62.1826880  73.5288560  69.5067480  61.8333130
  72.9713030  73.9283150  52.6804620  72.8887700  74.8713910  52.8219610
  72.6196090  73.7858060  51.8016970  84.3333770  75.9867980  63.3422480
  83.6014890  76.4954790  63.6912580  83.9358110  75.1697960  63.0411260
  80.7711160  72.6622180  61.7474970  80.7747220  72.2212130  60.8979510
  81.6662280  72.9839510  61.8546790  76.6213540  72.5448670  60.7069180
  76.2813590  73.0223900  61.4636230  75.8590860  72.0913790  60.3470280
  80.8331310  73.6634260  54.7381730  80.9544130  73.6220740  55.6867550
  80.4479820  74.5258410  54.5828460  84.7959680  71.4401660  62.7545420
  84.8132420  71.8910310  63.5987270  84.5475260  70.5407300  62.9678860
  79.8452810  75.9735400  54.1365030  79.2769710  75.5253650  53.5100940
  80.5541810  76.3328180  53.6030180  88.2230430  68.8533840  68.5931800
  88.5476200  68.1223500  69.1189780  88.2586940  68.5347480  67.6912790
  74.9221990  79.8747420  68.0131760  74.5376780  79.2341090  68.6114720
  75.2334180  80.5783540  68.5826490  81.0719130  76.7223960  63.4940380
  81.4389260  76.2482530  64.2401720  80.8824190  77.5965530  63.8348720
  73.9359620  71.4667650  59.6233850  73.6506540  71.1023320  60.4612470
  73.8738480  70.7348110  59.0096990  78.8618500  75.7632600  65.8124590
  78.5575570  76.6424580  66.0374950  79.8164960  75.8232390  65.8482030
  77.3900290  79.9693590  56.4091440  76.6162550  79.4291210  56.2490160
  78.1194920  79.4500200  56.0709200  88.1488270  78.9658950  62.2017830
  88.8687390  79.4614240  61.8113940  87.9470090  78.2876840  61.5571700
  83.6098210  70.3596910  56.3447220  82.7962820  69.8610080  56.2692530
  83.4160160  71.1995160  55.9283570  83.5307070  79.0368010  68.0886830
  83.4644380  78.1163680  67.8344420  82.9012210  79.1343450  68.8031470
  86.3246600  74.7316560  54.6409380  87.2126220  75.0433790  54.4660720
  86.2951690  73.8588810  54.2489960  77.4337690  79.6373970  60.0470250
  77.9516360  78.8342230  59.9927140  76.9821710  79.5753110  60.8887080
  82.3207190  80.9040250  55.3197550  82.6622890  81.6482480  54.8240870
  81.4919900  81.2171370  55.6822380  74.9182230  76.6035340  66.9595950
  74.5597170  77.2689190  67.5469290  74.6236790  75.7718890  67.3308570
  78.1195350  77.0619580  69.8435500  77.8195490  77.2076760  68.9463320
  78.8906590  76.5024870  69.7508890  83.4623800  81.8588580  67.8390630
  83.4768340  80.9269540  67.6209540  82.7548900  81.9448340  68.4780400
  88.5960870  76.0428400  54.1089240  88.5124590  76.4742620  53.2585680
  89.3155060  76.5026750  54.5416060  89.6735010  78.4995920  67.1859210
  88.9483200  79.0924700  66.9888600  90.2010470  78.4919460  66.3872580
  89.6248120  82.8970660  56.8371370  88.9824280  82.2426280  57.1115090
  89.2378780  83.3025750  56.0612040  85.2034600  80.2256090  60.6843060
  85.5558420  79.6284220  60.0244430  84.3196930  79.9000320  60.8551310
  81.2897880  80.9853780  58.0913470  81.9769010  81.5322990  58.4721060
  80.5030300  81.5294510  58.1263080  73.4290280  76.6026600  53.5830550
  74.2985130  76.8851400  53.8666470  72.9380600  77.4162470  53.4679360
  80.5925090  77.9899810  57.7038830  81.0487870  78.8005060  57.9299020
  80.2413300  77.6722950  58.5357320  82.8957700  83.5006150  64.9331130
  83.5399920  83.7065530  65.6104550  83.2587140  82.7394550  64.4801980
  76.4936870  68.3337460  58.1761350  76.3651500  68.3255360  59.1246270
  75.6698890  68.6720550  57.8252360  84.1689780  81.5038500  63.6508580
  84.8112010  80.8031660  63.7640750  84.6939130  82.2836940  63.4705470
  88.0145500  81.7887120  53.3747720  87.7883080  81.0717560  53.9672360
  87.6241700  81.5399560  52.5369470  85.9427400  82.3033400  66.8544640
  86.2783640  82.8900090  67.5322560  85.0227740  82.1726110  67.0842430
  73.7961530  85.8153980  54.1492180  74.1559170  86.4143320  53.4949450
  73.6553870  86.3613870  54.9227210  73.4930800  70.0928580  67.6368050
  72.7789320  70.2925500  68.2420660  73.9125840  69.3168150  68.0082850
  87.5961750  79.7059060  55.0361880  87.3083450  80.1671750  55.8239760
  88.3913920  79.2456830  55.3046100  73.7803390  84.0808840  68.6234580
  73.8894510  83.1403580  68.4829970  73.1283950  84.3463590  67.9748310
  81.7715980  82.3524730  70.0232700  81.4512850  81.6333970  70.5678390
  81.0974340  83.0279800  70.0968760  79.8130150  83.1985180  54.9665850
  79.8040250  83.9314870  54.3510360  78.8928510  82.9516760  55.0592810
  75.4136790  78.4200070  55.7112610  74.8064740  79.1598970  55.7207910
  75.8886140  78.5099430  54.8850810  84.9869580  72.5850890  65.3869500
  85.3550400  71.7646100  65.7149070  84.1267780  72.6452780  65.8025150
  88.3531610  71.5407830  56.1957060  87.7244770  71.6453500  55.4815290
  87.8583530  71.7604610  56.9850940  80.3215640  73.8193780  57.6114940
  79.6131790  74.2880120  58.0528550  80.6060120  73.1615790  58.2460130
  81.9471570  75.2390480  65.6107470  82.4456820  75.7136300  66.2759320
  82.0894520  74.3154000  65.8177500  84.3531070  70.5444440  59.0510730
  84.2298850  70.5630570  58.1020240  85.3015630  70.5923380  59.1709130
  81.4407860  85.7799740  58.3238710  81.6949360  85.7421130  57.4018080
  80.4920340  85.6533070  58.3166960  78.5250660  72.1278860  54.9865650
  79.3741190  72.5649010  54.9205840  78.1581930  72.4399120  55.8137710
  89.1538430  71.4558440  66.4535860  88.6512030  72.1963840  66.7929670
  89.9695090  71.8442440  66.1372650  87.4460440  76.6991620  59.8997220
  86.5050580  76.7141850  60.0744910  87.7604510  75.9127580  60.3457520
  77.4242080  78.3811220  53.4601180  78.1905350  78.2692580  54.0226610
  77.5016770  77.6849190  52.8077950  76.1188840  75.8136290  54.1434070
  76.1992430  74.8663800  54.2551470  77.0108590  76.1443170  54.2494730
  89.4486020  83.8700470  61.5751480  89.5733440  84.6931640  62.0475290
  90.3151580  83.6591200  61.2275630  73.8049030  82.0305250  57.1210120
  72.8788810  82.2726390  57.1115530  74.2705460  82.8579510  56.9994870
  75.9261830  85.1477750  70.4354190  76.7274560  85.4689800  70.8489590
  75.4113650  84.7873330  71.1574100  84.7626460  81.2557620  70.3829600
  84.1564620  81.2789220  69.6425350  84.4580570  80.5240660  70.9196850
  86.1926830  84.9837910  68.9939010  87.1448580  84.8995930  68.9439250
  86.0455050  85.6479620  69.6672800  89.0836030  84.3632120  54.4930920
  88.7977540  83.9497260  53.6785100  88.8855580  85.2919830  54.3731440
  73.6459640  77.6351210  69.3790240  74.1498660  77.0558490  69.9506470
  72.9067060  77.9191440  69.9166610  80.6997580  79.0422200  68.9125760
  79.9343250  79.6107200  68.8280430  80.8813540  78.7498410  68.0193990
  83.7885990  79.4185430  53.5378520  83.2396090  79.8654730  54.1821260
  84.4105250  78.9134680  54.0616190  87.8420930  80.7727530  69.4700780
  88.5830400  81.1103290  68.9668240  87.0793610  80.9419590  68.9170550
  75.6782720  75.7780800  70.2740310  75.7188060  75.4794670  71.1825540
  76.5328220  76.1788410  70.1147830  79.4561110  78.3776350  55.4343820
  79.8777530  78.2116220  56.2775210  79.5811950  77.5676580  54.9398960
  77.6188530  74.3572900  68.2414800  77.0884990  73.8663850  67.6138140
  78.2876600  74.7857100  67.7072730  81.9688750  77.4013960  52.6820920
  82.4894410  76.6862980  52.3162070  82.6157150  78.0399830  52.9821430
  86.5166590  78.8242360  68.0055990  86.9307610  78.9787440  68.8546410
  85.5817590  78.9497580  68.1681770  86.9888760  76.1638520  70.0095140
  87.5709530  75.4090840  69.9215620  87.1650530  76.6945960  69.2326620
  78.1060830  71.3235270  68.3212090  78.0117700  70.7056020  67.5962960
  77.5258220  72.0501560  68.0942000  80.8722270  69.8808510  65.3539480
  80.4239570  69.9032770  64.5085030  80.2387470  69.4827530  65.9509780
  81.2781820  78.7762840  65.9751920  81.6969930  79.6195570  65.8028160
  80.3590450  78.9134880  65.7458700  83.6145720  76.5079020  67.3589760
  83.7341930  75.9120160  68.0984600  84.4739720  76.5448710  66.9391060
  85.9533620  77.0616210  65.9352270  85.4268840  77.5858830  65.3317410
  86.2964960  77.6943600  66.5662000  78.3520010  74.4509580  52.3801980
  78.1509070  73.5876940  52.7415320  78.1812060  74.3642940  51.4423580
  79.1289240  85.0815850  67.0909650  78.5910330  85.8061910  66.7718350
  79.3823200  84.6046190  66.3006990  80.3814490  73.0500370  68.6165580
  80.9714180  72.7416220  69.3043400  79.5634730  72.5780120  68.7725480
  85.2007920  72.6666180  68.8498600  84.5123440  72.0047720  68.7848590
  85.9213940  72.2204450  69.2947060  85.8308320  69.2617810  54.9088860
  86.1110610  68.4185710  55.2648280  85.0574050  69.4940920  55.4227610
  77.1502810  71.5510200  52.3679860  77.4528710  71.5577630  51.4599010
  77.8897400  71.2008060  52.8647520  81.9851450  86.3167060  67.3496300
  81.9110150  87.2202200  67.6568670  81.0830290  85.9978960  67.3218370
  80.3687740  70.4944820  53.3536060  80.0209740  69.8168810  52.7738510
  80.5700510  70.0334330  54.1679450  76.1732940  80.8552620  53.2009660
  76.6107810  81.3982290  53.8567240  76.6580670  80.0299570  53.2106000
  77.9840660  81.9750660  58.3131890  77.6836200  81.8515630  59.2135800
  77.8778150  81.1159250  57.9047620  89.5131130  84.0129240  67.6788860
  88.9133120  84.0721800  66.9352780  89.6425030  83.0734220  67.8085710
  90.7532580  81.7547060  53.0158570  89.9225540  81.8223710  53.4865800
  90.9304410  82.6451180  52.7125430  90.2089040  78.4994540  55.5192770
  90.9707950  79.0691190  55.6252460  90.2243410  77.9321740  56.2901080
  73.7093380  77.0232470  59.7500430  73.0542220  76.7544110  59.1060130
  74.5471330  76.9136950  59.3002410  91.2149010  79.3544640  60.3634700
  91.5857840  78.5711960  59.9570670  91.8550940  80.0433740  60.1852000
  88.1982770  80.7381220  65.7765020  87.3842610  81.1678380  66.0390810
  88.6056970  81.3499630  65.1634070  90.2608210  78.7928910  52.6765290
  90.5357050  79.7007790  52.5484510  90.0718950  78.7291440  53.6127280
  86.6583820  71.8173760  53.9718920  87.0768700  71.6304740  53.1315580
  86.3519880  70.9652810  54.2821850  90.1573550  76.7297900  57.6694720
  89.7817150  75.9625830  57.2376010  89.4276670  77.1120600  58.1569650
  74.7469310  77.4085040  64.2903770  75.1142350  77.3212440  65.1699790
  74.1780130  76.6451590  64.1910630  89.5473170  75.8769420  67.3034240
  89.3159260  75.6482170  66.4032190  89.8077720  76.7968970  67.2579130
  74.2985310  74.3194130  68.1962190  73.4041360  74.2860890  68.5355900
  74.8382860  74.5180920  68.9613440  87.9861240  71.1025850  70.0813940
  88.8631420  71.1109250  70.4647940  87.9982080  70.3656690  69.4706290
  72.9231460  74.2331400  55.6925760  72.0195540  74.4961600  55.5177420
  73.4072080  74.5042570  54.9125720  89.4324510  74.9555390  60.9701960
  89.9561990  74.4618040  60.3392130  90.0183930  75.0905750  61.7149530
  89.6114230  75.0395260  64.4921510  88.6616940  75.0058800  64.6066500
  89.7927240  75.9495370  64.2571280  75.4658670  73.2896940  53.6020140
  76.1750370  72.8680160  53.1167420  74.7498610  73.3572170  52.9703490
  75.1132830  69.3436270  52.6422790  75.8360960  69.8845210  52.9604010
  75.3857350  69.0699690  51.7664330  88.9224480  74.2128740  56.9094370
  89.4183600  73.9799610  57.6943250  88.7240550  73.3740580  56.4932010
  74.8025020  68.5942460  62.5445410  75.4501210  68.0439840  62.1040570
  75.2226860  68.8485610  63.3661220  90.3511640  72.8489690  59.4432050
  90.2410920  72.6945730  60.3814320  91.1119230  72.3210630  59.2007460
  88.6977360  68.7883820  65.9015050  89.3349580  69.4017960  66.2674240
  88.8452250  68.8244480  64.9564280  91.2401910  70.6797610  52.6838190
  92.1651220  70.5478790  52.4756480  91.2177700  70.7590430  53.6374640
  91.3140400  71.4508270  55.3094900  90.5191900  71.3853390  55.8387810
  91.5183680  72.3858910  55.2980250  88.2558820  85.4899820  59.3033290
  88.8517890  85.1684390  58.6267710  88.5136970  85.0171640  60.0946560
  74.5557020  68.7498130  65.2870730  74.2071840  69.2061950  66.0528910
  74.2244720  67.8555260  65.3693160  76.1621390  81.9217730  69.4523920
  76.1191020  81.5510640  70.3338380  76.2932400  82.8595300  69.5925740
  79.8627420  83.4777320  65.0533640  79.6218780  83.7451880  64.1664160
  80.8030060  83.6483050  65.1084500  82.0681840  69.9410010  68.8090150
  82.0070730  70.5331840  69.5585560  83.0082220  69.8335970  68.6640410
  84.7056400  69.5980070  68.4482440  85.3196810  69.9159360  67.7863520
  85.2505960  69.1128660  69.0678300  91.1231580  85.4971700  65.8544280
  90.6289860  85.8940570  65.1371410  90.5144870  84.8720910  66.2481560
  75.2277660  68.2774330  68.5621500  75.7760650  68.0962380  67.7987610
  75.2932970  67.4868440  69.0977810  76.0009420  84.8679980  66.5721700
  75.4069740  84.7364680  67.3111740  75.9933260  84.0318120  66.1063800
  85.4464440  68.1612210  64.7751730  84.5724280  68.4947320  64.5724660
  85.3375190  67.6885390  65.6003600  86.3536420  70.3683080  66.1593450
  86.0249780  69.5534840  65.7795180  87.3018720  70.3252890  66.0359140
  88.8071030  86.1395120  63.1331020  88.3474000  86.8910930  62.7589040
  88.1783490  85.4201590  63.0745820  75.6321650  82.2338360  65.5229740
  74.9055710  81.6143650  65.4555690  75.6930800  82.6278970  64.6527820
  79.2366750  84.4483360  62.3079150  79.7531770  83.8370720  61.7827410
  79.8864130  84.9512140  62.7990160  81.9762250  85.3391850  63.1348130
  82.2640060  85.0846150  62.2581140  82.4885470  84.7869210  63.7253700
  83.1939260  69.0782050  63.7144640  82.4111050  69.5527550  63.9941400
  82.9002190  68.1736880  63.6057820  87.7460330  69.7805150  61.7593730
  88.1868420  69.7250250  60.9115330  87.4767920  70.6963160  61.8303910
  89.6098900  69.4120390  59.7702550  89.5487300  68.4681610  59.6233570
  90.3890930  69.5200480  60.3156010  74.5379670  69.3829530  56.2358360
  75.2959030  69.4958410  55.6622390  74.0756840  70.2198730  56.1901790
  81.0793480  71.4968800  59.2260670  80.2667990  71.1225690  58.8856550
  81.5835120  70.7413880  59.5281860  85.5818460  68.1611250  60.4643740
  86.1847830  68.7331460  60.9392260  84.8411450  68.7250690  60.2417640
  88.7253060  68.5632810  55.7384020  88.9203690  69.4616260  56.0051450
  87.9382930  68.3319890  56.2316970  75.5214350  84.2445980  56.1776640
  74.9961970  84.6254010  55.4738600  75.4458930  84.8696750  56.8986350
  76.9104820  69.9093580  54.7760330  77.4397580  69.1223380  54.6468280
  77.5433140  70.5884770  55.0095860  79.1042660  69.6468720  57.8305720
  78.4745400  68.9456030  57.9975850  78.5647800  70.4072850  57.6138880
  82.0434610  86.2607950  70.5016330  82.9701920  86.0252220  70.5452290
  82.0285040  87.0879950  70.0202360  90.2779670  85.8033520  57.4990580
  90.4531860  85.1171260  56.8551500  89.5801240  86.3280570  57.1067250
  79.2298220  68.9252700  70.2658210  78.9482490  69.4286300  69.5019030
  79.6117920  68.1274450  69.9000340  78.1207320  86.1928360  55.0525890
  78.8526140  85.9087640  54.5049780  78.3800990  85.9541640  55.9425270
  77.2822110  82.3093090  55.0572220  76.6530990  82.7778190  55.6058050
  77.3969940  81.4642310  55.4918410  85.8313680  68.3406280  70.8438680
  85.7179130  68.6600890  71.7390200  86.6483420  68.7418790  70.5475960
  88.6112170  85.4877810  70.3257370  89.4037490  84.9927040  70.1183330
  88.9045320  86.1667950  70.9332980  84.7371830  76.3598750  41.2073420
  84.6565880  75.4453360  40.9365130  84.3236250  76.8565820  40.5013130
  82.8689870  78.1377770  43.0882690  82.0931970  77.6578210  43.3781260
  83.5202800  77.4583420  42.9138850  76.8855700  78.4497580  43.9658450
  76.0540580  78.1946290  44.3654960  77.4936680  78.5208350  44.7016370
  86.8897300  82.5437960  41.8681820  86.4278830  81.7725200  42.1968990
  87.7022850  82.5704030  42.3734270  76.8656960  82.4837670  44.1616470
  77.1685000  81.5935410  43.9826690  77.6100550  83.0407890  43.9338720
  75.2947650  73.4099470  37.7500840  74.4064350  73.7515440  37.6480720
  75.5788840  73.2099790  36.8581670  73.2580660  76.0105120  43.6340540
  73.8296770  75.2427320  43.6344180  73.2582200  76.3093880  42.7247150
  82.3098860  80.8134960  43.0952850  82.2407140  79.8724900  42.9341980
  83.0718720  80.9036370  43.6675420  74.5005530  71.4189480  45.4209470
  74.3208370  70.5215230  45.7012230  74.0985610  71.9661350  46.0956420
  83.3404030  73.6205340  43.3221780  83.7168850  72.7477220  43.2095450
  83.2423540  73.9564040  42.4312220  77.4709040  71.9930970  38.7839220
  77.5775790  72.8934700  39.0907980  76.5601400  71.9448940  38.4933870
  87.1228150  71.1155780  40.2550120  87.9437770  70.6252350  40.2975600
  87.1562230  71.7053440  41.0081960  75.1192200  73.9149980  44.0291810
  75.8002310  74.1788350  44.6479210  74.8040250  73.0750850  44.3629820
  79.3116770  74.9617340  43.1164400  79.8194990  75.4598310  43.7569420
  79.8430010  74.1852540  42.9403760  91.4127700  73.1322530  46.8193750
  90.7079870  73.5204240  46.3008860  91.6785620  73.8272820  47.4214680
  77.5952870  69.6015900  47.3827820  77.5971310  70.1188290  46.5773720
  76.7657180  69.1246080  47.3597750  83.9823960  79.7135210  38.8817720
  83.3641230  80.1784660  38.3180440  84.4947210  80.4062690  39.2987230
  78.8455720  79.2411080  45.5601320  78.5125100  79.8680000  46.2022390
  79.0222400  79.7672960  44.7802990  87.3589630  73.0556160  43.0277660
  86.6545200  73.3441050  43.6080770  87.7201790  73.8656270  42.6677220
  77.2768200  71.3125860  45.3898270  77.6185010  72.1567910  45.0952140
  76.3384010  71.4609600  45.5063610  78.0574820  81.2091880  47.3750500
  78.6748820  81.8842960  47.0934950  77.1967940  81.6179860  47.2838000
  73.3507160  80.3991740  36.2557350  72.9735140  80.8878840  35.5242250
  73.6080230  81.0717020  36.8863880  88.9752410  82.6731290  45.2905140
  88.2915930  83.3430400  45.2821810  89.5146700  82.8711940  44.5250000
  90.4276550  72.5010950  43.4186870  89.4801460  72.5349930  43.5502300
  90.7526540  73.3149900  43.8036230  80.9596090  68.8008130  41.7142860
  81.2671070  68.2455020  40.9978360  80.0296790  68.9352590  41.5315850
  86.5111150  84.5175420  44.0050320  86.5238310  84.1137710  43.1372580
  85.9586370  85.2922710  43.9011750  87.8056570  81.2391640  39.0940490
  87.6952900  80.2965970  39.2189910  87.8024820  81.6007280  39.9803250
  85.9096590  79.4205260  45.3332930  86.3265380  79.2065370  44.4986390
  86.6336410  79.6778050  45.9041550  83.3476850  76.8656960  38.4502980
  82.4206130  76.7994340  38.6791450  83.5001670  77.8037090  38.3358220
  83.3345930  73.1373960  35.4470140  82.3949600  73.2987920  35.5322600
  83.6529190  73.8559640  34.9006130  89.8558690  77.8192480  45.4249170
  89.0277320  77.8885570  44.9499300  90.4509170  78.4046790  44.9565000
  87.3774140  78.4277260  38.9538230  86.7586560  78.0896810  38.3064530
  87.3598590  77.7837020  39.6617420  86.8200700  74.6061800  46.3704040
  86.4071880  75.4315510  46.6244030  86.0876650  74.0206840  46.1780400
  78.9533490  77.3921700  41.2322710  78.5490490  76.6798950  40.7368610
  79.0396610  77.0474940  42.1210750  79.4215190  81.0789260  43.3961920
  79.1243480  80.4734730  42.7169700  80.3715010  81.1166570  43.2851280
  77.6662110  74.1664910  45.0121750  78.2176700  74.2760250  44.2375000
  78.1805620  74.5402510  45.7276980  87.5100800  84.6521130  47.0585020
  87.0331360  85.4593320  46.8657630  86.8262590  83.9999460  47.2111230
  78.5133620  80.8170950  50.0469720  77.6162150  81.0410920  50.2943120
  78.5386490  80.9405890  49.0981120  85.5538840  77.6664070  35.9610980
  85.9932120  76.8286500  35.8148800  86.2667260  78.2993470  36.0475120
  77.3404840  77.6884270  48.6227090  77.2012610  78.5607070  48.9914490
  76.4586200  77.3457080  48.4775030  89.1355980  68.9206880  34.2752020
  88.8228640  69.0133710  35.1751090  89.8968450  69.4987910  34.2249450
  75.6538120  76.2866680  38.7329360  75.5335720  77.0128770  38.1210630
  75.3439010  75.5169590  38.2557270  91.0900010  84.4133070  52.1276410
  91.5659730  84.8915960  52.8065490  91.7107170  84.3450560  51.4021910
  73.2923490  79.4581820  44.5398000  73.3703910  79.5930590  43.5953720
  73.9065170  78.7497710  44.7326120  74.5371120  81.1582010  40.9504180
  74.1299200  81.2996600  40.0957780  75.4284130  80.8742170  40.7475390
  90.4933260  81.6045920  49.2876420  90.6196320  81.3657800  48.3693600
  90.5354640  80.7730460  49.7598500  84.3550000  85.3073920  47.8571230
  84.8694670  85.2181930  48.6593660  83.5119080  85.6533620  48.1499140
  86.3304400  85.5929260  37.2855230  86.1705540  85.3032200  38.1837060
  86.1651110  84.8169390  36.7500460  86.0330530  83.1016820  35.8453230
  85.3395690  83.0994110  35.1855510  86.7753390  82.6776140  35.4147400
  90.3457270  73.6578380  50.2526160  89.7301540  74.1658050  49.7241620
  90.0253690  72.7576710  50.1952100  73.3483010  80.4995990  47.0792460
  73.5114050  80.0301350  46.2611830  73.8135460  79.9919550  47.7441300
  78.1201780  69.6301750  42.1153030  77.6769930  70.4111290  41.7837550
  78.6786770  69.9531640  42.8223970  82.4071590  72.4970270  47.7188350
  81.9450960  72.7053290  48.5308290  82.0049700  71.6829620  47.4159020
  87.4076100  73.7179220  48.8485010  86.5569690  73.4184970  49.1694080
  87.2477890  73.9621230  47.9368830  84.5025810  75.2180970  50.9483800
  84.8279220  74.3844720  50.6086030  85.2906140  75.7409490  51.0962130
  81.2360600  69.2512450  36.9958860  80.6114780  69.2472320  37.7212170
  81.1490720  68.3843410  36.5994830  80.1577680  70.1749080  43.9742630
  80.4550010  71.0811910  43.8934650  80.7063240  69.6867860  43.3602200
  77.9116000  74.7535320  39.8434280  77.6856920  74.5372490  40.7480900
  77.1308530  75.1863780  39.4980250  85.1413760  74.7598690  38.4424930
  84.5422650  75.4834490  38.2588550  85.6893370  74.6975470  37.6601380
  80.3515210  75.6520900  50.5094550  80.2558810  74.7115630  50.3594950
  81.1947190  75.8735970  50.1142620  83.7478630  73.3962230  40.4728210
  84.1408200  73.7134430  39.6596900  84.1095480  72.5174110  40.5872730
  75.4825750  72.0634570  48.6628330  75.0889140  72.9109780  48.8701110
  74.7944150  71.4260940  48.8536970  82.0570800  72.1469540  51.7325070
  81.3669120  71.9541740  52.3671160  82.8003100  72.4304180  52.2649370
  72.7842800  69.9863030  42.6958410  72.4955850  70.5565890  43.4083390
  73.5288560  69.5067480  43.0589640  72.9713030  73.9283150  33.9061130
  72.8887700  74.8713910  34.0476120  72.6196090  73.7858060  33.0273480
  84.3333770  75.9867980  44.5678990  83.6014890  76.4954790  44.9169090
  83.9358110  75.1697960  44.2667770  80.7711160  72.6622180  42.9731480
  80.7747220  72.2212130  42.1236020  81.6662280  72.9839510  43.0803300
  76.6213540  72.5448670  41.9325690  76.2813590  73.0223900  42.6892740
  75.8590860  72.0913790  41.5726790  80.8331310  73.6634260  35.9638240
  80.9544130  73.6220740  36.9124060  80.4479820  74.5258410  35.8084970
  84.7959680  71.4401660  43.9801930  84.8132420  71.8910310  44.8243780
  84.5475260  70.5407300  44.1935370  79.8452810  75.9735400  35.3621540
  79.2769710  75.5253650  34.7357450  80.5541810  76.3328180  34.8286690
  88.2230430  68.8533840  49.8188310  88.5476200  68.1223500  50.3446290
  88.2586940  68.5347480  48.9169300  74.9221990  79.8747420  49.2388270
  74.5376780  79.2341090  49.8371230  75.2334180  80.5783540  49.8083000
  81.0719130  76.7223960  44.7196890  81.4389260  76.2482530  45.4658230
  80.8824190  77.5965530  45.0605230  73.9359620  71.4667650  40.8490360
  73.6506540  71.1023320  41.6868980  73.8738480  70.7348110  40.2353500
  78.8618500  75.7632600  47.0381100  78.5575570  76.6424580  47.2631460
  79.8164960  75.8232390  47.0738540  77.3900290  79.9693590  37.6347950
  76.6162550  79.4291210  37.4746670  78.1194920  79.4500200  37.2965710
  88.1488270  78.9658950  43.4274340  88.8687390  79.4614240  43.0370450
  87.9470090  78.2876840  42.7828210  83.6098210  70.3596910  37.5703730
  82.7962820  69.8610080  37.4949040  83.4160160  71.1995160  37.1540080
  83.5307070  79.0368010  49.3143340  83.4644380  78.1163680  49.0600930
  82.9012210  79.1343450  50.0287980  86.3246600  74.7316560  35.8665890
  87.2126220  75.0433790  35.6917230  86.2951690  73.8588810  35.4746470
  77.4337690  79.6373970  41.2726760  77.9516360  78.8342230  41.2183650
  76.9821710  79.5753110  42.1143590  82.3207190  80.9040250  36.5454060
  82.6622890  81.6482480  36.0497380  81.4919900  81.2171370  36.9078890
  74.9182230  76.6035340  48.1852460  74.5597170  77.2689190  48.7725800
  74.6236790  75.7718890  48.5565080  78.1195350  77.0619580  51.0692010
  77.8195490  77.2076760  50.1719830  78.8906590  76.5024870  50.9765400
  88.5960870  76.0428400  35.3345750  88.5124590  76.4742620  34.4842190
  89.3155060  76.5026750  35.7672570  89.6735010  78.4995920  48.4115720
  88.9483200  79.0924700  48.2145110  90.2010470  78.4919460  47.6129090
  89.6248120  82.8970660  38.0627880  88.9824280  82.2426280  38.3371600
  89.2378780  83.3025750  37.2868550  85.2034600  80.2256090  41.9099570
  85.5558420  79.6284220  41.2500940  84.3196930  79.9000320  42.0807820
  81.2897880  80.9853780  39.3169980  81.9769010  81.5322990  39.6977570
  80.5030300  81.5294510  39.3519590  73.4290280  76.6026600  34.8087060
  74.2985130  76.8851400  35.0922980  72.9380600  77.4162470  34.6935870
  80.5925090  77.9899810  38.9295340  81.0487870  78.8005060  39.1555530
  80.2413300  77.6722950  39.7613830  82.8957700  83.5006150  46.1587640
  83.5399920  83.7065530  46.8361060  83.2587140  82.7394550  45.7058490
  76.4936870  68.3337460  39.4017860  76.3651500  68.3255360  40.3502780
  75.6698890  68.6720550  39.0508870  84.1689780  81.5038500  44.8765090
  84.8112010  80.8031660  44.9897260  84.6939130  82.2836940  44.6961980
  88.0145500  81.7887120  34.6004230  87.7883080  81.0717560  35.1928870
  87.6241700  81.5399560  33.7625980  85.9427400  82.3033400  48.0801150
  86.2783640  82.8900090  48.7579070  85.0227740  82.1726110  48.3098940
  73.7961530  85.8153980  35.3748690  74.1559170  86.4143320  34.7205960
  73.6553870  86.3613870  36.1483720  73.4930800  70.0928580  48.8624560
  72.7789320  70.2925500  49.4677170  73.9125840  69.3168150  49.2339360
  87.5961750  79.7059060  36.2618390  87.3083450  80.1671750  37.0496270
  88.3913920  79.2456830  36.5302610  73.7803390  84.0808840  49.8491090
  73.8894510  83.1403580  49.7086480  73.1283950  84.3463590  49.2004820
  79.8130150  83.1985180  36.1922360  79.8040250  83.9314870  35.5766870
  78.8928510  82.9516760  36.2849320  75.4136790  78.4200070  36.9369120
  74.8064740  79.1598970  36.9464420  75.8886140  78.5099430  36.1107320
  84.9869580  72.5850890  46.6126010  85.3550400  71.7646100  46.9405580
  84.1267780  72.6452780  47.0281660  88.3531610  71.5407830  37.4213570
  87.7244770  71.6453500  36.7071800  87.8583530  71.7604610  38.2107450
  82.7989750  83.2613420  34.8547550  82.9001730  83.0577410  33.9249530
  81.8991490  83.0071700  35.0595330  80.3215640  73.8193780  38.8371450
  79.6131790  74.2880120  39.2785060  80.6060120  73.1615790  39.4716640
  81.9471570  75.2390480  46.8363980  82.4456820  75.7136300  47.5015830
  82.0894520  74.3154000  47.0434010  84.3531070  70.5444440  40.2767240
  84.2298850  70.5630570  39.3276750  85.3015630  70.5923380  40.3965640
  78.5250660  72.1278860  36.2122160  79.3741190  72.5649010  36.1462350
  78.1581930  72.4399120  37.0394220  89.1538430  71.4558440  47.6792370
  88.6512030  72.1963840  48.0186180  89.9695090  71.8442440  47.3629160
  87.4460440  76.6991620  41.1253730  86.5050580  76.7141850  41.3001420
  87.7604510  75.9127580  41.5714030  77.4242080  78.3811220  34.6857690
  78.1905350  78.2692580  35.2483120  77.5016770  77.6849190  34.0334460
  76.1188840  75.8136290  35.3690580  76.1992430  74.8663800  35.4807980
  77.0108590  76.1443170  35.4751240  89.4486020  83.8700470  42.8007990
  89.5733440  84.6931640  43.2731800  90.3151580  83.6591200  42.4532140
  76.9203550  85.9631680  42.4725120  77.6566030  85.4147140  42.7433690
  77.3044470  86.8287690  42.3331110  73.8049030  82.0305250  38.3466630
  72.8788810  82.2726390  38.3372040  74.2705460  82.8579510  38.2251380
  75.9261830  85.1477750  51.6610700  76.7274560  85.4689800  52.0746100
  75.4113650  84.7873330  52.3830610  80.0305860  85.1361990  34.2950690
  80.8234470  85.4250820  33.8432480  79.5110210  84.7054160  33.6163170
  86.1926830  84.9837910  50.2195520  87.1448580  84.8995930  50.1695760
  86.0455050  85.6479620  50.8929310  89.0836030  84.3632120  35.7187430
  88.7977540  83.9497260  34.9041610  88.8855580  85.2919830  35.5987950
  73.6459640  77.6351210  50.6046750  74.1498660  77.0558490  51.1762980
  72.9067060  77.9191440  51.1423120  80.5483260  80.3565400  34.1593040
  80.4433900  79.7417750  34.8854420  80.3807480  79.8331290  33.3756050
  80.6997580  79.0422200  50.1382270  79.9343250  79.6107200  50.0536940
  80.8813540  78.7498410  49.2450500  83.7885990  79.4185430  34.7635030
  83.2396090  79.8654730  35.4077770  84.4105250  78.9134680  35.2872700
  87.8420930  80.7727530  50.6957290  88.5830400  81.1103290  50.1924750
  87.0793610  80.9419590  50.1427060  75.6782720  75.7780800  51.4996820
  75.7188060  75.4794670  52.4082050  76.5328220  76.1788410  51.3404340
  79.4561110  78.3776350  36.6600330  79.8777530  78.2116220  37.5031720
  79.5811950  77.5676580  36.1655470  77.6188530  74.3572900  49.4671310
  77.0884990  73.8663850  48.8394650  78.2876600  74.7857100  48.9329240
  81.9688750  77.4013960  33.9077430  82.4894410  76.6862980  33.5418580
  82.6157150  78.0399830  34.2077940  86.5166590  78.8242360  49.2312500
  86.9307610  78.9787440  50.0802920  85.5817590  78.9497580  49.3938280
  86.9888760  76.1638520  51.2351650  87.5709530  75.4090840  51.1472130
  87.1650530  76.6945960  50.4583130  78.1060830  71.3235270  49.5468600
  78.0117700  70.7056020  48.8219470  77.5258220  72.0501560  49.3198510
  80.8722270  69.8808510  46.5795990  80.4239570  69.9032770  45.7341540
  80.2387470  69.4827530  47.1766290  81.2781820  78.7762840  47.2008430
  81.6969930  79.6195570  47.0284670  80.3590450  78.9134880  46.9715210
  83.6145720  76.5079020  48.5846270  83.7341930  75.9120160  49.3241110
  84.4739720  76.5448710  48.1647570  85.9533620  77.0616210  47.1608780
  85.4268840  77.5858830  46.5573920  86.2964960  77.6943600  47.7918510
  78.3520010  74.4509580  33.6058490  78.1509070  73.5876940  33.9671830
  78.1812060  74.3642940  32.6680090  79.1289240  85.0815850  48.3166160
  78.5910330  85.8061910  47.9974860  79.3823200  84.6046190  47.5263500
  80.3814490  73.0500370  49.8422090  80.9714180  72.7416220  50.5299910
  79.5634730  72.5780120  49.9981990  85.2007920  72.6666180  50.0755110
  84.5123440  72.0047720  50.0105100  85.9213940  72.2204450  50.5203570
  85.8308320  69.2617810  36.1345370  86.1110610  68.4185710  36.4904790
  85.0574050  69.4940920  36.6484120  77.1502810  71.5510200  33.5936370
  77.4528710  71.5577630  32.6855520  77.8897400  71.2008060  34.0904030
  80.3687740  70.4944820  34.5792570  80.0209740  69.8168810  33.9995020
  80.5700510  70.0334330  35.3935960  76.1732940  80.8552620  34.4266170
  76.6107810  81.3982290  35.0823750  76.6580670  80.0299570  34.4362510
  73.3878740  83.6441650  41.8786430  73.7181750  82.7762710  41.6465070
  73.8169740  83.8500170  42.7091390  77.9840660  81.9750660  39.5388400
  77.6836200  81.8515630  40.4392310  77.8778150  81.1159250  39.1304130
  73.8768950  84.5112240  44.6168060  73.4399940  84.6913040  45.4492210
  74.4446630  85.2686860  44.4749780  89.5131130  84.0129240  48.9045370
  88.9133120  84.0721800  48.1609290  89.6425030  83.0734220  49.0342220
  90.7532580  81.7547060  34.2415080  89.9225540  81.8223710  34.7122310
  90.9304410  82.6451180  33.9381940  90.2089040  78.4994540  36.7449280
  90.9707950  79.0691190  36.8508970  90.2243410  77.9321740  37.5157590
  73.7093380  77.0232470  40.9756940  73.0542220  76.7544110  40.3316640
  74.5471330  76.9136950  40.5258920  91.2149010  79.3544640  41.5891210
  91.5857840  78.5711960  41.1827180  91.8550940  80.0433740  41.4108510
  88.1982770  80.7381220  47.0021530  87.3842610  81.1678380  47.2647320
  88.6056970  81.3499630  46.3890580  90.2608210  78.7928910  33.9021800
  90.5357050  79.7007790  33.7741020  90.0718950  78.7291440  34.8383790
  86.6583820  71.8173760  35.1975430  87.0768700  71.6304740  34.3572090
  86.3519880  70.9652810  35.5078360  90.1573550  76.7297900  38.8951230
  89.7817150  75.9625830  38.4632520  89.4276670  77.1120600  39.3826160
  74.7469310  77.4085040  45.5160280  75.1142350  77.3212440  46.3956300
  74.1780130  76.6451590  45.4167140  89.5473170  75.8769420  48.5290750
  89.3159260  75.6482170  47.6288700  89.8077720  76.7968970  48.4835640
  74.2985310  74.3194130  49.4218700  73.4041360  74.2860890  49.7612410
  74.8382860  74.5180920  50.1869950  87.9861240  71.1025850  51.3070450
  88.8631420  71.1109250  51.6904450  87.9982080  70.3656690  50.6962800
  72.9231460  74.2331400  36.9182270  72.0195540  74.4961600  36.7433930
  73.4072080  74.5042570  36.1382230  89.4324510  74.9555390  42.1958470
  89.9561990  74.4618040  41.5648640  90.0183930  75.0905750  42.9406040
  89.6114230  75.0395260  45.7178020  88.6616940  75.0058800  45.8323010
  89.7927240  75.9495370  45.4827790  75.4658670  73.2896940  34.8276650
  76.1750370  72.8680160  34.3423930  74.7498610  73.3572170  34.1960000
  75.1132830  69.3436270  33.8679300  75.8360960  69.8845210  34.1860520
  75.3857350  69.0699690  32.9920840  88.9224480  74.2128740  38.1350880
  89.4183600  73.9799610  38.9199760  88.7240550  73.3740580  37.7188520
  74.8025020  68.5942460  43.7701920  75.4501210  68.0439840  43.3297080
  75.2226860  68.8485610  44.5917730  90.3511640  72.8489690  40.6688560
  90.2410920  72.6945730  41.6070830  91.1119230  72.3210630  40.4263970
  88.6977360  68.7883820  47.1271560  89.3349580  69.4017960  47.4930750
  88.8452250  68.8244480  46.1820790  91.2401910  70.6797610  33.9094700
  92.1651220  70.5478790  33.7012990  91.2177700  70.7590430  34.8631150
  91.3140400  71.4508270  36.5351410  90.5191900  71.3853390  37.0644320
  91.5183680  72.3858910  36.5236760  88.2558820  85.4899820  40.5289800
  88.8517890  85.1684390  39.8524220  88.5136970  85.0171640  41.3203070
  74.5557020  68.7498130  46.5127240  74.2071840  69.2061950  47.2785420
  74.2244720  67.8555260  46.5949670  76.1621390  81.9217730  50.6780430
  76.1191020  81.5510640  51.5594890  76.2932400  82.8595300  50.8182250
  79.8627420  83.4777320  46.2790150  79.6218780  83.7451880  45.3920670
  80.8030060  83.6483050  46.3341010  82.0681840  69.9410010  50.0346660
  82.0070730  70.5331840  50.7842070  83.0082220  69.8335970  49.8896920
  84.7056400  69.5980070  49.6738950  85.3196810  69.9159360  49.0120030
  85.2505960  69.1128660  50.2934810  91.1231580  85.4971700  47.0800790
  90.6289860  85.8940570  46.3627920  90.5144870  84.8720910  47.4738070
  75.2277660  68.2774330  49.7878010  75.7760650  68.0962380  49.0244120
  75.2932970  67.4868440  50.3234320  76.0009420  84.8679980  47.7978210
  75.4069740  84.7364680  48.5368250  75.9933260  84.0318120  47.3320310
  85.4464440  68.1612210  46.0008240  84.5724280  68.4947320  45.7981170
  85.3375190  67.6885390  46.8260110  86.3536420  70.3683080  47.3849960
  86.0249780  69.5534840  47.0051690  87.3018720  70.3252890  47.2615650
  88.8071030  86.1395120  44.3587530  88.3474000  86.8910930  43.9845550
  88.1783490  85.4201590  44.3002330  75.6321650  82.2338360  46.7486250
  74.9055710  81.6143650  46.6812200  75.6930800  82.6278970  45.8784330
  79.2366750  84.4483360  43.5335660  79.7531770  83.8370720  43.0083920
  79.8864130  84.9512140  44.0246670  81.9762250  85.3391850  44.3604640
  82.2640060  85.0846150  43.4837650  82.4885470  84.7869210  44.9510210
  83.1939260  69.0782050  44.9401150  82.4111050  69.5527550  45.2197910
  82.9002190  68.1736880  44.8314330  87.7460330  69.7805150  42.9850240
  88.1868420  69.7250250  42.1371840  87.4767920  70.6963160  43.0560420
  89.6098900  69.4120390  40.9959060  89.5487300  68.4681610  40.8490080
  90.3890930  69.5200480  41.5412520  73.9151650  85.5512750  39.9583010
  73.7473690  84.9183430  40.6564900  73.0486160  85.7572150  39.6077200
  74.5379670  69.3829530  37.4614870  75.2959030  69.4958410  36.8878900
  74.0756840  70.2198730  37.4158300  81.0793480  71.4968800  40.4517180
  80.2667990  71.1225690  40.1113060  81.5835120  70.7413880  40.7538370
  85.5818460  68.1611250  41.6900250  86.1847830  68.7331460  42.1648770
  84.8411450  68.7250690  41.4674150  88.7253060  68.5632810  36.9640530
  88.9203690  69.4616260  37.2307960  87.9382930  68.3319890  37.4573480
  75.5214350  84.2445980  37.4033150  74.9961970  84.6254010  36.6995110
  75.4458930  84.8696750  38.1242860  76.9104820  69.9093580  36.0016840
  77.4397580  69.1223380  35.8724790  77.5433140  70.5884770  36.2352370
  79.1042660  69.6468720  39.0562230  78.4745400  68.9456030  39.2232360
  78.5647800  70.4072850  38.8395390  90.2779670  85.8033520  38.7247090
  90.4531860  85.1171260  38.0808010  89.5801240  86.3280570  38.3323760
  79.2298220  68.9252700  51.4914720  78.9482490  69.4286300  50.7275540
  79.6117920  68.1274450  51.1256850  78.1207320  86.1928360  36.2782400
  78.8526140  85.9087640  35.7306290  78.3800990  85.9541640  37.1681780
  77.2822110  82.3093090  36.2828730  76.6530990  82.7778190  36.8314560
  77.3969940  81.4642310  36.7174920  85.8313680  68.3406280  52.0695190
  85.7179130  68.6600890  52.9646710  86.6483420  68.7418790  51.7732470
  88.6112170  85.4877810  51.5513880  89.4037490  84.9927040  51.3439840
  88.9045320  86.1667950  52.1589490  84.7371830  76.3598750  22.4329930
  84.6565880  75.4453360  22.1621640  84.3236250  76.8565820  21.7269640
  82.8689870  78.1377770  24.3139200  82.0931970  77.6578210  24.6037770
  83.5202800  77.4583420  24.1395360  76.8855700  78.4497580  25.1914960
  76.0540580  78.1946290  25.5911470  77.4936680  78.5208350  25.9272880
  86.8897300  82.5437960  23.0938330  86.4278830  81.7725200  23.4225500
  87.7022850  82.5704030  23.5990780  76.8656960  82.4837670  25.3872980
  77.1685000  81.5935410  25.2083200  77.6100550  83.0407890  25.1595230
  75.2947650  73.4099470  18.9757350  74.4064350  73.7515440  18.8737230
  75.5788840  73.2099790  18.0838180  73.2580660  76.0105120  24.8597050
  73.8296770  75.2427320  24.8600690  73.2582200  76.3093880  23.9503660
  83.1160610  84.8295970  22.7142320  82.4972050  85.2853470  22.1436760
  83.9712390  84.9847430  22.3132020  82.3098860  80.8134960  24.3209360
  82.2407140  79.8724900  24.1598490  83.0718720  80.9036370  24.8931930
  74.5005530  71.4189480  26.6465980  74.3208370  70.5215230  26.9268740
  74.0985610  71.9661350  27.3212930  83.3404030  73.6205340  24.5478290
  83.7168850  72.7477220  24.4351960  83.2423540  73.9564040  23.6568730
  77.4709040  71.9930970  20.0095730  77.5775790  72.8934700  20.3164490
  76.5601400  71.9448940  19.7190380  87.1228150  71.1155780  21.4806630
  87.9437770  70.6252350  21.5232110  87.1562230  71.7053440  22.2338470
  75.1192200  73.9149980  25.2548320  75.8002310  74.1788350  25.8735720
  74.8040250  73.0750850  25.5886330  79.3116770  74.9617340  24.3420910
  79.8194990  75.4598310  24.9825930  79.8430010  74.1852540  24.1660270
  91.4127700  73.1322530  28.0450260  90.7079870  73.5204240  27.5265370
  91.6785620  73.8272820  28.6471190  77.5952870  69.6015900  28.6084330
  77.5971310  70.1188290  27.8030230  76.7657180  69.1246080  28.5854260
  83.9823960  79.7135210  20.1074230  83.3641230  80.1784660  19.5436950
  84.4947210  80.4062690  20.5243740  78.8455720  79.2411080  26.7857830
  78.5125100  79.8680000  27.4278900  79.0222400  79.7672960  26.0059500
  87.3589630  73.0556160  24.2534170  86.6545200  73.3441050  24.8337280
  87.7201790  73.8656270  23.8933730  77.2768200  71.3125860  26.6154780
  77.6185010  72.1567910  26.3208650  76.3384010  71.4609600  26.7320120
  78.0574820  81.2091880  28.6007010  78.6748820  81.8842960  28.3191460
  77.1967940  81.6179860  28.5094510  73.3507160  80.3991740  17.4813860
  72.9735140  80.8878840  16.7498760  73.6080230  81.0717020  18.1120390
  88.9752410  82.6731290  26.5161650  88.2915930  83.3430400  26.5078320
  89.5146700  82.8711940  25.7506510  90.4276550  72.5010950  24.6443380
  89.4801460  72.5349930  24.7758810  90.7526540  73.3149900  25.0292740
  80.9596090  68.8008130  22.9399370  81.2671070  68.2455020  22.2234870
  80.0296790  68.9352590  22.7572360  86.5111150  84.5175420  25.2306830
  86.5238310  84.1137710  24.3629090  85.9586370  85.2922710  25.1268260
  87.8056570  81.2391640  20.3197000  87.6952900  80.2965970  20.4446420
  87.8024820  81.6007280  21.2059760  85.9096590  79.4205260  26.5589440
  86.3265380  79.2065370  25.7242900  86.6336410  79.6778050  27.1298060
  83.3476850  76.8656960  19.6759490  82.4206130  76.7994340  19.9047960
  83.5001670  77.8037090  19.5614730  83.3345930  73.1373960  16.6726650
  82.3949600  73.2987920  16.7579110  83.6529190  73.8559640  16.1262640
  89.8558690  77.8192480  26.6505680  89.0277320  77.8885570  26.1755810
  90.4509170  78.4046790  26.1821510  87.3774140  78.4277260  20.1794740
  86.7586560  78.0896810  19.5321040  87.3598590  77.7837020  20.8873930
  86.8200700  74.6061800  27.5960550  86.4071880  75.4315510  27.8500540
  86.0876650  74.0206840  27.4036910  78.9533490  77.3921700  22.4579220
  78.5490490  76.6798950  21.9625120  79.0396610  77.0474940  23.3467260
  79.4215190  81.0789260  24.6218430  79.1243480  80.4734730  23.9426210
  80.3715010  81.1166570  24.5107790  77.6662110  74.1664910  26.2378260
  78.2176700  74.2760250  25.4631510  78.1805620  74.5402510  26.9533490
  87.5100800  84.6521130  28.2841530  87.0331360  85.4593320  28.0914140
  86.8262590  83.9999460  28.4367740  78.5133620  80.8170950  31.2726230
  77.6162150  81.0410920  31.5199630  78.5386490  80.9405890  30.3237630
  85.5538840  77.6664070  17.1867490  85.9932120  76.8286500  17.0405310
  86.2667260  78.2993470  17.2731630  77.3404840  77.6884270  29.8483600
  77.2012610  78.5607070  30.2171000  76.4586200  77.3457080  29.7031540
  83.6634220  82.6060140  21.1548730  84.1030130  83.3484470  20.7404120
  83.6021110  82.8486710  22.0787690  79.1385190  83.6305970  32.0568750
  79.1100620  84.0348920  31.1897180  78.9750160  82.7016330  31.8940350
  89.1355980  68.9206880  15.5008530  88.8228640  69.0133710  16.4007600
  89.8968450  69.4987910  15.4505960  75.6538120  76.2866680  19.9585870
  75.5335720  77.0128770  19.3467140  75.3439010  75.5169590  19.4813780
  91.0900010  84.4133070  33.3532920  91.5659730  84.8915960  34.0322000
  91.7107170  84.3450560  32.6278420  73.2923490  79.4581820  25.7654510
  73.3703910  79.5930590  24.8210230  73.9065170  78.7497710  25.9582630
  74.5371120  81.1582010  22.1760690  74.1299200  81.2996600  21.3214290
  75.4284130  80.8742170  21.9731900  90.4933260  81.6045920  30.5132930
  90.6196320  81.3657800  29.5950110  90.5354640  80.7730460  30.9855010
  84.3550000  85.3073920  29.0827740  84.8694670  85.2181930  29.8850170
  83.5119080  85.6533620  29.3755650  86.3304400  85.5929260  18.5111740
  86.1705540  85.3032200  19.4093570  86.1651110  84.8169390  17.9756970
  78.8092780  85.3727790  20.2883360  78.6335260  84.4563330  20.0751160
  77.9548520  85.7315080  20.5281160  86.0330530  83.1016820  17.0709740
  85.3395690  83.0994110  16.4112020  86.7753390  82.6776140  16.6403910
  85.5980460  84.7279530  21.1458230  86.0537410  83.9468910  21.4596850
  85.9372980  85.4386350  21.6899410  90.3457270  73.6578380  31.4782670
  89.7301540  74.1658050  30.9498130  90.0253690  72.7576710  31.4208610
  73.3483010  80.4995990  28.3048970  73.5114050  80.0301350  27.4868340
  73.8135460  79.9919550  28.9697810  78.1201780  69.6301750  23.3409540
  77.6769930  70.4111290  23.0094060  78.6786770  69.9531640  24.0480480
  82.4071590  72.4970270  28.9444860  81.9450960  72.7053290  29.7564800
  82.0049700  71.6829620  28.6415530  87.4076100  73.7179220  30.0741520
  86.5569690  73.4184970  30.3950590  87.2477890  73.9621230  29.1625340
  84.5025810  75.2180970  32.1740310  84.8279220  74.3844720  31.8342540
  85.2906140  75.7409490  32.3218640  81.2360600  69.2512450  18.2215370
  80.6114780  69.2472320  18.9468680  81.1490720  68.3843410  17.8251340
  80.1577680  70.1749080  25.1999140  80.4550010  71.0811910  25.1191160
  80.7063240  69.6867860  24.5858710  77.9116000  74.7535320  21.0690790
  77.6856920  74.5372490  21.9737410  77.1308530  75.1863780  20.7236760
  85.1413760  74.7598690  19.6681440  84.5422650  75.4834490  19.4845060
  85.6893370  74.6975470  18.8857890  80.3515210  75.6520900  31.7351060
  80.2558810  74.7115630  31.5851460  81.1947190  75.8735970  31.3399130
  83.7478630  73.3962230  21.6984720  84.1408200  73.7134430  20.8853410
  84.1095480  72.5174110  21.8129240  75.4825750  72.0634570  29.8884840
  75.0889140  72.9109780  30.0957620  74.7944150  71.4260940  30.0793480
  82.0570800  72.1469540  32.9581580  81.3669120  71.9541740  33.5927670
  82.8003100  72.4304180  33.4905880  72.7842800  69.9863030  23.9214920
  72.4955850  70.5565890  24.6339900  73.5288560  69.5067480  24.2846150
  72.9713030  73.9283150  15.1317640  72.8887700  74.8713910  15.2732630
  72.6196090  73.7858060  14.2529990  84.3333770  75.9867980  25.7935500
  83.6014890  76.4954790  26.1425600  83.9358110  75.1697960  25.4924280
  80.7711160  72.6622180  24.1987990  80.7747220  72.2212130  23.3492530
  81.6662280  72.9839510  24.3059810  76.6213540  72.5448670  23.1582200
  76.2813590  73.0223900  23.9149250  75.8590860  72.0913790  22.7983300
  80.8331310  73.6634260  17.1894750  80.9544130  73.6220740  18.1380570
  80.4479820  74.5258410  17.0341480  84.7959680  71.4401660  25.2058440
  84.8132420  71.8910310  26.0500290  84.5475260  70.5407300  25.4191880
  79.8452810  75.9735400  16.5878050  79.2769710  75.5253650  15.9613960
  80.5541810  76.3328180  16.0543200  88.2230430  68.8533840  31.0444820
  88.5476200  68.1223500  31.5702800  88.2586940  68.5347480  30.1425810
  74.9221990  79.8747420  30.4644780  74.5376780  79.2341090  31.0627740
  75.2334180  80.5783540  31.0339510  81.0719130  76.7223960  25.9453400
  81.4389260  76.2482530  26.6914740  80.8824190  77.5965530  26.2861740
  73.9359620  71.4667650  22.0746870  73.6506540  71.1023320  22.9125490
  73.8738480  70.7348110  21.4610010  78.8618500  75.7632600  28.2637610
  78.5575570  76.6424580  28.4887970  79.8164960  75.8232390  28.2995050
  77.3900290  79.9693590  18.8604460  76.6162550  79.4291210  18.7003180
  78.1194920  79.4500200  18.5222220  88.1488270  78.9658950  24.6530850
  88.8687390  79.4614240  24.2626960  87.9470090  78.2876840  24.0084720
  83.6098210  70.3596910  18.7960240  82.7962820  69.8610080  18.7205550
  83.4160160  71.1995160  18.3796590  83.5307070  79.0368010  30.5399850
  83.4644380  78.1163680  30.2857440  82.9012210  79.1343450  31.2544490
  86.3246600  74.7316560  17.0922400  87.2126220  75.0433790  16.9173740
  86.2951690  73.8588810  16.7002980  77.4337690  79.6373970  22.4983270
  77.9516360  78.8342230  22.4440160  76.9821710  79.5753110  23.3400100
  82.3207190  80.9040250  17.7710570  82.6622890  81.6482480  17.2753890
  81.4919900  81.2171370  18.1335400  74.9182230  76.6035340  29.4108970
  74.5597170  77.2689190  29.9982310  74.6236790  75.7718890  29.7821590
  78.1195350  77.0619580  32.2948520  77.8195490  77.2076760  31.3976340
  78.8906590  76.5024870  32.2021910  83.4623800  81.8588580  30.2903650
  83.4768340  80.9269540  30.0722560  82.7548900  81.9448340  30.9293420
  88.5960870  76.0428400  16.5602260  88.5124590  76.4742620  15.7098700
  89.3155060  76.5026750  16.9929080  89.6735010  78.4995920  29.6372230
  88.9483200  79.0924700  29.4401620  90.2010470  78.4919460  28.8385600
  89.6248120  82.8970660  19.2884390  88.9824280  82.2426280  19.5628110
  89.2378780  83.3025750  18.5125060  85.2034600  80.2256090  23.1356080
  85.5558420  79.6284220  22.4757450  84.3196930  79.9000320  23.3064330
  81.2897880  80.9853780  20.5426490  81.9769010  81.5322990  20.9234080
  80.5030300  81.5294510  20.5776100  73.4290280  76.6026600  16.0343570
  74.2985130  76.8851400  16.3179490  72.9380600  77.4162470  15.9192380
  80.5925090  77.9899810  20.1551850  81.0487870  78.8005060  20.3812040
  80.2413300  77.6722950  20.9870340  82.8957700  83.5006150  27.3844150
  83.5399920  83.7065530  28.0617570  83.2587140  82.7394550  26.9315000
  76.4936870  68.3337460  20.6274370  76.3651500  68.3255360  21.5759290
  75.6698890  68.6720550  20.2765380  84.1689780  81.5038500  26.1021600
  84.8112010  80.8031660  26.2153770  84.6939130  82.2836940  25.9218490
  88.0145500  81.7887120  15.8260740  87.7883080  81.0717560  16.4185380
  87.6241700  81.5399560  14.9882490  85.9427400  82.3033400  29.3057660
  86.2783640  82.8900090  29.9835580  85.0227740  82.1726110  29.5355450
  73.7961530  85.8153980  16.6005200  74.1559170  86.4143320  15.9462470
  73.6553870  86.3613870  17.3740230  73.4930800  70.0928580  30.0881070
  72.7789320  70.2925500  30.6933680  73.9125840  69.3168150  30.4595870
  87.5961750  79.7059060  17.4874900  87.3083450  80.1671750  18.2752780
  88.3913920  79.2456830  17.7559120  73.7803390  84.0808840  31.0747600
  73.8894510  83.1403580  30.9342990  73.1283950  84.3463590  30.4261330
  81.7715980  82.3524730  32.4745720  81.4512850  81.6333970  33.0191410
  81.0974340  83.0279800  32.5481780  79.8130150  83.1985180  17.4178870
  79.8040250  83.9314870  16.8023380  78.8928510  82.9516760  17.5105830
  75.4136790  78.4200070  18.1625630  74.8064740  79.1598970  18.1720930
  75.8886140  78.5099430  17.3363830  84.9869580  72.5850890  27.8382520
  85.3550400  71.7646100  28.1662090  84.1267780  72.6452780  28.2538170
  88.3531610  71.5407830  18.6470080  87.7244770  71.6453500  17.9328310
  87.8583530  71.7604610  19.4363960  82.7989750  83.2613420  16.0804060
  82.9001730  83.0577410  15.1506040  81.8991490  83.0071700  16.2851840
  80.3215640  73.8193780  20.0627960  79.6131790  74.2880120  20.5041570
  80.6060120  73.1615790  20.6973150  81.9471570  75.2390480  28.0620490
  82.4456820  75.7136300  28.7272340  82.0894520  74.3154000  28.2690520
  84.3531070  70.5444440  21.5023750  84.2298850  70.5630570  20.5533260
  85.3015630  70.5923380  21.6222150  81.4407860  85.7799740  20.7751730
  81.6949360  85.7421130  19.8531100  80.4920340  85.6533070  20.7679980
  78.5250660  72.1278860  17.4378670  79.3741190  72.5649010  17.3718860
  78.1581930  72.4399120  18.2650730  89.1538430  71.4558440  28.9048880
  88.6512030  72.1963840  29.2442690  89.9695090  71.8442440  28.5885670
  87.4460440  76.6991620  22.3510240  86.5050580  76.7141850  22.5257930
  87.7604510  75.9127580  22.7970540  77.4242080  78.3811220  15.9114200
  78.1905350  78.2692580  16.4739630  77.5016770  77.6849190  15.2590970
  76.1188840  75.8136290  16.5947090  76.1992430  74.8663800  16.7064490
  77.0108590  76.1443170  16.7007750  89.4486020  83.8700470  24.0264500
  89.5733440  84.6931640  24.4988310  90.3151580  83.6591200  23.6788650
  76.9203550  85.9631680  23.6981630  77.6566030  85.4147140  23.9690200
  77.3044470  86.8287690  23.5587620  73.8049030  82.0305250  19.5723140
  72.8788810  82.2726390  19.5628550  74.2705460  82.8579510  19.4507890
  75.9261830  85.1477750  32.8867210  76.7274560  85.4689800  33.3002610
  75.4113650  84.7873330  33.6087120  80.0305860  85.1361990  15.5207200
  80.8234470  85.4250820  15.0688990  79.5110210  84.7054160  14.8419680
  84.7626460  81.2557620  32.8342620  84.1564620  81.2789220  32.0938370
  84.4580570  80.5240660  33.3709870  86.1926830  84.9837910  31.4452030
  87.1448580  84.8995930  31.3952270  86.0455050  85.6479620  32.1185820
  89.0836030  84.3632120  16.9443940  88.7977540  83.9497260  16.1298120
  88.8855580  85.2919830  16.8244460  73.6459640  77.6351210  31.8303260
  74.1498660  77.0558490  32.4019490  72.9067060  77.9191440  32.3679630
  80.5483260  80.3565400  15.3849550  80.4433900  79.7417750  16.1110930
  80.3807480  79.8331290  14.6012560  80.6997580  79.0422200  31.3638780
  79.9343250  79.6107200  31.2793450  80.8813540  78.7498410  30.4707010
  83.7885990  79.4185430  15.9891540  83.2396090  79.8654730  16.6334280
  84.4105250  78.9134680  16.5129210  87.8420930  80.7727530  31.9213800
  88.5830400  81.1103290  31.4181260  87.0793610  80.9419590  31.3683570
  75.6782720  75.7780800  32.7253330  75.7188060  75.4794670  33.6338560
  76.5328220  76.1788410  32.5660850  79.4561110  78.3776350  17.8856840
  79.8777530  78.2116220  18.7288230  79.5811950  77.5676580  17.3911980
  77.6188530  74.3572900  30.6927820  77.0884990  73.8663850  30.0651160
  78.2876600  74.7857100  30.1585750  81.9688750  77.4013960  15.1333940
  82.4894410  76.6862980  14.7675090  82.6157150  78.0399830  15.4334450
  86.5166590  78.8242360  30.4569010  86.9307610  78.9787440  31.3059430
  85.5817590  78.9497580  30.6194790  86.9888760  76.1638520  32.4608160
  87.5709530  75.4090840  32.3728640  87.1650530  76.6945960  31.6839640
  78.1060830  71.3235270  30.7725110  78.0117700  70.7056020  30.0475980
  77.5258220  72.0501560  30.5455020  80.8722270  69.8808510  27.8052500
  80.4239570  69.9032770  26.9598050  80.2387470  69.4827530  28.4022800
  81.2781820  78.7762840  28.4264940  81.6969930  79.6195570  28.2541180
  80.3590450  78.9134880  28.1971720  83.6145720  76.5079020  29.8102780
  83.7341930  75.9120160  30.5497620  84.4739720  76.5448710  29.3904080
  85.9533620  77.0616210  28.3865290  85.4268840  77.5858830  27.7830430
  86.2964960  77.6943600  29.0175020  78.3520010  74.4509580  14.8315000
  78.1509070  73.5876940  15.1928340  78.1812060  74.3642940  13.8936600
  79.1289240  85.0815850  29.5422670  78.5910330  85.8061910  29.2231370
  79.3823200  84.6046190  28.7520010  80.3814490  73.0500370  31.0678600
  80.9714180  72.7416220  31.7556420  79.5634730  72.5780120  31.2238500
  85.2007920  72.6666180  31.3011620  84.5123440  72.0047720  31.2361610
  85.9213940  72.2204450  31.7460080  85.8308320  69.2617810  17.3601880
  86.1110610  68.4185710  17.7161300  85.0574050  69.4940920  17.8740630
  77.1502810  71.5510200  14.8192880  77.4528710  71.5577630  13.9112030
  77.8897400  71.2008060  15.3160540  81.9851450  86.3167060  29.8009320
  81.9110150  87.2202200  30.1081690  81.0830290  85.9978960  29.7731390
  80.3687740  70.4944820  15.8049080  80.0209740  69.8168810  15.2251530
  80.5700510  70.0334330  16.6192470  82.5336780  85.4825570  17.4235680
  83.4287570  85.8210540  17.4454440  82.5654410  84.7604980  16.7959960
  76.1732940  80.8552620  15.6522680  76.6107810  81.3982290  16.3080260
  76.6580670  80.0299570  15.6619020  73.3878740  83.6441650  23.1042940
  73.7181750  82.7762710  22.8721580  73.8169740  83.8500170  23.9347900
  77.9840660  81.9750660  20.7644910  77.6836200  81.8515630  21.6648820
  77.8778150  81.1159250  20.3560640  73.8768950  84.5112240  25.8424570
  73.4399940  84.6913040  26.6748720  74.4446630  85.2686860  25.7006290
  89.5131130  84.0129240  30.1301880  88.9133120  84.0721800  29.3865800
  89.6425030  83.0734220  30.2598730  90.7532580  81.7547060  15.4671590
  89.9225540  81.8223710  15.9378820  90.9304410  82.6451180  15.1638450
  90.2089040  78.4994540  17.9705790  90.9707950  79.0691190  18.0765480
  90.2243410  77.9321740  18.7414100  73.7093380  77.0232470  22.2013450
  73.0542220  76.7544110  21.5573150  74.5471330  76.9136950  21.7515430
  91.2149010  79.3544640  22.8147720  91.5857840  78.5711960  22.4083690
  91.8550940  80.0433740  22.6365020  88.1982770  80.7381220  28.2278040
  87.3842610  81.1678380  28.4903830  88.6056970  81.3499630  27.6147090
  90.2608210  78.7928910  15.1278310  90.5357050  79.7007790  14.9997530
  90.0718950  78.7291440  16.0640300  86.6583820  71.8173760  16.4231940
  87.0768700  71.6304740  15.5828600  86.3519880  70.9652810  16.7334870
  90.1573550  76.7297900  20.1207740  89.7817150  75.9625830  19.6889030
  89.4276670  77.1120600  20.6082670  74.7469310  77.4085040  26.7416790
  75.1142350  77.3212440  27.6212810  74.1780130  76.6451590  26.6423650
  89.5473170  75.8769420  29.7547260  89.3159260  75.6482170  28.8545210
  89.8077720  76.7968970  29.7092150  74.2985310  74.3194130  30.6475210
  73.4041360  74.2860890  30.9868920  74.8382860  74.5180920  31.4126460
  87.9861240  71.1025850  32.5326960  88.8631420  71.1109250  32.9160960
  87.9982080  70.3656690  31.9219310  72.9231460  74.2331400  18.1438780
  72.0195540  74.4961600  17.9690440  73.4072080  74.5042570  17.3638740
  89.4324510  74.9555390  23.4214980  89.9561990  74.4618040  22.7905150
  90.0183930  75.0905750  24.1662550  89.6114230  75.0395260  26.9434530
  88.6616940  75.0058800  27.0579520  89.7927240  75.9495370  26.7084300
  75.4658670  73.2896940  16.0533160  76.1750370  72.8680160  15.5680440
  74.7498610  73.3572170  15.4216510  75.1132830  69.3436270  15.0935810
  75.8360960  69.8845210  15.4117030  75.3857350  69.0699690  14.2177350
  88.9224480  74.2128740  19.3607390  89.4183600  73.9799610  20.1456270
  88.7240550  73.3740580  18.9445030  74.8025020  68.5942460  24.9958430
  75.4501210  68.0439840  24.5553590  75.2226860  68.8485610  25.8174240
  90.3511640  72.8489690  21.8945070  90.2410920  72.6945730  22.8327340
  91.1119230  72.3210630  21.6520480  88.6977360  68.7883820  28.3528070
  89.3349580  69.4017960  28.7187260  88.8452250  68.8244480  27.4077300
  91.2401910  70.6797610  15.1351210  92.1651220  70.5478790  14.9269500
  91.2177700  70.7590430  16.0887660  91.3140400  71.4508270  17.7607920
  90.5191900  71.3853390  18.2900830  91.5183680  72.3858910  17.7493270
  88.2558820  85.4899820  21.7546310  88.8517890  85.1684390  21.0780730
  88.5136970  85.0171640  22.5459580  74.5557020  68.7498130  27.7383750
  74.2071840  69.2061950  28.5041930  74.2244720  67.8555260  27.8206180
  76.1621390  81.9217730  31.9036940  76.1191020  81.5510640  32.7851400
  76.2932400  82.8595300  32.0438760  79.8627420  83.4777320  27.5046660
  79.6218780  83.7451880  26.6177180  80.8030060  83.6483050  27.5597520
  82.0681840  69.9410010  31.2603170  82.0070730  70.5331840  32.0098580
  83.0082220  69.8335970  31.1153430  84.7056400  69.5980070  30.8995460
  85.3196810  69.9159360  30.2376540  85.2505960  69.1128660  31.5191320
  91.1231580  85.4971700  28.3057300  90.6289860  85.8940570  27.5884430
  90.5144870  84.8720910  28.6994580  75.2277660  68.2774330  31.0134520
  75.7760650  68.0962380  30.2500630  75.2932970  67.4868440  31.5490830
  76.0009420  84.8679980  29.0234720  75.4069740  84.7364680  29.7624760
  75.9933260  84.0318120  28.5576820  85.4464440  68.1612210  27.2264750
  84.5724280  68.4947320  27.0237680  85.3375190  67.6885390  28.0516620
  86.3536420  70.3683080  28.6106470  86.0249780  69.5534840  28.2308200
  87.3018720  70.3252890  28.4872160  88.8071030  86.1395120  25.5844040
  88.3474000  86.8910930  25.2102060  88.1783490  85.4201590  25.5258840
  75.6321650  82.2338360  27.9742760  74.9055710  81.6143650  27.9068710
  75.6930800  82.6278970  27.1040840  79.2366750  84.4483360  24.7592170
  79.7531770  83.8370720  24.2340430  79.8864130  84.9512140  25.2503180
  81.9762250  85.3391850  25.5861150  82.2640060  85.0846150  24.7094160
  82.4885470  84.7869210  26.1766720  83.1939260  69.0782050  26.1657660
  82.4111050  69.5527550  26.4454420  82.9002190  68.1736880  26.0570840
  87.7460330  69.7805150  24.2106750  88.1868420  69.7250250  23.3628350
  87.4767920  70.6963160  24.2816930  89.6098900  69.4120390  22.2215570
  89.5487300  68.4681610  22.0746590  90.3890930  69.5200480  22.7669030
  73.9151650  85.5512750  21.1839520  73.7473690  84.9183430  21.8821410
  73.0486160  85.7572150  20.8333710  74.5379670  69.3829530  18.6871380
  75.2959030  69.4958410  18.1135410  74.0756840  70.2198730  18.6414810
  81.0793480  71.4968800  21.6773690  80.2667990  71.1225690  21.3369570
  81.5835120  70.7413880  21.9794880  85.5818460  68.1611250  22.9156760
  86.1847830  68.7331460  23.3905280  84.8411450  68.7250690  22.6930660
  88.7253060  68.5632810  18.1897040  88.9203690  69.4616260  18.4564470
  87.9382930  68.3319890  18.6829990  75.5214350  84.2445980  18.6289660
  74.9961970  84.6254010  17.9251620  75.4458930  84.8696750  19.3499370
  76.9104820  69.9093580  17.2273350  77.4397580  69.1223380  17.0981300
  77.5433140  70.5884770  17.4608880  79.1042660  69.6468720  20.2818740
  78.4745400  68.9456030  20.4488870  78.5647800  70.4072850  20.0651900
  82.0434610  86.2607950  32.9529350  82.9701920  86.0252220  32.9965310
  82.0285040  87.0879950  32.4715380  90.2779670  85.8033520  19.9503600
  90.4531860  85.1171260  19.3064520  89.5801240  86.3280570  19.5580270
  79.2298220  68.9252700  32.7171230  78.9482490  69.4286300  31.9532050
  79.6117920  68.1274450  32.3513360  78.1207320  86.1928360  17.5038910
  78.8526140  85.9087640  16.9562800  78.3800990  85.9541640  18.3938290
  77.2822110  82.3093090  17.5085240  76.6530990  82.7778190  18.0571070
  77.3969940  81.4642310  17.9431430  85.8313680  68.3406280  33.2951700
  85.7179130  68.6600890  34.1903220  86.6483420  68.7418790  32.9988980
  88.6112170  85.4877810  32.7770390  89.4037490  84.9927040  32.5696350
  88.9045320  86.1667950  33.3846000  84.7371830  76.3598750   3.6586440
  84.6565880  75.4453360   3.3878150  84.3236250  76.8565820   2.9526150
  82.8689870  78.1377770   5.5395710  82.0931970  77.6578210   5.8294280
  83.5202800  77.4583420   5.3651870  76.8855700  78.4497580   6.4171470
  76.0540580  78.1946290   6.8167980  77.4936680  78.5208350   7.1529390
  86.8897300  82.5437960   4.3194840  86.4278830  81.7725200   4.6482010
  87.7022850  82.5704030   4.8247290  76.8656960  82.4837670   6.6129490
  77.1685000  81.5935410   6.4339710  77.6100550  83.0407890   6.3851740
  73.2580660  76.0105120   6.0853560  73.8296770  75.2427320   6.0857200
  73.2582200  76.3093880   5.1760170  83.1160610  84.8295970   3.9398830
  82.4972050  85.2853470   3.3693270  83.9712390  84.9847430   3.5388530
  82.3098860  80.8134960   5.5465870  82.2407140  79.8724900   5.3855000
  83.0718720  80.9036370   6.1188440  74.5005530  71.4189480   7.8722490
  74.3208370  70.5215230   8.1525250  74.0985610  71.9661350   8.5469440
  83.3404030  73.6205340   5.7734800  83.7168850  72.7477220   5.6608470
  83.2423540  73.9564040   4.8825240  87.1228150  71.1155780   2.7063140
  87.9437770  70.6252350   2.7488620  87.1562230  71.7053440   3.4594980
  75.1192200  73.9149980   6.4804830  75.8002310  74.1788350   7.0992230
  74.8040250  73.0750850   6.8142840  79.3116770  74.9617340   5.5677420
  79.8194990  75.4598310   6.2082440  79.8430010  74.1852540   5.3916780
  91.4127700  73.1322530   9.2706770  90.7079870  73.5204240   8.7521880
  91.6785620  73.8272820   9.8727700  77.5952870  69.6015900   9.8340840
  77.5971310  70.1188290   9.0286740  76.7657180  69.1246080   9.8110770
  78.8455720  79.2411080   8.0114340  78.5125100  79.8680000   8.6535410
  79.0222400  79.7672960   7.2316010  87.3589630  73.0556160   5.4790680
  86.6545200  73.3441050   6.0593790  87.7201790  73.8656270   5.1190240
  77.2768200  71.3125860   7.8411290  77.6185010  72.1567910   7.5465160
  76.3384010  71.4609600   7.9576630  78.0574820  81.2091880   9.8263520
  78.6748820  81.8842960   9.5447970  77.1967940  81.6179860   9.7351020
  88.9752410  82.6731290   7.7418160  88.2915930  83.3430400   7.7334830
  89.5146700  82.8711940   6.9763020  90.4276550  72.5010950   5.8699890
  89.4801460  72.5349930   6.0015320  90.7526540  73.3149900   6.2549250
  80.9596090  68.8008130   4.1655880  81.2671070  68.2455020   3.4491380
  80.0296790  68.9352590   3.9828870  86.5111150  84.5175420   6.4563340
  86.5238310  84.1137710   5.5885600  85.9586370  85.2922710   6.3524770
  85.9096590  79.4205260   7.7845950  86.3265380  79.2065370   6.9499410
  86.6336410  79.6778050   8.3554570  89.8558690  77.8192480   7.8762190
  89.0277320  77.8885570   7.4012320  90.4509170  78.4046790   7.4078020
  86.8200700  74.6061800   8.8217060  86.4071880  75.4315510   9.0757050
  86.0876650  74.0206840   8.6293420  78.9533490  77.3921700   3.6835730
  78.5490490  76.6798950   3.1881630  79.0396610  77.0474940   4.5723770
  79.4215190  81.0789260   5.8474940  79.1243480  80.4734730   5.1682720
  80.3715010  81.1166570   5.7364300  77.6662110  74.1664910   7.4634770
  78.2176700  74.2760250   6.6888020  78.1805620  74.5402510   8.1790000
  87.5100800  84.6521130   9.5098040  87.0331360  85.4593320   9.3170650
  86.8262590  83.9999460   9.6624250  78.5133620  80.8170950  12.4982740
  77.6162150  81.0410920  12.7456140  78.5386490  80.9405890  11.5494140
  77.3404840  77.6884270  11.0740110  77.2012610  78.5607070  11.4427510
  76.4586200  77.3457080  10.9288050  83.6634220  82.6060140   2.3805240
  84.1030130  83.3484470   1.9660630  83.6021110  82.8486710   3.3044200
  79.1385190  83.6305970  13.2825260  79.1100620  84.0348920  12.4153690
  78.9750160  82.7016330  13.1196860  91.0900010  84.4133070  14.5789430
  91.5659730  84.8915960  15.2578510  91.7107170  84.3450560  13.8534930
  73.2923490  79.4581820   6.9911020  73.3703910  79.5930590   6.0466740
  73.9065170  78.7497710   7.1839140  74.5371120  81.1582010   3.4017200
  74.1299200  81.2996600   2.5470800  75.4284130  80.8742170   3.1988410
  90.4933260  81.6045920  11.7389440  90.6196320  81.3657800  10.8206620
  90.5354640  80.7730460  12.2111520  84.3550000  85.3073920  10.3084250
  84.8694670  85.2181930  11.1106680  83.5119080  85.6533620  10.6012160
  85.5980460  84.7279530   2.3714740  86.0537410  83.9468910   2.6853360
  85.9372980  85.4386350   2.9155920  90.3457270  73.6578380  12.7039180
  89.7301540  74.1658050  12.1754640  90.0253690  72.7576710  12.6465120
  73.3483010  80.4995990   9.5305480  73.5114050  80.0301350   8.7124850
  73.8135460  79.9919550  10.1954320  78.1201780  69.6301750   4.5666050
  77.6769930  70.4111290   4.2350570  78.6786770  69.9531640   5.2736990
  82.4071590  72.4970270  10.1701370  81.9450960  72.7053290  10.9821310
  82.0049700  71.6829620   9.8672040  87.4076100  73.7179220  11.2998030
  86.5569690  73.4184970  11.6207100  87.2477890  73.9621230  10.3881850
  84.5025810  75.2180970  13.3996820  84.8279220  74.3844720  13.0599050
  85.2906140  75.7409490  13.5475150  80.1577680  70.1749080   6.4255650
  80.4550010  71.0811910   6.3447670  80.7063240  69.6867860   5.8115220
  77.9116000  74.7535320   2.2947300  77.6856920  74.5372490   3.1993920
  77.1308530  75.1863780   1.9493270  80.3515210  75.6520900  12.9607570
  80.2558810  74.7115630  12.8107970  81.1947190  75.8735970  12.5655640
  83.7478630  73.3962230   2.9241230  84.1408200  73.7134430   2.1109920
  84.1095480  72.5174110   3.0385750  75.4825750  72.0634570  11.1141350
  75.0889140  72.9109780  11.3214130  74.7944150  71.4260940  11.3049990
  82.0570800  72.1469540  14.1838090  81.3669120  71.9541740  14.8184180
  82.8003100  72.4304180  14.7162390  72.7842800  69.9863030   5.1471430
  72.4955850  70.5565890   5.8596410  73.5288560  69.5067480   5.5102660
  84.3333770  75.9867980   7.0192010  83.6014890  76.4954790   7.3682110
  83.9358110  75.1697960   6.7180790  80.7711160  72.6622180   5.4244500
  80.7747220  72.2212130   4.5749040  81.6662280  72.9839510   5.5316320
  76.6213540  72.5448670   4.3838710  76.2813590  73.0223900   5.1405760
  75.8590860  72.0913790   4.0239810  84.7959680  71.4401660   6.4314950
  84.8132420  71.8910310   7.2756800  84.5475260  70.5407300   6.6448390
  88.2230430  68.8533840  12.2701330  88.5476200  68.1223500  12.7959310
  88.2586940  68.5347480  11.3682320  74.9221990  79.8747420  11.6901290
  74.5376780  79.2341090  12.2884250  75.2334180  80.5783540  12.2596020
  81.0719130  76.7223960   7.1709910  81.4389260  76.2482530   7.9171250
  80.8824190  77.5965530   7.5118250  73.9359620  71.4667650   3.3003380
  73.6506540  71.1023320   4.1382000  73.8738480  70.7348110   2.6866520
  78.8618500  75.7632600   9.4894120  78.5575570  76.6424580   9.7144480
  79.8164960  75.8232390   9.5251560  88.1488270  78.9658950   5.8787360
  88.8687390  79.4614240   5.4883470  87.9470090  78.2876840   5.2341230
  83.5307070  79.0368010  11.7656360  83.4644380  78.1163680  11.5113950
  82.9012210  79.1343450  12.4801000  77.4337690  79.6373970   3.7239780
  77.9516360  78.8342230   3.6696670  76.9821710  79.5753110   4.5656610
  74.9182230  76.6035340  10.6365480  74.5597170  77.2689190  11.2238820
  74.6236790  75.7718890  11.0078100  78.1195350  77.0619580  13.5205030
  77.8195490  77.2076760  12.6232850  78.8906590  76.5024870  13.4278420
  83.4623800  81.8588580  11.5160160  83.4768340  80.9269540  11.2979070
  82.7548900  81.9448340  12.1549930  89.6735010  78.4995920  10.8628740
  88.9483200  79.0924700  10.6658130  90.2010470  78.4919460  10.0642110
  85.2034600  80.2256090   4.3612590  85.5558420  79.6284220   3.7013960
  84.3196930  79.9000320   4.5320840  81.2897880  80.9853780   1.7683000
  81.9769010  81.5322990   2.1490590  80.5030300  81.5294510   1.8032610
  82.8957700  83.5006150   8.6100660  83.5399920  83.7065530   9.2874080
  83.2587140  82.7394550   8.1571510  84.1689780  81.5038500   7.3278110
  84.8112010  80.8031660   7.4410280  84.6939130  82.2836940   7.1475000
  85.9427400  82.3033400  10.5314170  86.2783640  82.8900090  11.2092090
  85.0227740  82.1726110  10.7611960  73.4930800  70.0928580  11.3137580
  72.7789320  70.2925500  11.9190190  73.9125840  69.3168150  11.6852380
  73.7803390  84.0808840  12.3004110  73.8894510  83.1403580  12.1599500
  73.1283950  84.3463590  11.6517840  81.7715980  82.3524730  13.7002230
  81.4512850  81.6333970  14.2447920  81.0974340  83.0279800  13.7738290
  84.9869580  72.5850890   9.0639030  85.3550400  71.7646100   9.3918600
  84.1267780  72.6452780   9.4794680  81.9471570  75.2390480   9.2877000
  82.4456820  75.7136300   9.9528850  82.0894520  74.3154000   9.4947030
  84.3531070  70.5444440   2.7280260  84.2298850  70.5630570   1.7789770
  85.3015630  70.5923380   2.8478660  89.1538430  71.4558440  10.1305390
  88.6512030  72.1963840  10.4699200  89.9695090  71.8442440   9.8142180
  87.4460440  76.6991620   3.5766750  86.5050580  76.7141850   3.7514440
  87.7604510  75.9127580   4.0227050  89.4486020  83.8700470   5.2521010
  89.5733440  84.6931640   5.7244820  90.3151580  83.6591200   4.9045160
  76.9203550  85.9631680   4.9238140  77.6566030  85.4147140   5.1946710
  77.3044470  86.8287690   4.7844130  75.9261830  85.1477750  14.1123720
  76.7274560  85.4689800  14.5259120  75.4113650  84.7873330  14.8343630
  84.7626460  81.2557620  14.0599130  84.1564620  81.2789220  13.3194880
  84.4580570  80.5240660  14.5966380  86.1926830  84.9837910  12.6708540
  87.1448580  84.8995930  12.6208780  86.0455050  85.6479620  13.3442330
  73.6459640  77.6351210  13.0559770  74.1498660  77.0558490  13.6276000
  72.9067060  77.9191440  13.5936140  80.6997580  79.0422200  12.5895290
  79.9343250  79.6107200  12.5049960  80.8813540  78.7498410  11.6963520
  87.8420930  80.7727530  13.1470310  88.5830400  81.1103290  12.6437770
  87.0793610  80.9419590  12.5940080  75.6782720  75.7780800  13.9509840
  75.7188060  75.4794670  14.8595070  76.5328220  76.1788410  13.7917360
  77.6188530  74.3572900  11.9184330  77.0884990  73.8663850  11.2907670
  78.2876600  74.7857100  11.3842260  86.5166590  78.8242360  11.6825520
  86.9307610  78.9787440  12.5315940  85.5817590  78.9497580  11.8451300
  86.9888760  76.1638520  13.6864670  87.5709530  75.4090840  13.5985150
  87.1650530  76.6945960  12.9096150  78.1060830  71.3235270  11.9981620
  78.0117700  70.7056020  11.2732490  77.5258220  72.0501560  11.7711530
  80.8722270  69.8808510   9.0309010  80.4239570  69.9032770   8.1854560
  80.2387470  69.4827530   9.6279310  81.2781820  78.7762840   9.6521450
  81.6969930  79.6195570   9.4797690  80.3590450  78.9134880   9.4228230
  83.6145720  76.5079020  11.0359290  83.7341930  75.9120160  11.7754130
  84.4739720  76.5448710  10.6160590  85.9533620  77.0616210   9.6121800
  85.4268840  77.5858830   9.0086940  86.2964960  77.6943600  10.2431530
  79.1289240  85.0815850  10.7679180  78.5910330  85.8061910  10.4487880
  79.3823200  84.6046190   9.9776520  80.3814490  73.0500370  12.2935110
  80.9714180  72.7416220  12.9812930  79.5634730  72.5780120  12.4495010
  85.2007920  72.6666180  12.5268130  84.5123440  72.0047720  12.4618120
  85.9213940  72.2204450  12.9716590  81.9851450  86.3167060  11.0265830
  81.9110150  87.2202200  11.3338200  81.0830290  85.9978960  10.9987900
  73.3878740  83.6441650   4.3299450  73.7181750  82.7762710   4.0978090
  73.8169740  83.8500170   5.1604410  73.8768950  84.5112240   7.0681080
  73.4399940  84.6913040   7.9005230  74.4446630  85.2686860   6.9262800
  89.5131130  84.0129240  11.3558390  88.9133120  84.0721800  10.6122310
  89.6425030  83.0734220  11.4855240  73.7093380  77.0232470   3.4269960
  73.0542220  76.7544110   2.7829660  74.5471330  76.9136950   2.9771940
  91.2149010  79.3544640   4.0404230  91.5857840  78.5711960   3.6340200
  91.8550940  80.0433740   3.8621530  88.1982770  80.7381220   9.4534550
  87.3842610  81.1678380   9.7160340  88.6056970  81.3499630   8.8403600
  74.7469310  77.4085040   7.9673300  75.1142350  77.3212440   8.8469320
  74.1780130  76.6451590   7.8680160  89.5473170  75.8769420  10.9803770
  89.3159260  75.6482170  10.0801720  89.8077720  76.7968970  10.9348660
  74.2985310  74.3194130  11.8731720  73.4041360  74.2860890  12.2125430
  74.8382860  74.5180920  12.6382970  87.9861240  71.1025850  13.7583470
  88.8631420  71.1109250  14.1417470  87.9982080  70.3656690  13.1475820
  89.4324510  74.9555390   4.6471490  89.9561990  74.4618040   4.0161660
  90.0183930  75.0905750   5.3919060  89.6114230  75.0395260   8.1691040
  88.6616940  75.0058800   8.2836030  89.7927240  75.9495370   7.9340810
  74.8025020  68.5942460   6.2214940  75.4501210  68.0439840   5.7810100
  75.2226860  68.8485610   7.0430750  90.3511640  72.8489690   3.1201580
  90.2410920  72.6945730   4.0583850  91.1119230  72.3210630   2.8776990
  88.6977360  68.7883820   9.5784580  89.3349580  69.4017960   9.9443770
  88.8452250  68.8244480   8.6333810  88.2558820  85.4899820   2.9802820
  88.8517890  85.1684390   2.3037240  88.5136970  85.0171640   3.7716090
  74.5557020  68.7498130   8.9640260  74.2071840  69.2061950   9.7298440
  74.2244720  67.8555260   9.0462690  76.1621390  81.9217730  13.1293450
  76.1191020  81.5510640  14.0107910  76.2932400  82.8595300  13.2695270
  79.8627420  83.4777320   8.7303170  79.6218780  83.7451880   7.8433690
  80.8030060  83.6483050   8.7854030  82.0681840  69.9410010  12.4859680
  82.0070730  70.5331840  13.2355090  83.0082220  69.8335970  12.3409940
  84.7056400  69.5980070  12.1251970  85.3196810  69.9159360  11.4633050
  85.2505960  69.1128660  12.7447830  91.1231580  85.4971700   9.5313810
  90.6289860  85.8940570   8.8140940  90.5144870  84.8720910   9.9251090
  75.2277660  68.2774330  12.2391030  75.7760650  68.0962380  11.4757140
  75.2932970  67.4868440  12.7747340  76.0009420  84.8679980  10.2491230
  75.4069740  84.7364680  10.9881270  75.9933260  84.0318120   9.7833330
  85.4464440  68.1612210   8.4521260  84.5724280  68.4947320   8.2494190
  85.3375190  67.6885390   9.2773130  86.3536420  70.3683080   9.8362980
  86.0249780  69.5534840   9.4564710  87.3018720  70.3252890   9.7128670
  88.8071030  86.1395120   6.8100550  88.3474000  86.8910930   6.4358570
  88.1783490  85.4201590   6.7515350  75.6321650  82.2338360   9.1999270
  74.9055710  81.6143650   9.1325220  75.6930800  82.6278970   8.3297350
  79.2366750  84.4483360   5.9848680  79.7531770  83.8370720   5.4596940
  79.8864130  84.9512140   6.4759690  81.9762250  85.3391850   6.8117660
  82.2640060  85.0846150   5.9350670  82.4885470  84.7869210   7.4023230
  83.1939260  69.0782050   7.3914170  82.4111050  69.5527550   7.6710930
  82.9002190  68.1736880   7.2827350  87.7460330  69.7805150   5.4363260
  88.1868420  69.7250250   4.5884860  87.4767920  70.6963160   5.5073440
  89.6098900  69.4120390   3.4472080  89.5487300  68.4681610   3.3003100
  90.3890930  69.5200480   3.9925540  73.9151650  85.5512750   2.4096030
  73.7473690  84.9183430   3.1077920  73.0486160  85.7572150   2.0590220
  81.0793480  71.4968800   2.9030200  80.2667990  71.1225690   2.5626080
  81.5835120  70.7413880   3.2051390  85.5818460  68.1611250   4.1413270
  86.1847830  68.7331460   4.6161790  84.8411450  68.7250690   3.9187170
  82.0434610  86.2607950  14.1785860  82.9701920  86.0252220  14.2221820
  82.0285040  87.0879950  13.6971890  79.2298220  68.9252700  13.9427740
  78.9482490  69.4286300  13.1788560  79.6117920  68.1274450  13.5769870
  85.8313680  68.3406280  14.5208210  85.7179130  68.6600890  15.4159730
  86.6483420  68.7418790  14.2245490  88.6112170  85.4877810  14.0026900
  89.4037490  84.9927040  13.7952860  88.9045320  86.1667950  14.6102510
  84.7371830  57.5855260  97.5303890  84.6565880  56.6709870  97.2595600
  84.3236250  58.0822330  96.8243600  82.8689870  59.3634280  99.4113160
  82.0931970  58.8834720  99.7011730  83.5202800  58.6839930  99.2369320
  76.8855700  59.6754090 100.2888920  76.0540580  59.4202800 100.6885430
  77.4936680  59.7464860 101.0246840  86.8897300  63.7694470  98.1912290
  86.4278830  62.9981710  98.5199460  87.7022850  63.7960540  98.6964740
  76.8656960  63.7094180 100.4846940  77.1685000  62.8191920 100.3057160
  77.6100550  64.2664400 100.2569190  75.2947650  54.6355980  94.0731310
  74.4064350  54.9771950  93.9711190  75.5788840  54.4356300  93.1812140
  73.2580660  57.2361630  99.9571010  73.8296770  56.4683830  99.9574650
  73.2582200  57.5350390  99.0477620  83.1160610  66.0552480  97.8116280
  82.4972050  66.5109980  97.2410720  83.9712390  66.2103940  97.4105980
  82.3098860  62.0391470  99.4183320  82.2407140  61.0981410  99.2572450
  83.0718720  62.1292880  99.9905890  74.5005530  52.6445990 101.7439940
  74.3208370  51.7471740 102.0242700  74.0985610  53.1917860 102.4186890
  83.3404030  54.8461850  99.6452250  83.7168850  53.9733730  99.5325920
  83.2423540  55.1820550  98.7542690  77.4709040  53.2187480  95.1069690
  77.5775790  54.1191210  95.4138450  76.5601400  53.1705450  94.8164340
  87.1228150  52.3412290  96.5780590  87.9437770  51.8508860  96.6206070
  87.1562230  52.9309950  97.3312430  75.1192200  55.1406490 100.3522280
  75.8002310  55.4044860 100.9709680  74.8040250  54.3007360 100.6860290
  79.3116770  56.1873850  99.4394870  79.8194990  56.6854820 100.0799890
  79.8430010  55.4109050  99.2634230  83.9823960  60.9391720  95.2048190
  83.3641230  61.4041170  94.6410910  84.4947210  61.6319200  95.6217700
  78.8455720  60.4667590 101.8831790  78.5125100  61.0936510 102.5252860
  79.0222400  60.9929470 101.1033460  87.3589630  54.2812670  99.3508130
  86.6545200  54.5697560  99.9311240  87.7201790  55.0912780  98.9907690
  77.2768200  52.5382370 101.7128740  77.6185010  53.3824420 101.4182610
  76.3384010  52.6866110 101.8294080  73.3507160  61.6248250  92.5787820
  72.9735140  62.1135350  91.8472720  73.6080230  62.2973530  93.2094350
  88.9752410  63.8987800 101.6135610  88.2915930  64.5686910 101.6052280
  89.5146700  64.0968450 100.8480470  90.4276550  53.7267460  99.7417340
  89.4801460  53.7606440  99.8732770  90.7526540  54.5406410 100.1266700
  80.9596090  50.0264640  98.0373330  81.2671070  49.4711530  97.3208830
  80.0296790  50.1609100  97.8546320  86.5111150  65.7431930 100.3280790
  86.5238310  65.3394220  99.4603050  85.9586370  66.5179220 100.2242220
  87.8056570  62.4648150  95.4170960  87.6952900  61.5222480  95.5420380
  87.8024820  62.8263790  96.3033720  85.9096590  60.6461770 101.6563400
  86.3265380  60.4321880 100.8216860  86.6336410  60.9034560 102.2272020
  83.3476850  58.0913470  94.7733450  82.4206130  58.0250850  95.0021920
  83.5001670  59.0293600  94.6588690  83.3345930  54.3630470  91.7700610
  82.3949600  54.5244430  91.8553070  83.6529190  55.0816150  91.2236600
  89.8558690  59.0448990 101.7479640  89.0277320  59.1142080 101.2729770
  90.4509170  59.6303300 101.2795470  87.3774140  59.6533770  95.2768700
  86.7586560  59.3153320  94.6295000  87.3598590  59.0093530  95.9847890
  78.9533490  58.6178210  97.5553180  78.5490490  57.9055460  97.0599080
  79.0396610  58.2731450  98.4441220  79.4215190  62.3045770  99.7192390
  79.1243480  61.6991240  99.0400170  80.3715010  62.3423080  99.6081750
  77.6662110  55.3921420 101.3352220  78.2176700  55.5016760 100.5605470
  78.1805620  55.7659020 102.0507450  85.5538840  58.8920580  92.2841450
  85.9932120  58.0543010  92.1379270  86.2667260  59.5249980  92.3705590
  83.6634220  63.8316650  96.2522690  84.1030130  64.5740980  95.8378080
  83.6021110  64.0743220  97.1761650  89.1355980  50.1463390  90.5982490
  88.8228640  50.2390220  91.4981560  89.8968450  50.7244420  90.5479920
  75.6538120  57.5123190  95.0559830  75.5335720  58.2385280  94.4441100
  75.3439010  56.7426100  94.5787740  73.2923490  60.6838330 100.8628470
  73.3703910  60.8187100  99.9184190  73.9065170  59.9754220 101.0556590
  74.5371120  62.3838520  97.2734650  74.1299200  62.5253110  96.4188250
  75.4284130  62.0998680  97.0705860  86.3304400  66.8185770  93.6085700
  86.1705540  66.5288710  94.5067530  86.1651110  66.0425900  93.0730930
  78.8092780  66.5984300  95.3857320  78.6335260  65.6819840  95.1725120
  77.9548520  66.9571590  95.6255120  86.0330530  64.3273330  92.1683700
  85.3395690  64.3250620  91.5085980  86.7753390  63.9032650  91.7377870
  85.5980460  65.9536040  96.2432190  86.0537410  65.1725420  96.5570810
  85.9372980  66.6642860  96.7873370  78.1201780  50.8558260  98.4383500
  77.6769930  51.6367800  98.1068020  78.6786770  51.1788150  99.1454440
  81.2360600  50.4768960  93.3189330  80.6114780  50.4728830  94.0442640
  81.1490720  49.6099920  92.9225300  80.1577680  51.4005590 100.2973100
  80.4550010  52.3068420 100.2165120  80.7063240  50.9124370  99.6832670
  77.9116000  55.9791830  96.1664750  77.6856920  55.7629000  97.0711370
  77.1308530  56.4120290  95.8210720  85.1413760  55.9855200  94.7655400
  84.5422650  56.7091000  94.5819020  85.6893370  55.9231980  93.9831850
  83.7478630  54.6218740  96.7958680  84.1408200  54.9390940  95.9827370
  84.1095480  53.7430620  96.9103200  72.7842800  51.2119540  99.0188880
  72.4955850  51.7822400  99.7313860  73.5288560  50.7323990  99.3820110
  72.9713030  55.1539660  90.2291600  72.8887700  56.0970420  90.3706590
  72.6196090  55.0114570  89.3503950  84.3333770  57.2124490 100.8909460
  83.6014890  57.7211300 101.2399560  83.9358110  56.3954470 100.5898240
  80.7711160  53.8878690  99.2961950  80.7747220  53.4468640  98.4466490
  81.6662280  54.2096020  99.4033770  76.6213540  53.7705180  98.2556160
  76.2813590  54.2480410  99.0123210  75.8590860  53.3170300  97.8957260
  80.8331310  54.8890770  92.2868710  80.9544130  54.8477250  93.2354530
  80.4479820  55.7514920  92.1315440  84.7959680  52.6658170 100.3032400
  84.8132420  53.1166820 101.1474250  84.5475260  51.7663810 100.5165840
  79.8452810  57.1991910  91.6852010  79.2769710  56.7510160  91.0587920
  80.5541810  57.5584690  91.1517160  81.0719130  57.9480470 101.0427360
  81.4389260  57.4739040 101.7888700  80.8824190  58.8222040 101.3835700
  73.9359620  52.6924160  97.1720830  73.6506540  52.3279830  98.0099450
  73.8738480  51.9604620  96.5583970  77.3900290  61.1950100  93.9578420
  76.6162550  60.6547720  93.7977140  78.1194920  60.6756710  93.6196180
  88.1488270  60.1915460  99.7504810  88.8687390  60.6870750  99.3600920
  87.9470090  59.5133350  99.1058680  83.6098210  51.5853420  93.8934200
  82.7962820  51.0866590  93.8179510  83.4160160  52.4251670  93.4770550
  86.3246600  55.9573070  92.1896360  87.2126220  56.2690300  92.0147700
  86.2951690  55.0845320  91.7976940  77.4337690  60.8630480  97.5957230
  77.9516360  60.0598740  97.5414120  76.9821710  60.8009620  98.4374060
  82.3207190  62.1296760  92.8684530  82.6622890  62.8738990  92.3727850
  81.4919900  62.4427880  93.2309360  88.5960870  57.2684910  91.6576220
  88.5124590  57.6999130  90.8072660  89.3155060  57.7283260  92.0903040
  89.6248120  64.1227170  94.3858350  88.9824280  63.4682790  94.6602070
  89.2378780  64.5282260  93.6099020  85.2034600  61.4512600  98.2330040
  85.5558420  60.8540730  97.5731410  84.3196930  61.1256830  98.4038290
  81.2897880  62.2110290  95.6400450  81.9769010  62.7579500  96.0208040
  80.5030300  62.7551020  95.6750060  73.4290280  57.8283110  91.1317530
  74.2985130  58.1107910  91.4153450  72.9380600  58.6418980  91.0166340
  80.5925090  59.2156320  95.2525810  81.0487870  60.0261570  95.4786000
  80.2413300  58.8979460  96.0844300  76.4936870  49.5593970  95.7248330
  76.3651500  49.5511870  96.6733250  75.6698890  49.8977060  95.3739340
  84.1689780  62.7295010 101.1995560  84.8112010  62.0288170 101.3127730
  84.6939130  63.5093450 101.0192450  88.0145500  63.0143630  90.9234700
  87.7883080  62.2974070  91.5159340  87.6241700  62.7656070  90.0856450
  73.7961530  67.0410490  91.6979160  74.1559170  67.6399830  91.0436430
  73.6553870  67.5870380  92.4714190  87.5961750  60.9315570  92.5848860
  87.3083450  61.3928260  93.3726740  88.3913920  60.4713340  92.8533080
  79.8130150  64.4241690  92.5152830  79.8040250  65.1571380  91.8997340
  78.8928510  64.1773270  92.6079790  75.4136790  59.6456580  93.2599590
  74.8064740  60.3855480  93.2694890  75.8886140  59.7355940  92.4337790
  88.3531610  52.7664340  93.7444040  87.7244770  52.8710010  93.0302270
  87.8583530  52.9861120  94.5337920  82.7989750  64.4869930  91.1778020
  82.9001730  64.2833920  90.2480000  81.8991490  64.2328210  91.3825800
  80.3215640  55.0450290  95.1601920  79.6131790  55.5136630  95.6015530
  80.6060120  54.3872300  95.7947110  84.3531070  51.7700950  96.5997710
  84.2298850  51.7887080  95.6507220  85.3015630  51.8179890  96.7196110
  81.4407860  67.0056250  95.8725690  81.6949360  66.9677640  94.9505060
  80.4920340  66.8789580  95.8653940  78.5250660  53.3535370  92.5352630
  79.3741190  53.7905520  92.4692820  78.1581930  53.6655630  93.3624690
  87.4460440  57.9248130  97.4484200  86.5050580  57.9398360  97.6231890
  87.7604510  57.1384090  97.8944500  77.4242080  59.6067730  91.0088160
  78.1905350  59.4949090  91.5713590  77.5016770  58.9105700  90.3564930
  76.1188840  57.0392800  91.6921050  76.1992430  56.0920310  91.8038450
  77.0108590  57.3699680  91.7981710  89.4486020  65.0956980  99.1238460
  89.5733440  65.9188150  99.5962270  90.3151580  64.8847710  98.7762610
  76.9203550  67.1888190  98.7955590  77.6566030  66.6403650  99.0664160
  77.3044470  68.0544200  98.6561580  73.8049030  63.2561760  94.6697100
  72.8788810  63.4982900  94.6602510  74.2705460  64.0836020  94.5481850
  80.0305860  66.3618500  90.6181160  80.8234470  66.6507330  90.1662950
  79.5110210  65.9310670  89.9393640  89.0836030  65.5888630  92.0417900
  88.7977540  65.1753770  91.2272080  88.8855580  66.5176340  91.9218420
  80.5483260  61.5821910  90.4823510  80.4433900  60.9674260  91.2084890
  80.3807480  61.0587800  89.6986520  83.7885990  60.6441940  91.0865500
  83.2396090  61.0911240  91.7308240  84.4105250  60.1391190  91.6103170
  79.4561110  59.6032860  92.9830800  79.8777530  59.4372730  93.8262190
  79.5811950  58.7933090  92.4885940  81.9688750  58.6270470  90.2307900
  82.4894410  57.9119490  89.8649050  82.6157150  59.2656340  90.5308410
  78.3520010  55.6766090  89.9288960  78.1509070  54.8133450  90.2902300
  78.1812060  55.5899450  88.9910560  85.8308320  50.4874320  92.4575840
  86.1110610  49.6442220  92.8135260  85.0574050  50.7197430  92.9714590
  77.1502810  52.7766710  89.9166840  77.4528710  52.7834140  89.0085990
  77.8897400  52.4264570  90.4134500  80.3687740  51.7201330  90.9023040
  80.0209740  51.0425320  90.3225490  80.5700510  51.2590840  91.7166430
  82.5336780  66.7082080  92.5209640  83.4287570  67.0467050  92.5428400
  82.5654410  65.9861490  91.8933920  76.1732940  62.0809130  90.7496640
  76.6107810  62.6238800  91.4054220  76.6580670  61.2556080  90.7592980
  73.3878740  64.8698160  98.2016900  73.7181750  64.0019220  97.9695540
  73.8169740  65.0756680  99.0321860  77.9840660  63.2007170  95.8618870
  77.6836200  63.0772140  96.7622780  77.8778150  62.3415760  95.4534600
  73.8768950  65.7368750 100.9398530  73.4399940  65.9169550 101.7722680
  74.4446630  66.4943370 100.7980250  90.7532580  62.9803570  90.5645550
  89.9225540  63.0480220  91.0352780  90.9304410  63.8707690  90.2612410
  90.2089040  59.7251050  93.0679750  90.9707950  60.2947700  93.1739440
  90.2243410  59.1578250  93.8388060  73.7093380  58.2488980  97.2987410
  73.0542220  57.9800620  96.6547110  74.5471330  58.1393460  96.8489390
  91.2149010  60.5801150  97.9121680  91.5857840  59.7968470  97.5057650
  91.8550940  61.2690250  97.7338980  90.2608210  60.0185420  90.2252270
  90.5357050  60.9264300  90.0971490  90.0718950  59.9547950  91.1614260
  86.6583820  53.0430270  91.5205900  87.0768700  52.8561250  90.6802560
  86.3519880  52.1909320  91.8308830  90.1573550  57.9554410  95.2181700
  89.7817150  57.1882340  94.7862990  89.4276670  58.3377110  95.7056630
  74.7469310  58.6341550 101.8390750  75.1142350  58.5468950 102.7186770
  74.1780130  57.8708100 101.7397610  72.9231460  55.4587910  93.2412740
  72.0195540  55.7218110  93.0664400  73.4072080  55.7299080  92.4612700
  89.4324510  56.1811900  98.5188940  89.9561990  55.6874550  97.8879110
  90.0183930  56.3162260  99.2636510  89.6114230  56.2651770 102.0408490
  88.6616940  56.2315310 102.1553480  89.7927240  57.1751880 101.8058260
  75.4658670  54.5153450  91.1507120  76.1750370  54.0936670  90.6654400
  74.7498610  54.5828680  90.5190470  75.1132830  50.5692780  90.1909770
  75.8360960  51.1101720  90.5090990  75.3857350  50.2956200  89.3151310
  88.9224480  55.4385250  94.4581350  89.4183600  55.2056120  95.2430230
  88.7240550  54.5997090  94.0418990  74.8025020  49.8198970 100.0932390
  75.4501210  49.2696350  99.6527550  75.2226860  50.0742120 100.9148200
  90.3511640  54.0746200  96.9919030  90.2410920  53.9202240  97.9301300
  91.1119230  53.5467140  96.7494440  91.2401910  51.9054120  90.2325170
  92.1651220  51.7735300  90.0243460  91.2177700  51.9846940  91.1861620
  91.3140400  52.6764780  92.8581880  90.5191900  52.6109900  93.3874790
  91.5183680  53.6115420  92.8467230  88.2558820  66.7156330  96.8520270
  88.8517890  66.3940900  96.1754690  88.5136970  66.2428150  97.6433540
  79.8627420  64.7033830 102.6020620  79.6218780  64.9708390 101.7151140
  80.8030060  64.8739560 102.6571480  88.8071030  67.3651630 100.6818000
  88.3474000  68.1167440 100.3076020  88.1783490  66.6458100 100.6232800
  79.2366750  65.6739870  99.8566130  79.7531770  65.0627230  99.3314390
  79.8864130  66.1768650 100.3477140  81.9762250  66.5648360 100.6835110
  82.2640060  66.3102660  99.8068120  82.4885470  66.0125720 101.2740680
  83.1939260  50.3038560 101.2631620  82.4111050  50.7784060 101.5428380
  82.9002190  49.3993390 101.1544800  87.7460330  51.0061660  99.3080710
  88.1868420  50.9506760  98.4602310  87.4767920  51.9219670  99.3790890
  89.6098900  50.6376900  97.3189530  89.5487300  49.6938120  97.1720550
  90.3890930  50.7456990  97.8642990  73.9151650  66.7769260  96.2813480
  73.7473690  66.1439940  96.9795370  73.0486160  66.9828660  95.9307670
  74.5379670  50.6086040  93.7845340  75.2959030  50.7214920  93.2109370
  74.0756840  51.4455240  93.7388770  81.0793480  52.7225310  96.7747650
  80.2667990  52.3482200  96.4343530  81.5835120  51.9670390  97.0768840
  85.5818460  49.3867760  98.0130720  86.1847830  49.9587970  98.4879240
  84.8411450  49.9507200  97.7904620  88.7253060  49.7889320  93.2871000
  88.9203690  50.6872770  93.5538430  87.9382930  49.5576400  93.7803950
  75.5214350  65.4702490  93.7263620  74.9961970  65.8510520  93.0225580
  75.4458930  66.0953260  94.4473330  76.9104820  51.1350090  92.3247310
  77.4397580  50.3479890  92.1955260  77.5433140  51.8141280  92.5582840
  79.1042660  50.8725230  95.3792700  78.4745400  50.1712540  95.5462830
  78.5647800  51.6329360  95.1625860  90.2779670  67.0290030  95.0477560
  90.4531860  66.3427770  94.4038480  89.5801240  67.5537080  94.6554230
  78.1207320  67.4184870  92.6012870  78.8526140  67.1344150  92.0536760
  78.3800990  67.1798150  93.4912250  77.2822110  63.5349600  92.6059200
  76.6530990  64.0034700  93.1545030  77.3969940  62.6898820  93.0405390
  84.7371830  57.5855260  78.7560400  84.6565880  56.6709870  78.4852110
  84.3236250  58.0822330  78.0500110  82.8689870  59.3634280  80.6369670
  82.0931970  58.8834720  80.9268240  83.5202800  58.6839930  80.4625830
  76.8855700  59.6754090  81.5145430  76.0540580  59.4202800  81.9141940
  77.4936680  59.7464860  82.2503350  86.8897300  63.7694470  79.4168800
  86.4278830  62.9981710  79.7455970  87.7022850  63.7960540  79.9221250
  76.8656960  63.7094180  81.7103450  77.1685000  62.8191920  81.5313670
  77.6100550  64.2664400  81.4825700  75.2947650  54.6355980  75.2987820
  74.4064350  54.9771950  75.1967700  75.5788840  54.4356300  74.4068650
  73.2580660  57.2361630  81.1827520  73.8296770  56.4683830  81.1831160
  73.2582200  57.5350390  80.2734130  83.1160610  66.0552480  79.0372790
  82.4972050  66.5109980  78.4667230  83.9712390  66.2103940  78.6362490
  82.3098860  62.0391470  80.6439830  82.2407140  61.0981410  80.4828960
  83.0718720  62.1292880  81.2162400  74.5005530  52.6445990  82.9696450
  74.3208370  51.7471740  83.2499210  74.0985610  53.1917860  83.6443400
  83.3404030  54.8461850  80.8708760  83.7168850  53.9733730  80.7582430
  83.2423540  55.1820550  79.9799200  77.4709040  53.2187480  76.3326200
  77.5775790  54.1191210  76.6394960  76.5601400  53.1705450  76.0420850
  87.1228150  52.3412290  77.8037100  87.9437770  51.8508860  77.8462580
  87.1562230  52.9309950  78.5568940  75.1192200  55.1406490  81.5778790
  75.8002310  55.4044860  82.1966190  74.8040250  54.3007360  81.9116800
  79.3116770  56.1873850  80.6651380  79.8194990  56.6854820  81.3056400
  79.8430010  55.4109050  80.4890740  91.4127700  54.3579040  84.3680730
  90.7079870  54.7460750  83.8495840  91.6785620  55.0529330  84.9701660
  77.5952870  50.8272410  84.9314800  77.5971310  51.3444800  84.1260700
  76.7657180  50.3502590  84.9084730  83.9823960  60.9391720  76.4304700
  83.3641230  61.4041170  75.8667420  84.4947210  61.6319200  76.8474210
  78.8455720  60.4667590  83.1088300  78.5125100  61.0936510  83.7509370
  79.0222400  60.9929470  82.3289970  87.3589630  54.2812670  80.5764640
  86.6545200  54.5697560  81.1567750  87.7201790  55.0912780  80.2164200
  77.2768200  52.5382370  82.9385250  77.6185010  53.3824420  82.6439120
  76.3384010  52.6866110  83.0550590  78.0574820  62.4348390  84.9237480
  78.6748820  63.1099470  84.6421930  77.1967940  62.8436370  84.8324980
  73.3507160  61.6248250  73.8044330  72.9735140  62.1135350  73.0729230
  73.6080230  62.2973530  74.4350860  88.9752410  63.8987800  82.8392120
  88.2915930  64.5686910  82.8308790  89.5146700  64.0968450  82.0736980
  90.4276550  53.7267460  80.9673850  89.4801460  53.7606440  81.0989280
  90.7526540  54.5406410  81.3523210  80.9596090  50.0264640  79.2629840
  81.2671070  49.4711530  78.5465340  80.0296790  50.1609100  79.0802830
  86.5111150  65.7431930  81.5537300  86.5238310  65.3394220  80.6859560
  85.9586370  66.5179220  81.4498730  87.8056570  62.4648150  76.6427470
  87.6952900  61.5222480  76.7676890  87.8024820  62.8263790  77.5290230
  85.9096590  60.6461770  82.8819910  86.3265380  60.4321880  82.0473370
  86.6336410  60.9034560  83.4528530  83.3476850  58.0913470  75.9989960
  82.4206130  58.0250850  76.2278430  83.5001670  59.0293600  75.8845200
  83.3345930  54.3630470  72.9957120  82.3949600  54.5244430  73.0809580
  83.6529190  55.0816150  72.4493110  89.8558690  59.0448990  82.9736150
  89.0277320  59.1142080  82.4986280  90.4509170  59.6303300  82.5051980
  87.3774140  59.6533770  76.5025210  86.7586560  59.3153320  75.8551510
  87.3598590  59.0093530  77.2104400  86.8200700  55.8318310  83.9191020
  86.4071880  56.6572020  84.1731010  86.0876650  55.2463350  83.7267380
  78.9533490  58.6178210  78.7809690  78.5490490  57.9055460  78.2855590
  79.0396610  58.2731450  79.6697730  79.4215190  62.3045770  80.9448900
  79.1243480  61.6991240  80.2656680  80.3715010  62.3423080  80.8338260
  77.6662110  55.3921420  82.5608730  78.2176700  55.5016760  81.7861980
  78.1805620  55.7659020  83.2763960  87.5100800  65.8777640  84.6072000
  87.0331360  66.6849830  84.4144610  86.8262590  65.2255970  84.7598210
  78.5133620  62.0427460  87.5956700  77.6162150  62.2667430  87.8430100
  78.5386490  62.1662400  86.6468100  85.5538840  58.8920580  73.5097960
  85.9932120  58.0543010  73.3635780  86.2667260  59.5249980  73.5962100
  77.3404840  58.9140780  86.1714070  77.2012610  59.7863580  86.5401470
  76.4586200  58.5713590  86.0262010  83.6634220  63.8316650  77.4779200
  84.1030130  64.5740980  77.0634590  83.6021110  64.0743220  78.4018160
  79.1385190  64.8562480  88.3799220  79.1100620  65.2605430  87.5127650
  78.9750160  63.9272840  88.2170820  89.1355980  50.1463390  71.8239000
  88.8228640  50.2390220  72.7238070  89.8968450  50.7244420  71.7736430
  75.6538120  57.5123190  76.2816340  75.5335720  58.2385280  75.6697610
  75.3439010  56.7426100  75.8044250  91.0900010  65.6389580  89.6763390
  91.5659730  66.1172470  90.3552470  91.7107170  65.5707070  88.9508890
  73.2923490  60.6838330  82.0884980  73.3703910  60.8187100  81.1440700
  73.9065170  59.9754220  82.2813100  74.5371120  62.3838520  78.4991160
  74.1299200  62.5253110  77.6444760  75.4284130  62.0998680  78.2962370
  90.4933260  62.8302430  86.8363400  90.6196320  62.5914310  85.9180580
  90.5354640  61.9986970  87.3085480  84.3550000  66.5330430  85.4058210
  84.8694670  66.4438440  86.2080640  83.5119080  66.8790130  85.6986120
  86.3304400  66.8185770  74.8342210  86.1705540  66.5288710  75.7324040
  86.1651110  66.0425900  74.2987440  78.8092780  66.5984300  76.6113830
  78.6335260  65.6819840  76.3981630  77.9548520  66.9571590  76.8511630
  86.0330530  64.3273330  73.3940210  85.3395690  64.3250620  72.7342490
  86.7753390  63.9032650  72.9634380  85.5980460  65.9536040  77.4688700
  86.0537410  65.1725420  77.7827320  85.9372980  66.6642860  78.0129880
  90.3457270  54.8834890  87.8013140  89.7301540  55.3914560  87.2728600
  90.0253690  53.9833220  87.7439080  73.3483010  61.7252500  84.6279440
  73.5114050  61.2557860  83.8098810  73.8135460  61.2176060  85.2928280
  78.1201780  50.8558260  79.6640010  77.6769930  51.6367800  79.3324530
  78.6786770  51.1788150  80.3710950  82.4071590  53.7226780  85.2675330
  81.9450960  53.9309800  86.0795270  82.0049700  52.9086130  84.9646000
  87.4076100  54.9435730  86.3971990  86.5569690  54.6441480  86.7181060
  87.2477890  55.1877740  85.4855810  84.5025810  56.4437480  88.4970780
  84.8279220  55.6101230  88.1573010  85.2906140  56.9666000  88.6449110
  81.2360600  50.4768960  74.5445840  80.6114780  50.4728830  75.2699150
  81.1490720  49.6099920  74.1481810  80.1577680  51.4005590  81.5229610
  80.4550010  52.3068420  81.4421630  80.7063240  50.9124370  80.9089180
  77.9116000  55.9791830  77.3921260  77.6856920  55.7629000  78.2967880
  77.1308530  56.4120290  77.0467230  85.1413760  55.9855200  75.9911910
  84.5422650  56.7091000  75.8075530  85.6893370  55.9231980  75.2088360
  80.3515210  56.8777410  88.0581530  80.2558810  55.9372140  87.9081930
  81.1947190  57.0992480  87.6629600  83.7478630  54.6218740  78.0215190
  84.1408200  54.9390940  77.2083880  84.1095480  53.7430620  78.1359710
  75.4825750  53.2891080  86.2115310  75.0889140  54.1366290  86.4188090
  74.7944150  52.6517450  86.4023950  82.0570800  53.3726050  89.2812050
  81.3669120  53.1798250  89.9158140  82.8003100  53.6560690  89.8136350
  72.7842800  51.2119540  80.2445390  72.4955850  51.7822400  80.9570370
  73.5288560  50.7323990  80.6076620  72.9713030  55.1539660  71.4548110
  72.8887700  56.0970420  71.5963100  72.6196090  55.0114570  70.5760460
  84.3333770  57.2124490  82.1165970  83.6014890  57.7211300  82.4656070
  83.9358110  56.3954470  81.8154750  80.7711160  53.8878690  80.5218460
  80.7747220  53.4468640  79.6723000  81.6662280  54.2096020  80.6290280
  76.6213540  53.7705180  79.4812670  76.2813590  54.2480410  80.2379720
  75.8590860  53.3170300  79.1213770  80.8331310  54.8890770  73.5125220
  80.9544130  54.8477250  74.4611040  80.4479820  55.7514920  73.3571950
  84.7959680  52.6658170  81.5288910  84.8132420  53.1166820  82.3730760
  84.5475260  51.7663810  81.7422350  79.8452810  57.1991910  72.9108520
  79.2769710  56.7510160  72.2844430  80.5541810  57.5584690  72.3773670
  88.2230430  50.0790350  87.3675290  88.5476200  49.3480010  87.8933270
  88.2586940  49.7603990  86.4656280  74.9221990  61.1003930  86.7875250
  74.5376780  60.4597600  87.3858210  75.2334180  61.8040050  87.3569980
  81.0719130  57.9480470  82.2683870  81.4389260  57.4739040  83.0145210
  80.8824190  58.8222040  82.6092210  73.9359620  52.6924160  78.3977340
  73.6506540  52.3279830  79.2355960  73.8738480  51.9604620  77.7840480
  78.8618500  56.9889110  84.5868080  78.5575570  57.8681090  84.8118440
  79.8164960  57.0488900  84.6225520  77.3900290  61.1950100  75.1834930
  76.6162550  60.6547720  75.0233650  78.1194920  60.6756710  74.8452690
  88.1488270  60.1915460  80.9761320  88.8687390  60.6870750  80.5857430
  87.9470090  59.5133350  80.3315190  83.6098210  51.5853420  75.1190710
  82.7962820  51.0866590  75.0436020  83.4160160  52.4251670  74.7027060
  83.5307070  60.2624520  86.8630320  83.4644380  59.3420190  86.6087910
  82.9012210  60.3599960  87.5774960  86.3246600  55.9573070  73.4152870
  87.2126220  56.2690300  73.2404210  86.2951690  55.0845320  73.0233450
  77.4337690  60.8630480  78.8213740  77.9516360  60.0598740  78.7670630
  76.9821710  60.8009620  79.6630570  82.3207190  62.1296760  74.0941040
  82.6622890  62.8738990  73.5984360  81.4919900  62.4427880  74.4565870
  74.9182230  57.8291850  85.7339440  74.5597170  58.4945700  86.3212780
  74.6236790  56.9975400  86.1052060  78.1195350  58.2876090  88.6178990
  77.8195490  58.4333270  87.7206810  78.8906590  57.7281380  88.5252380
  83.4623800  63.0845090  86.6134120  83.4768340  62.1526050  86.3953030
  82.7548900  63.1704850  87.2523890  88.5960870  57.2684910  72.8832730
  88.5124590  57.6999130  72.0329170  89.3155060  57.7283260  73.3159550
  89.6735010  59.7252430  85.9602700  88.9483200  60.3181210  85.7632090
  90.2010470  59.7175970  85.1616070  89.6248120  64.1227170  75.6114860
  88.9824280  63.4682790  75.8858580  89.2378780  64.5282260  74.8355530
  85.2034600  61.4512600  79.4586550  85.5558420  60.8540730  78.7987920
  84.3196930  61.1256830  79.6294800  81.2897880  62.2110290  76.8656960
  81.9769010  62.7579500  77.2464550  80.5030300  62.7551020  76.9006570
  73.4290280  57.8283110  72.3574040  74.2985130  58.1107910  72.6409960
  72.9380600  58.6418980  72.2422850  80.5925090  59.2156320  76.4782320
  81.0487870  60.0261570  76.7042510  80.2413300  58.8979460  77.3100810
  82.8957700  64.7262660  83.7074620  83.5399920  64.9322040  84.3848040
  83.2587140  63.9651060  83.2545470  76.4936870  49.5593970  76.9504840
  76.3651500  49.5511870  77.8989760  75.6698890  49.8977060  76.5995850
  84.1689780  62.7295010  82.4252070  84.8112010  62.0288170  82.5384240
  84.6939130  63.5093450  82.2448960  88.0145500  63.0143630  72.1491210
  87.7883080  62.2974070  72.7415850  87.6241700  62.7656070  71.3112960
  85.9427400  63.5289910  85.6288130  86.2783640  64.1156600  86.3066050
  85.0227740  63.3982620  85.8585920  73.7961530  67.0410490  72.9235670
  74.1559170  67.6399830  72.2692940  73.6553870  67.5870380  73.6970700
  73.4930800  51.3185090  86.4111540  72.7789320  51.5182010  87.0164150
  73.9125840  50.5424660  86.7826340  87.5961750  60.9315570  73.8105370
  87.3083450  61.3928260  74.5983250  88.3913920  60.4713340  74.0789590
  73.7803390  65.3065350  87.3978070  73.8894510  64.3660090  87.2573460
  73.1283950  65.5720100  86.7491800  81.7715980  63.5781240  88.7976190
  81.4512850  62.8590480  89.3421880  81.0974340  64.2536310  88.8712250
  79.8130150  64.4241690  73.7409340  79.8040250  65.1571380  73.1253850
  78.8928510  64.1773270  73.8336300  75.4136790  59.6456580  74.4856100
  74.8064740  60.3855480  74.4951400  75.8886140  59.7355940  73.6594300
  84.9869580  53.8107400  84.1612990  85.3550400  52.9902610  84.4892560
  84.1267780  53.8709290  84.5768640  88.3531610  52.7664340  74.9700550
  87.7244770  52.8710010  74.2558780  87.8583530  52.9861120  75.7594430
  82.7989750  64.4869930  72.4034530  82.9001730  64.2833920  71.4736510
  81.8991490  64.2328210  72.6082310  80.3215640  55.0450290  76.3858430
  79.6131790  55.5136630  76.8272040  80.6060120  54.3872300  77.0203620
  81.9471570  56.4646990  84.3850960  82.4456820  56.9392810  85.0502810
  82.0894520  55.5410510  84.5920990  84.3531070  51.7700950  77.8254220
  84.2298850  51.7887080  76.8763730  85.3015630  51.8179890  77.9452620
  81.4407860  67.0056250  77.0982200  81.6949360  66.9677640  76.1761570
  80.4920340  66.8789580  77.0910450  78.5250660  53.3535370  73.7609140
  79.3741190  53.7905520  73.6949330  78.1581930  53.6655630  74.5881200
  89.1538430  52.6814950  85.2279350  88.6512030  53.4220350  85.5673160
  89.9695090  53.0698950  84.9116140  87.4460440  57.9248130  78.6740710
  86.5050580  57.9398360  78.8488400  87.7604510  57.1384090  79.1201010
  77.4242080  59.6067730  72.2344670  78.1905350  59.4949090  72.7970100
  77.5016770  58.9105700  71.5821440  76.1188840  57.0392800  72.9177560
  76.1992430  56.0920310  73.0294960  77.0108590  57.3699680  73.0238220
  89.4486020  65.0956980  80.3494970  89.5733440  65.9188150  80.8218780
  90.3151580  64.8847710  80.0019120  76.9203550  67.1888190  80.0212100
  77.6566030  66.6403650  80.2920670  77.3044470  68.0544200  79.8818090
  73.8049030  63.2561760  75.8953610  72.8788810  63.4982900  75.8859020
  74.2705460  64.0836020  75.7738360  75.9261830  66.3734260  89.2097680
  76.7274560  66.6946310  89.6233080  75.4113650  66.0129840  89.9317590
  80.0305860  66.3618500  71.8437670  80.8234470  66.6507330  71.3919460
  79.5110210  65.9310670  71.1650150  84.7626460  62.4814130  89.1573090
  84.1564620  62.5045730  88.4168840  84.4580570  61.7497170  89.6940340
  86.1926830  66.2094420  87.7682500  87.1448580  66.1252440  87.7182740
  86.0455050  66.8736130  88.4416290  89.0836030  65.5888630  73.2674410
  88.7977540  65.1753770  72.4528590  88.8855580  66.5176340  73.1474930
  73.6459640  58.8607720  88.1533730  74.1498660  58.2815000  88.7249960
  72.9067060  59.1447950  88.6910100  80.5483260  61.5821910  71.7080020
  80.4433900  60.9674260  72.4341400  80.3807480  61.0587800  70.9243030
  80.6997580  60.2678710  87.6869250  79.9343250  60.8363710  87.6023920
  80.8813540  59.9754920  86.7937480  83.7885990  60.6441940  72.3122010
  83.2396090  61.0911240  72.9564750  84.4105250  60.1391190  72.8359680
  87.8420930  61.9984040  88.2444270  88.5830400  62.3359800  87.7411730
  87.0793610  62.1676100  87.6914040  75.6782720  57.0037310  89.0483800
  75.7188060  56.7051180  89.9569030  76.5328220  57.4044920  88.8891320
  79.4561110  59.6032860  74.2087310  79.8777530  59.4372730  75.0518700
  79.5811950  58.7933090  73.7142450  77.6188530  55.5829410  87.0158290
  77.0884990  55.0920360  86.3881630  78.2876600  56.0113610  86.4816220
  81.9688750  58.6270470  71.4564410  82.4894410  57.9119490  71.0905560
  82.6157150  59.2656340  71.7564920  86.5166590  60.0498870  86.7799480
  86.9307610  60.2043950  87.6289900  85.5817590  60.1754090  86.9425260
  86.9888760  57.3895030  88.7838630  87.5709530  56.6347350  88.6959110
  87.1650530  57.9202470  88.0070110  78.1060830  52.5491780  87.0955580
  78.0117700  51.9312530  86.3706450  77.5258220  53.2758070  86.8685490
  80.8722270  51.1065020  84.1282970  80.4239570  51.1289280  83.2828520
  80.2387470  50.7084040  84.7253270  81.2781820  60.0019350  84.7495410
  81.6969930  60.8452080  84.5771650  80.3590450  60.1391390  84.5202190
  83.6145720  57.7335530  86.1333250  83.7341930  57.1376670  86.8728090
  84.4739720  57.7705220  85.7134550  85.9533620  58.2872720  84.7095760
  85.4268840  58.8115340  84.1060900  86.2964960  58.9200110  85.3405490
  78.3520010  55.6766090  71.1545470  78.1509070  54.8133450  71.5158810
  78.1812060  55.5899450  70.2167070  79.1289240  66.3072360  85.8653140
  78.5910330  67.0318420  85.5461840  79.3823200  65.8302700  85.0750480
  80.3814490  54.2756880  87.3909070  80.9714180  53.9672730  88.0786890
  79.5634730  53.8036630  87.5468970  85.2007920  53.8922690  87.6242090
  84.5123440  53.2304230  87.5592080  85.9213940  53.4460960  88.0690550
  85.8308320  50.4874320  73.6832350  86.1110610  49.6442220  74.0391770
  85.0574050  50.7197430  74.1971100  77.1502810  52.7766710  71.1423350
  77.4528710  52.7834140  70.2342500  77.8897400  52.4264570  71.6391010
  81.9851450  67.5423570  86.1239790  81.9110150  68.4458710  86.4312160
  81.0830290  67.2235470  86.0961860  80.3687740  51.7201330  72.1279550
  80.0209740  51.0425320  71.5482000  80.5700510  51.2590840  72.9422940
  82.5336780  66.7082080  73.7466150  83.4287570  67.0467050  73.7684910
  82.5654410  65.9861490  73.1190430  76.1732940  62.0809130  71.9753150
  76.6107810  62.6238800  72.6310730  76.6580670  61.2556080  71.9849490
  73.3878740  64.8698160  79.4273410  73.7181750  64.0019220  79.1952050
  73.8169740  65.0756680  80.2578370  77.9840660  63.2007170  77.0875380
  77.6836200  63.0772140  77.9879290  77.8778150  62.3415760  76.6791110
  73.8768950  65.7368750  82.1655040  73.4399940  65.9169550  82.9979190
  74.4446630  66.4943370  82.0236760  89.5131130  65.2385750  86.4532350
  88.9133120  65.2978310  85.7096270  89.6425030  64.2990730  86.5829200
  90.7532580  62.9803570  71.7902060  89.9225540  63.0480220  72.2609290
  90.9304410  63.8707690  71.4868920  90.2089040  59.7251050  74.2936260
  90.9707950  60.2947700  74.3995950  90.2243410  59.1578250  75.0644570
  73.7093380  58.2488980  78.5243920  73.0542220  57.9800620  77.8803620
  74.5471330  58.1393460  78.0745900  91.2149010  60.5801150  79.1378190
  91.5857840  59.7968470  78.7314160  91.8550940  61.2690250  78.9595490
  88.1982770  61.9637730  84.5508510  87.3842610  62.3934890  84.8134300
  88.6056970  62.5756140  83.9377560  90.2608210  60.0185420  71.4508780
  90.5357050  60.9264300  71.3228000  90.0718950  59.9547950  72.3870770
  86.6583820  53.0430270  72.7462410  87.0768700  52.8561250  71.9059070
  86.3519880  52.1909320  73.0565340  90.1573550  57.9554410  76.4438210
  89.7817150  57.1882340  76.0119500  89.4276670  58.3377110  76.9313140
  74.7469310  58.6341550  83.0647260  75.1142350  58.5468950  83.9443280
  74.1780130  57.8708100  82.9654120  89.5473170  57.1025930  86.0777730
  89.3159260  56.8738680  85.1775680  89.8077720  58.0225480  86.0322620
  74.2985310  55.5450640  86.9705680  73.4041360  55.5117400  87.3099390
  74.8382860  55.7437430  87.7356930  87.9861240  52.3282360  88.8557430
  88.8631420  52.3365760  89.2391430  87.9982080  51.5913200  88.2449780
  72.9231460  55.4587910  74.4669250  72.0195540  55.7218110  74.2920910
  73.4072080  55.7299080  73.6869210  89.4324510  56.1811900  79.7445450
  89.9561990  55.6874550  79.1135620  90.0183930  56.3162260  80.4893020
  89.6114230  56.2651770  83.2665000  88.6616940  56.2315310  83.3809990
  89.7927240  57.1751880  83.0314770  75.4658670  54.5153450  72.3763630
  76.1750370  54.0936670  71.8910910  74.7498610  54.5828680  71.7446980
  75.1132830  50.5692780  71.4166280  75.8360960  51.1101720  71.7347500
  75.3857350  50.2956200  70.5407820  88.9224480  55.4385250  75.6837860
  89.4183600  55.2056120  76.4686740  88.7240550  54.5997090  75.2675500
  74.8025020  49.8198970  81.3188900  75.4501210  49.2696350  80.8784060
  75.2226860  50.0742120  82.1404710  90.3511640  54.0746200  78.2175540
  90.2410920  53.9202240  79.1557810  91.1119230  53.5467140  77.9750950
  88.6977360  50.0140330  84.6758540  89.3349580  50.6274470  85.0417730
  88.8452250  50.0500990  83.7307770  91.2401910  51.9054120  71.4581680
  92.1651220  51.7735300  71.2499970  91.2177700  51.9846940  72.4118130
  91.3140400  52.6764780  74.0838390  90.5191900  52.6109900  74.6131300
  91.5183680  53.6115420  74.0723740  88.2558820  66.7156330  78.0776780
  88.8517890  66.3940900  77.4011200  88.5136970  66.2428150  78.8690050
  74.5557020  49.9754640  84.0614220  74.2071840  50.4318460  84.8272400
  74.2244720  49.0811770  84.1436650  76.1621390  63.1474240  88.2267410
  76.1191020  62.7767150  89.1081870  76.2932400  64.0851810  88.3669230
  79.8627420  64.7033830  83.8277130  79.6218780  64.9708390  82.9407650
  80.8030060  64.8739560  83.8827990  82.0681840  51.1666520  87.5833640
  82.0070730  51.7588350  88.3329050  83.0082220  51.0592480  87.4383900
  84.7056400  50.8236580  87.2225930  85.3196810  51.1415870  86.5607010
  85.2505960  50.3385170  87.8421790  91.1231580  66.7228210  84.6287770
  90.6289860  67.1197080  83.9114900  90.5144870  66.0977420  85.0225050
  75.2277660  49.5030840  87.3364990  75.7760650  49.3218890  86.5731100
  75.2932970  48.7124950  87.8721300  76.0009420  66.0936490  85.3465190
  75.4069740  65.9621190  86.0855230  75.9933260  65.2574630  84.8807290
  85.4464440  49.3868720  83.5495220  84.5724280  49.7203830  83.3468150
  85.3375190  48.9141900  84.3747090  86.3536420  51.5939590  84.9336940
  86.0249780  50.7791350  84.5538670  87.3018720  51.5509400  84.8102630
  88.8071030  67.3651630  81.9074510  88.3474000  68.1167440  81.5332530
  88.1783490  66.6458100  81.8489310  75.6321650  63.4594870  84.2973230
  74.9055710  62.8400160  84.2299180  75.6930800  63.8535480  83.4271310
  79.2366750  65.6739870  81.0822640  79.7531770  65.0627230  80.5570900
  79.8864130  66.1768650  81.5733650  81.9762250  66.5648360  81.9091620
  82.2640060  66.3102660  81.0324630  82.4885470  66.0125720  82.4997190
  83.1939260  50.3038560  82.4888130  82.4111050  50.7784060  82.7684890
  82.9002190  49.3993390  82.3801310  87.7460330  51.0061660  80.5337220
  88.1868420  50.9506760  79.6858820  87.4767920  51.9219670  80.6047400
  89.6098900  50.6376900  78.5446040  89.5487300  49.6938120  78.3977060
  90.3890930  50.7456990  79.0899500  73.9151650  66.7769260  77.5069990
  73.7473690  66.1439940  78.2051880  73.0486160  66.9828660  77.1564180
  74.5379670  50.6086040  75.0101850  75.2959030  50.7214920  74.4365880
  74.0756840  51.4455240  74.9645280  81.0793480  52.7225310  78.0004160
  80.2667990  52.3482200  77.6600040  81.5835120  51.9670390  78.3025350
  85.5818460  49.3867760  79.2387230  86.1847830  49.9587970  79.7135750
  84.8411450  49.9507200  79.0161130  88.7253060  49.7889320  74.5127510
  88.9203690  50.6872770  74.7794940  87.9382930  49.5576400  75.0060460
  75.5214350  65.4702490  74.9520130  74.9961970  65.8510520  74.2482090
  75.4458930  66.0953260  75.6729840  76.9104820  51.1350090  73.5503820
  77.4397580  50.3479890  73.4211770  77.5433140  51.8141280  73.7839350
  79.1042660  50.8725230  76.6049210  78.4745400  50.1712540  76.7719340
  78.5647800  51.6329360  76.3882370  82.0434610  67.4864460  89.2759820
  82.9701920  67.2508730  89.3195780  82.0285040  68.3136460  88.7945850
  90.2779670  67.0290030  76.2734070  90.4531860  66.3427770  75.6294990
  89.5801240  67.5537080  75.8810740  79.2298220  50.1509210  89.0401700
  78.9482490  50.6542810  88.2762520  79.6117920  49.3530960  88.6743830
  78.1207320  67.4184870  73.8269380  78.8526140  67.1344150  73.2793270
  78.3800990  67.1798150  74.7168760  77.2822110  63.5349600  73.8315710
  76.6530990  64.0034700  74.3801540  77.3969940  62.6898820  74.2661900
  85.8313680  49.5662790  89.6182170  85.7179130  49.8857400  90.5133690
  86.6483420  49.9675300  89.3219450  88.6112170  66.7134320  89.1000860
  89.4037490  66.2183550  88.8926820  88.9045320  67.3924460  89.7076470
  84.7371830  57.5855260  59.9816910  84.6565880  56.6709870  59.7108620
  84.3236250  58.0822330  59.2756620  82.8689870  59.3634280  61.8626180
  82.0931970  58.8834720  62.1524750  83.5202800  58.6839930  61.6882340
  76.8855700  59.6754090  62.7401940  76.0540580  59.4202800  63.1398450
  77.4936680  59.7464860  63.4759860  86.8897300  63.7694470  60.6425310
  86.4278830  62.9981710  60.9712480  87.7022850  63.7960540  61.1477760
  76.8656960  63.7094180  62.9359960  77.1685000  62.8191920  62.7570180
  77.6100550  64.2664400  62.7082210  73.2580660  57.2361630  62.4084030
  73.8296770  56.4683830  62.4087670  73.2582200  57.5350390  61.4990640
  83.1160610  66.0552480  60.2629300  82.4972050  66.5109980  59.6923740
  83.9712390  66.2103940  59.8619000  74.5005530  52.6445990  64.1952960
  74.3208370  51.7471740  64.4755720  74.0985610  53.1917860  64.8699910
  83.3404030  54.8461850  62.0965270  83.7168850  53.9733730  61.9838940
  83.2423540  55.1820550  61.2055710  87.1228150  52.3412290  59.0293610
  87.9437770  51.8508860  59.0719090  87.1562230  52.9309950  59.7825450
  75.1192200  55.1406490  62.8035300  75.8002310  55.4044860  63.4222700
  74.8040250  54.3007360  63.1373310  79.3116770  56.1873850  61.8907890
  79.8194990  56.6854820  62.5312910  79.8430010  55.4109050  61.7147250
  91.4127700  54.3579040  65.5937240  90.7079870  54.7460750  65.0752350
  91.6785620  55.0529330  66.1958170  77.5952870  50.8272410  66.1571310
  77.5971310  51.3444800  65.3517210  76.7657180  50.3502590  66.1341240
  83.9823960  60.9391720  57.6561210  83.3641230  61.4041170  57.0923930
  84.4947210  61.6319200  58.0730720  78.8455720  60.4667590  64.3344810
  78.5125100  61.0936510  64.9765880  79.0222400  60.9929470  63.5546480
  87.3589630  54.2812670  61.8021150  86.6545200  54.5697560  62.3824260
  87.7201790  55.0912780  61.4420710  77.2768200  52.5382370  64.1641760
  77.6185010  53.3824420  63.8695630  76.3384010  52.6866110  64.2807100
  78.0574820  62.4348390  66.1493990  78.6748820  63.1099470  65.8678440
  77.1967940  62.8436370  66.0581490  73.3507160  61.6248250  55.0300840
  72.9735140  62.1135350  54.2985740  73.6080230  62.2973530  55.6607370
  90.4276550  53.7267460  62.1930360  89.4801460  53.7606440  62.3245790
  90.7526540  54.5406410  62.5779720  80.9596090  50.0264640  60.4886350
  81.2671070  49.4711530  59.7721850  80.0296790  50.1609100  60.3059340
  86.5111150  65.7431930  62.7793810  86.5238310  65.3394220  61.9116070
  85.9586370  66.5179220  62.6755240  87.8056570  62.4648150  57.8683980
  87.6952900  61.5222480  57.9933400  87.8024820  62.8263790  58.7546740
  83.3476850  58.0913470  57.2246470  82.4206130  58.0250850  57.4534940
  83.5001670  59.0293600  57.1101710  83.3345930  54.3630470  54.2213630
  82.3949600  54.5244430  54.3066090  83.6529190  55.0816150  53.6749620
  89.8558690  59.0448990  64.1992660  89.0277320  59.1142080  63.7242790
  90.4509170  59.6303300  63.7308490  87.3774140  59.6533770  57.7281720
  86.7586560  59.3153320  57.0808020  87.3598590  59.0093530  58.4360910
  86.8200700  55.8318310  65.1447530  86.4071880  56.6572020  65.3987520
  86.0876650  55.2463350  64.9523890  78.9533490  58.6178210  60.0066200
  78.5490490  57.9055460  59.5112100  79.0396610  58.2731450  60.8954240
  79.4215190  62.3045770  62.1705410  79.1243480  61.6991240  61.4913190
  80.3715010  62.3423080  62.0594770  77.6662110  55.3921420  63.7865240
  78.2176700  55.5016760  63.0118490  78.1805620  55.7659020  64.5020470
  87.5100800  65.8777640  65.8328510  87.0331360  66.6849830  65.6401120
  86.8262590  65.2255970  65.9854720  78.5133620  62.0427460  68.8213210
  77.6162150  62.2667430  69.0686610  78.5386490  62.1662400  67.8724610
  85.5538840  58.8920580  54.7354470  85.9932120  58.0543010  54.5892290
  86.2667260  59.5249980  54.8218610  77.3404840  58.9140780  67.3970580
  77.2012610  59.7863580  67.7657980  76.4586200  58.5713590  67.2518520
  83.6634220  63.8316650  58.7035710  84.1030130  64.5740980  58.2891100
  83.6021110  64.0743220  59.6274670  79.1385190  64.8562480  69.6055730
  79.1100620  65.2605430  68.7384160  78.9750160  63.9272840  69.4427330
  89.1355980  50.1463390  53.0495510  88.8228640  50.2390220  53.9494580
  89.8968450  50.7244420  52.9992940  75.6538120  57.5123190  57.5072850
  75.5335720  58.2385280  56.8954120  75.3439010  56.7426100  57.0300760
  91.0900010  65.6389580  70.9019900  91.5659730  66.1172470  71.5808980
  91.7107170  65.5707070  70.1765400  73.2923490  60.6838330  63.3141490
  73.3703910  60.8187100  62.3697210  73.9065170  59.9754220  63.5069610
  74.5371120  62.3838520  59.7247670  74.1299200  62.5253110  58.8701270
  75.4284130  62.0998680  59.5218880  90.4933260  62.8302430  68.0619910
  90.6196320  62.5914310  67.1437090  90.5354640  61.9986970  68.5341990
  84.3550000  66.5330430  66.6314720  84.8694670  66.4438440  67.4337150
  83.5119080  66.8790130  66.9242630  86.3304400  66.8185770  56.0598720
  86.1705540  66.5288710  56.9580550  86.1651110  66.0425900  55.5243950
  78.8092780  66.5984300  57.8370340  78.6335260  65.6819840  57.6238140
  77.9548520  66.9571590  58.0768140  86.0330530  64.3273330  54.6196720
  85.3395690  64.3250620  53.9599000  86.7753390  63.9032650  54.1890890
  85.5980460  65.9536040  58.6945210  86.0537410  65.1725420  59.0083830
  85.9372980  66.6642860  59.2386390  90.3457270  54.8834890  69.0269650
  89.7301540  55.3914560  68.4985110  90.0253690  53.9833220  68.9695590
  73.3483010  61.7252500  65.8535950  73.5114050  61.2557860  65.0355320
  73.8135460  61.2176060  66.5184790  78.1201780  50.8558260  60.8896520
  77.6769930  51.6367800  60.5581040  78.6786770  51.1788150  61.5967460
  82.4071590  53.7226780  66.4931840  81.9450960  53.9309800  67.3051780
  82.0049700  52.9086130  66.1902510  87.4076100  54.9435730  67.6228500
  86.5569690  54.6441480  67.9437570  87.2477890  55.1877740  66.7112320
  84.5025810  56.4437480  69.7227290  84.8279220  55.6101230  69.3829520
  85.2906140  56.9666000  69.8705620  81.2360600  50.4768960  55.7702350
  80.6114780  50.4728830  56.4955660  81.1490720  49.6099920  55.3738320
  80.1577680  51.4005590  62.7486120  80.4550010  52.3068420  62.6678140
  80.7063240  50.9124370  62.1345690  85.1413760  55.9855200  57.2168420
  84.5422650  56.7091000  57.0332040  85.6893370  55.9231980  56.4344870
  80.3515210  56.8777410  69.2838040  80.2558810  55.9372140  69.1338440
  81.1947190  57.0992480  68.8886110  83.7478630  54.6218740  59.2471700
  84.1408200  54.9390940  58.4340390  84.1095480  53.7430620  59.3616220
  75.4825750  53.2891080  67.4371820  75.0889140  54.1366290  67.6444600
  74.7944150  52.6517450  67.6280460  82.0570800  53.3726050  70.5068560
  81.3669120  53.1798250  71.1414650  82.8003100  53.6560690  71.0392860
  72.7842800  51.2119540  61.4701900  72.4955850  51.7822400  62.1826880
  73.5288560  50.7323990  61.8333130  72.9713030  55.1539660  52.6804620
  72.8887700  56.0970420  52.8219610  72.6196090  55.0114570  51.8016970
  84.3333770  57.2124490  63.3422480  83.6014890  57.7211300  63.6912580
  83.9358110  56.3954470  63.0411260  80.7711160  53.8878690  61.7474970
  80.7747220  53.4468640  60.8979510  81.6662280  54.2096020  61.8546790
  76.6213540  53.7705180  60.7069180  76.2813590  54.2480410  61.4636230
  75.8590860  53.3170300  60.3470280  84.7959680  52.6658170  62.7545420
  84.8132420  53.1166820  63.5987270  84.5475260  51.7663810  62.9678860
  88.2230430  50.0790350  68.5931800  88.5476200  49.3480010  69.1189780
  88.2586940  49.7603990  67.6912790  74.9221990  61.1003930  68.0131760
  74.5376780  60.4597600  68.6114720  75.2334180  61.8040050  68.5826490
  81.0719130  57.9480470  63.4940380  81.4389260  57.4739040  64.2401720
  80.8824190  58.8222040  63.8348720  73.9359620  52.6924160  59.6233850
  73.6506540  52.3279830  60.4612470  73.8738480  51.9604620  59.0096990
  78.8618500  56.9889110  65.8124590  78.5575570  57.8681090  66.0374950
  79.8164960  57.0488900  65.8482030  77.3900290  61.1950100  56.4091440
  76.6162550  60.6547720  56.2490160  78.1194920  60.6756710  56.0709200
  83.6098210  51.5853420  56.3447220  82.7962820  51.0866590  56.2692530
  83.4160160  52.4251670  55.9283570  86.3246600  55.9573070  54.6409380
  87.2126220  56.2690300  54.4660720  86.2951690  55.0845320  54.2489960
  77.4337690  60.8630480  60.0470250  77.9516360  60.0598740  59.9927140
  76.9821710  60.8009620  60.8887080  82.3207190  62.1296760  55.3197550
  82.6622890  62.8738990  54.8240870  81.4919900  62.4427880  55.6822380
  74.9182230  57.8291850  66.9595950  74.5597170  58.4945700  67.5469290
  74.6236790  56.9975400  67.3308570  78.1195350  58.2876090  69.8435500
  77.8195490  58.4333270  68.9463320  78.8906590  57.7281380  69.7508890
  88.5960870  57.2684910  54.1089240  88.5124590  57.6999130  53.2585680
  89.3155060  57.7283260  54.5416060  89.6735010  59.7252430  67.1859210
  88.9483200  60.3181210  66.9888600  90.2010470  59.7175970  66.3872580
  89.6248120  64.1227170  56.8371370  88.9824280  63.4682790  57.1115090
  89.2378780  64.5282260  56.0612040  81.2897880  62.2110290  58.0913470
  81.9769010  62.7579500  58.4721060  80.5030300  62.7551020  58.1263080
  73.4290280  57.8283110  53.5830550  74.2985130  58.1107910  53.8666470
  72.9380600  58.6418980  53.4679360  80.5925090  59.2156320  57.7038830
  81.0487870  60.0261570  57.9299020  80.2413300  58.8979460  58.5357320
  76.4936870  49.5593970  58.1761350  76.3651500  49.5511870  59.1246270
  75.6698890  49.8977060  57.8252360  88.0145500  63.0143630  53.3747720
  87.7883080  62.2974070  53.9672360  87.6241700  62.7656070  52.5369470
  73.7961530  67.0410490  54.1492180  74.1559170  67.6399830  53.4949450
  73.6553870  67.5870380  54.9227210  73.4930800  51.3185090  67.6368050
  72.7789320  51.5182010  68.2420660  73.9125840  50.5424660  68.0082850
  87.5961750  60.9315570  55.0361880  87.3083450  61.3928260  55.8239760
  88.3913920  60.4713340  55.3046100  73.7803390  65.3065350  68.6234580
  73.8894510  64.3660090  68.4829970  73.1283950  65.5720100  67.9748310
  81.7715980  63.5781240  70.0232700  81.4512850  62.8590480  70.5678390
  81.0974340  64.2536310  70.0968760  79.8130150  64.4241690  54.9665850
  79.8040250  65.1571380  54.3510360  78.8928510  64.1773270  55.0592810
  75.4136790  59.6456580  55.7112610  74.8064740  60.3855480  55.7207910
  75.8886140  59.7355940  54.8850810  84.9869580  53.8107400  65.3869500
  85.3550400  52.9902610  65.7149070  84.1267780  53.8709290  65.8025150
  88.3531610  52.7664340  56.1957060  87.7244770  52.8710010  55.4815290
  87.8583530  52.9861120  56.9850940  82.7989750  64.4869930  53.6291040
  82.9001730  64.2833920  52.6993020  81.8991490  64.2328210  53.8338820
  80.3215640  55.0450290  57.6114940  79.6131790  55.5136630  58.0528550
  80.6060120  54.3872300  58.2460130  81.9471570  56.4646990  65.6107470
  82.4456820  56.9392810  66.2759320  82.0894520  55.5410510  65.8177500
  84.3531070  51.7700950  59.0510730  84.2298850  51.7887080  58.1020240
  85.3015630  51.8179890  59.1709130  81.4407860  67.0056250  58.3238710
  81.6949360  66.9677640  57.4018080  80.4920340  66.8789580  58.3166960
  89.1538430  52.6814950  66.4535860  88.6512030  53.4220350  66.7929670
  89.9695090  53.0698950  66.1372650  87.4460440  57.9248130  59.8997220
  86.5050580  57.9398360  60.0744910  87.7604510  57.1384090  60.3457520
  77.4242080  59.6067730  53.4601180  78.1905350  59.4949090  54.0226610
  77.5016770  58.9105700  52.8077950  89.4486020  65.0956980  61.5751480
  89.5733440  65.9188150  62.0475290  90.3151580  64.8847710  61.2275630
  76.9203550  67.1888190  61.2468610  77.6566030  66.6403650  61.5177180
  77.3044470  68.0544200  61.1074600  73.8049030  63.2561760  57.1210120
  72.8788810  63.4982900  57.1115530  74.2705460  64.0836020  56.9994870
  75.9261830  66.3734260  70.4354190  76.7274560  66.6946310  70.8489590
  75.4113650  66.0129840  71.1574100  80.0305860  66.3618500  53.0694180
  80.8234470  66.6507330  52.6175970  79.5110210  65.9310670  52.3906660
  84.7626460  62.4814130  70.3829600  84.1564620  62.5045730  69.6425350
  84.4580570  61.7497170  70.9196850  86.1926830  66.2094420  68.9939010
  87.1448580  66.1252440  68.9439250  86.0455050  66.8736130  69.6672800
  89.0836030  65.5888630  54.4930920  88.7977540  65.1753770  53.6785100
  88.8855580  66.5176340  54.3731440  73.6459640  58.8607720  69.3790240
  74.1498660  58.2815000  69.9506470  72.9067060  59.1447950  69.9166610
  80.5483260  61.5821910  52.9336530  80.4433900  60.9674260  53.6597910
  80.3807480  61.0587800  52.1499540  80.6997580  60.2678710  68.9125760
  79.9343250  60.8363710  68.8280430  80.8813540  59.9754920  68.0193990
  83.7885990  60.6441940  53.5378520  83.2396090  61.0911240  54.1821260
  84.4105250  60.1391190  54.0616190  87.8420930  61.9984040  69.4700780
  88.5830400  62.3359800  68.9668240  87.0793610  62.1676100  68.9170550
  75.6782720  57.0037310  70.2740310  75.7188060  56.7051180  71.1825540
  76.5328220  57.4044920  70.1147830  79.4561110  59.6032860  55.4343820
  79.8777530  59.4372730  56.2775210  79.5811950  58.7933090  54.9398960
  77.6188530  55.5829410  68.2414800  77.0884990  55.0920360  67.6138140
  78.2876600  56.0113610  67.7072730  81.9688750  58.6270470  52.6820920
  82.4894410  57.9119490  52.3162070  82.6157150  59.2656340  52.9821430
  86.9888760  57.3895030  70.0095140  87.5709530  56.6347350  69.9215620
  87.1650530  57.9202470  69.2326620  78.1060830  52.5491780  68.3212090
  78.0117700  51.9312530  67.5962960  77.5258220  53.2758070  68.0942000
  80.8722270  51.1065020  65.3539480  80.4239570  51.1289280  64.5085030
  80.2387470  50.7084040  65.9509780  81.2781820  60.0019350  65.9751920
  81.6969930  60.8452080  65.8028160  80.3590450  60.1391390  65.7458700
  83.6145720  57.7335530  67.3589760  83.7341930  57.1376670  68.0984600
  84.4739720  57.7705220  66.9391060  79.1289240  66.3072360  67.0909650
  78.5910330  67.0318420  66.7718350  79.3823200  65.8302700  66.3006990
  80.3814490  54.2756880  68.6165580  80.9714180  53.9672730  69.3043400
  79.5634730  53.8036630  68.7725480  85.2007920  53.8922690  68.8498600
  84.5123440  53.2304230  68.7848590  85.9213940  53.4460960  69.2947060
  85.8308320  50.4874320  54.9088860  86.1110610  49.6442220  55.2648280
  85.0574050  50.7197430  55.4227610  81.9851450  67.5423570  67.3496300
  81.9110150  68.4458710  67.6568670  81.0830290  67.2235470  67.3218370
  80.3687740  51.7201330  53.3536060  80.0209740  51.0425320  52.7738510
  80.5700510  51.2590840  54.1679450  82.5336780  66.7082080  54.9722660
  83.4287570  67.0467050  54.9941420  82.5654410  65.9861490  54.3446940
  76.1732940  62.0809130  53.2009660  76.6107810  62.6238800  53.8567240
  76.6580670  61.2556080  53.2106000  73.3878740  64.8698160  60.6529920
  73.7181750  64.0019220  60.4208560  73.8169740  65.0756680  61.4834880
  77.9840660  63.2007170  58.3131890  77.6836200  63.0772140  59.2135800
  77.8778150  62.3415760  57.9047620  73.8768950  65.7368750  63.3911550
  73.4399940  65.9169550  64.2235700  74.4446630  66.4943370  63.2493270
  89.5131130  65.2385750  67.6788860  88.9133120  65.2978310  66.9352780
  89.6425030  64.2990730  67.8085710  90.7532580  62.9803570  53.0158570
  89.9225540  63.0480220  53.4865800  90.9304410  63.8707690  52.7125430
  90.2089040  59.7251050  55.5192770  90.9707950  60.2947700  55.6252460
  90.2243410  59.1578250  56.2901080  73.7093380  58.2488980  59.7500430
  73.0542220  57.9800620  59.1060130  74.5471330  58.1393460  59.3002410
  91.2149010  60.5801150  60.3634700  91.5857840  59.7968470  59.9570670
  91.8550940  61.2690250  60.1852000  90.2608210  60.0185420  52.6765290
  90.5357050  60.9264300  52.5484510  90.0718950  59.9547950  53.6127280
  86.6583820  53.0430270  53.9718920  87.0768700  52.8561250  53.1315580
  86.3519880  52.1909320  54.2821850  90.1573550  57.9554410  57.6694720
  89.7817150  57.1882340  57.2376010  89.4276670  58.3377110  58.1569650
  74.7469310  58.6341550  64.2903770  75.1142350  58.5468950  65.1699790
  74.1780130  57.8708100  64.1910630  89.5473170  57.1025930  67.3034240
  89.3159260  56.8738680  66.4032190  89.8077720  58.0225480  67.2579130
  74.2985310  55.5450640  68.1962190  73.4041360  55.5117400  68.5355900
  74.8382860  55.7437430  68.9613440  87.9861240  52.3282360  70.0813940
  88.8631420  52.3365760  70.4647940  87.9982080  51.5913200  69.4706290
  89.4324510  56.1811900  60.9701960  89.9561990  55.6874550  60.3392130
  90.0183930  56.3162260  61.7149530  89.6114230  56.2651770  64.4921510
  88.6616940  56.2315310  64.6066500  89.7927240  57.1751880  64.2571280
  75.1132830  50.5692780  52.6422790  75.8360960  51.1101720  52.9604010
  75.3857350  50.2956200  51.7664330  88.9224480  55.4385250  56.9094370
  89.4183600  55.2056120  57.6943250  88.7240550  54.5997090  56.4932010
  74.8025020  49.8198970  62.5445410  75.4501210  49.2696350  62.1040570
  75.2226860  50.0742120  63.3661220  90.3511640  54.0746200  59.4432050
  90.2410920  53.9202240  60.3814320  91.1119230  53.5467140  59.2007460
  88.6977360  50.0140330  65.9015050  89.3349580  50.6274470  66.2674240
  88.8452250  50.0500990  64.9564280  91.2401910  51.9054120  52.6838190
  92.1651220  51.7735300  52.4756480  91.2177700  51.9846940  53.6374640
  91.3140400  52.6764780  55.3094900  90.5191900  52.6109900  55.8387810
  91.5183680  53.6115420  55.2980250  88.2558820  66.7156330  59.3033290
  88.8517890  66.3940900  58.6267710  88.5136970  66.2428150  60.0946560
  74.5557020  49.9754640  65.2870730  74.2071840  50.4318460  66.0528910
  74.2244720  49.0811770  65.3693160  76.1621390  63.1474240  69.4523920
  76.1191020  62.7767150  70.3338380  76.2932400  64.0851810  69.5925740
  79.8627420  64.7033830  65.0533640  79.6218780  64.9708390  64.1664160
  80.8030060  64.8739560  65.1084500  82.0681840  51.1666520  68.8090150
  82.0070730  51.7588350  69.5585560  83.0082220  51.0592480  68.6640410
  84.7056400  50.8236580  68.4482440  85.3196810  51.1415870  67.7863520
  85.2505960  50.3385170  69.0678300  91.1231580  66.7228210  65.8544280
  90.6289860  67.1197080  65.1371410  90.5144870  66.0977420  66.2481560
  75.2277660  49.5030840  68.5621500  75.7760650  49.3218890  67.7987610
  75.2932970  48.7124950  69.0977810  76.0009420  66.0936490  66.5721700
  75.4069740  65.9621190  67.3111740  75.9933260  65.2574630  66.1063800
  85.4464440  49.3868720  64.7751730  84.5724280  49.7203830  64.5724660
  85.3375190  48.9141900  65.6003600  86.3536420  51.5939590  66.1593450
  86.0249780  50.7791350  65.7795180  87.3018720  51.5509400  66.0359140
  88.8071030  67.3651630  63.1331020  88.3474000  68.1167440  62.7589040
  88.1783490  66.6458100  63.0745820  75.6321650  63.4594870  65.5229740
  74.9055710  62.8400160  65.4555690  75.6930800  63.8535480  64.6527820
  79.2366750  65.6739870  62.3079150  79.7531770  65.0627230  61.7827410
  79.8864130  66.1768650  62.7990160  81.9762250  66.5648360  63.1348130
  82.2640060  66.3102660  62.2581140  82.4885470  66.0125720  63.7253700
  83.1939260  50.3038560  63.7144640  82.4111050  50.7784060  63.9941400
  82.9002190  49.3993390  63.6057820  87.7460330  51.0061660  61.7593730
  88.1868420  50.9506760  60.9115330  87.4767920  51.9219670  61.8303910
  89.6098900  50.6376900  59.7702550  89.5487300  49.6938120  59.6233570
  90.3890930  50.7456990  60.3156010  73.9151650  66.7769260  58.7326500
  73.7473690  66.1439940  59.4308390  73.0486160  66.9828660  58.3820690
  74.5379670  50.6086040  56.2358360  75.2959030  50.7214920  55.6622390
  74.0756840  51.4455240  56.1901790  81.0793480  52.7225310  59.2260670
  80.2667990  52.3482200  58.8856550  81.5835120  51.9670390  59.5281860
  85.5818460  49.3867760  60.4643740  86.1847830  49.9587970  60.9392260
  84.8411450  49.9507200  60.2417640  88.7253060  49.7889320  55.7384020
  88.9203690  50.6872770  56.0051450  87.9382930  49.5576400  56.2316970
  75.5214350  65.4702490  56.1776640  74.9961970  65.8510520  55.4738600
  75.4458930  66.0953260  56.8986350  79.1042660  50.8725230  57.8305720
  78.4745400  50.1712540  57.9975850  78.5647800  51.6329360  57.6138880
  82.0434610  67.4864460  70.5016330  82.9701920  67.2508730  70.5452290
  82.0285040  68.3136460  70.0202360  90.2779670  67.0290030  57.4990580
  90.4531860  66.3427770  56.8551500  89.5801240  67.5537080  57.1067250
  79.2298220  50.1509210  70.2658210  78.9482490  50.6542810  69.5019030
  79.6117920  49.3530960  69.9000340  78.1207320  67.4184870  55.0525890
  78.8526140  67.1344150  54.5049780  78.3800990  67.1798150  55.9425270
  77.2822110  63.5349600  55.0572220  76.6530990  64.0034700  55.6058050
  77.3969940  62.6898820  55.4918410  85.8313680  49.5662790  70.8438680
  85.7179130  49.8857400  71.7390200  86.6483420  49.9675300  70.5475960
  88.6112170  66.7134320  70.3257370  89.4037490  66.2183550  70.1183330
  88.9045320  67.3924460  70.9332980  84.7371830  57.5855260  41.2073420
  84.6565880  56.6709870  40.9365130  84.3236250  58.0822330  40.5013130
  86.8897300  63.7694470  41.8681820  86.4278830  62.9981710  42.1968990
  87.7022850  63.7960540  42.3734270  76.8656960  63.7094180  44.1616470
  77.1685000  62.8191920  43.9826690  77.6100550  64.2664400  43.9338720
  83.1160610  66.0552480  41.4885810  82.4972050  66.5109980  40.9180250
  83.9712390  66.2103940  41.0875510  82.3098860  62.0391470  43.0952850
  82.2407140  61.0981410  42.9341980  83.0718720  62.1292880  43.6675420
  87.1228150  52.3412290  40.2550120  87.9437770  51.8508860  40.2975600
  87.1562230  52.9309950  41.0081960  75.1192200  55.1406490  44.0291810
  75.8002310  55.4044860  44.6479210  74.8040250  54.3007360  44.3629820
  91.4127700  54.3579040  46.8193750  90.7079870  54.7460750  46.3008860
  91.6785620  55.0529330  47.4214680  77.5952870  50.8272410  47.3827820
  77.5971310  51.3444800  46.5773720  76.7657180  50.3502590  47.3597750
  83.9823960  60.9391720  38.8817720  83.3641230  61.4041170  38.3180440
  84.4947210  61.6319200  39.2987230  78.8455720  60.4667590  45.5601320
  78.5125100  61.0936510  46.2022390  79.0222400  60.9929470  44.7802990
  87.3589630  54.2812670  43.0277660  86.6545200  54.5697560  43.6080770
  87.7201790  55.0912780  42.6677220  78.0574820  62.4348390  47.3750500
  78.6748820  63.1099470  47.0934950  77.1967940  62.8436370  47.2838000
  73.3507160  61.6248250  36.2557350  72.9735140  62.1135350  35.5242250
  73.6080230  62.2973530  36.8863880  88.9752410  63.8987800  45.2905140
  88.2915930  64.5686910  45.2821810  89.5146700  64.0968450  44.5250000
  90.4276550  53.7267460  43.4186870  89.4801460  53.7606440  43.5502300
  90.7526540  54.5406410  43.8036230  86.5111150  65.7431930  44.0050320
  86.5238310  65.3394220  43.1372580  85.9586370  66.5179220  43.9011750
  87.8056570  62.4648150  39.0940490  87.6952900  61.5222480  39.2189910
  87.8024820  62.8263790  39.9803250  85.9096590  60.6461770  45.3332930
  86.3265380  60.4321880  44.4986390  86.6336410  60.9034560  45.9041550
  83.3476850  58.0913470  38.4502980  82.4206130  58.0250850  38.6791450
  83.5001670  59.0293600  38.3358220  89.8558690  59.0448990  45.4249170
  89.0277320  59.1142080  44.9499300  90.4509170  59.6303300  44.9565000
  87.3774140  59.6533770  38.9538230  86.7586560  59.3153320  38.3064530
  87.3598590  59.0093530  39.6617420  86.8200700  55.8318310  46.3704040
  86.4071880  56.6572020  46.6244030  86.0876650  55.2463350  46.1780400
  79.4215190  62.3045770  43.3961920  79.1243480  61.6991240  42.7169700
  80.3715010  62.3423080  43.2851280  87.5100800  65.8777640  47.0585020
  87.0331360  66.6849830  46.8657630  86.8262590  65.2255970  47.2111230
  78.5133620  62.0427460  50.0469720  77.6162150  62.2667430  50.2943120
  78.5386490  62.1662400  49.0981120  85.5538840  58.8920580  35.9610980
  85.9932120  58.0543010  35.8148800  86.2667260  59.5249980  36.0475120
  83.6634220  63.8316650  39.9292220  84.1030130  64.5740980  39.5147610
  83.6021110  64.0743220  40.8531180  79.1385190  64.8562480  50.8312240
  79.1100620  65.2605430  49.9640670  78.9750160  63.9272840  50.6683840
  89.1355980  50.1463390  34.2752020  88.8228640  50.2390220  35.1751090
  89.8968450  50.7244420  34.2249450  91.0900010  65.6389580  52.1276410
  91.5659730  66.1172470  52.8065490  91.7107170  65.5707070  51.4021910
  73.2923490  60.6838330  44.5398000  73.3703910  60.8187100  43.5953720
  73.9065170  59.9754220  44.7326120  74.5371120  62.3838520  40.9504180
  74.1299200  62.5253110  40.0957780  75.4284130  62.0998680  40.7475390
  90.4933260  62.8302430  49.2876420  90.6196320  62.5914310  48.3693600
  90.5354640  61.9986970  49.7598500  84.3550000  66.5330430  47.8571230
  84.8694670  66.4438440  48.6593660  83.5119080  66.8790130  48.1499140
  86.3304400  66.8185770  37.2855230  86.1705540  66.5288710  38.1837060
  86.1651110  66.0425900  36.7500460  78.8092780  66.5984300  39.0626850
  78.6335260  65.6819840  38.8494650  77.9548520  66.9571590  39.3024650
  86.0330530  64.3273330  35.8453230  85.3395690  64.3250620  35.1855510
  86.7753390  63.9032650  35.4147400  85.5980460  65.9536040  39.9201720
  86.0537410  65.1725420  40.2340340  85.9372980  66.6642860  40.4642900
  90.3457270  54.8834890  50.2526160  89.7301540  55.3914560  49.7241620
  90.0253690  53.9833220  50.1952100  73.3483010  61.7252500  47.0792460
  73.5114050  61.2557860  46.2611830  73.8135460  61.2176060  47.7441300
  82.4071590  53.7226780  47.7188350  81.9450960  53.9309800  48.5308290
  82.0049700  52.9086130  47.4159020  87.4076100  54.9435730  48.8485010
  86.5569690  54.6441480  49.1694080  87.2477890  55.1877740  47.9368830
  84.5025810  56.4437480  50.9483800  84.8279220  55.6101230  50.6086030
  85.2906140  56.9666000  51.0962130  85.1413760  55.9855200  38.4424930
  84.5422650  56.7091000  38.2588550  85.6893370  55.9231980  37.6601380
  80.3515210  56.8777410  50.5094550  80.2558810  55.9372140  50.3594950
  81.1947190  57.0992480  50.1142620  75.4825750  53.2891080  48.6628330
  75.0889140  54.1366290  48.8701110  74.7944150  52.6517450  48.8536970
  82.0570800  53.3726050  51.7325070  81.3669120  53.1798250  52.3671160
  82.8003100  53.6560690  52.2649370  84.7959680  52.6658170  43.9801930
  84.8132420  53.1166820  44.8243780  84.5475260  51.7663810  44.1935370
  88.2230430  50.0790350  49.8188310  88.5476200  49.3480010  50.3446290
  88.2586940  49.7603990  48.9169300  77.3900290  61.1950100  37.6347950
  76.6162550  60.6547720  37.4746670  78.1194920  60.6756710  37.2965710
  88.1488270  60.1915460  43.4274340  88.8687390  60.6870750  43.0370450
  87.9470090  59.5133350  42.7828210  83.5307070  60.2624520  49.3143340
  83.4644380  59.3420190  49.0600930  82.9012210  60.3599960  50.0287980
  86.3246600  55.9573070  35.8665890  87.2126220  56.2690300  35.6917230
  86.2951690  55.0845320  35.4746470  77.4337690  60.8630480  41.2726760
  77.9516360  60.0598740  41.2183650  76.9821710  60.8009620  42.1143590
  78.1195350  58.2876090  51.0692010  77.8195490  58.4333270  50.1719830
  78.8906590  57.7281380  50.9765400  83.4623800  63.0845090  49.0647140
  83.4768340  62.1526050  48.8466050  82.7548900  63.1704850  49.7036910
  88.5960870  57.2684910  35.3345750  88.5124590  57.6999130  34.4842190
  89.3155060  57.7283260  35.7672570  89.6735010  59.7252430  48.4115720
  88.9483200  60.3181210  48.2145110  90.2010470  59.7175970  47.6129090
  89.6248120  64.1227170  38.0627880  88.9824280  63.4682790  38.3371600
  89.2378780  64.5282260  37.2868550  85.2034600  61.4512600  41.9099570
  85.5558420  60.8540730  41.2500940  84.3196930  61.1256830  42.0807820
  81.2897880  62.2110290  39.3169980  81.9769010  62.7579500  39.6977570
  80.5030300  62.7551020  39.3519590  82.8957700  64.7262660  46.1587640
  83.5399920  64.9322040  46.8361060  83.2587140  63.9651060  45.7058490
  84.1689780  62.7295010  44.8765090  84.8112010  62.0288170  44.9897260
  84.6939130  63.5093450  44.6961980  88.0145500  63.0143630  34.6004230
  87.7883080  62.2974070  35.1928870  87.6241700  62.7656070  33.7625980
  85.9427400  63.5289910  48.0801150  86.2783640  64.1156600  48.7579070
  85.0227740  63.3982620  48.3098940  73.7961530  67.0410490  35.3748690
  74.1559170  67.6399830  34.7205960  73.6553870  67.5870380  36.1483720
  73.4930800  51.3185090  48.8624560  72.7789320  51.5182010  49.4677170
  73.9125840  50.5424660  49.2339360  87.5961750  60.9315570  36.2618390
  87.3083450  61.3928260  37.0496270  88.3913920  60.4713340  36.5302610
  73.7803390  65.3065350  49.8491090  73.8894510  64.3660090  49.7086480
  73.1283950  65.5720100  49.2004820  81.7715980  63.5781240  51.2489210
  81.4512850  62.8590480  51.7934900  81.0974340  64.2536310  51.3225270
  79.8130150  64.4241690  36.1922360  79.8040250  65.1571380  35.5766870
  78.8928510  64.1773270  36.2849320  84.9869580  53.8107400  46.6126010
  85.3550400  52.9902610  46.9405580  84.1267780  53.8709290  47.0281660
  88.3531610  52.7664340  37.4213570  87.7244770  52.8710010  36.7071800
  87.8583530  52.9861120  38.2107450  82.7989750  64.4869930  34.8547550
  82.9001730  64.2833920  33.9249530  81.8991490  64.2328210  35.0595330
  81.4407860  67.0056250  39.5495220  81.6949360  66.9677640  38.6274590
  80.4920340  66.8789580  39.5423470  89.1538430  52.6814950  47.6792370
  88.6512030  53.4220350  48.0186180  89.9695090  53.0698950  47.3629160
  87.4460440  57.9248130  41.1253730  86.5050580  57.9398360  41.3001420
  87.7604510  57.1384090  41.5714030  89.4486020  65.0956980  42.8007990
  89.5733440  65.9188150  43.2731800  90.3151580  64.8847710  42.4532140
  76.9203550  67.1888190  42.4725120  77.6566030  66.6403650  42.7433690
  77.3044470  68.0544200  42.3331110  73.8049030  63.2561760  38.3466630
  72.8788810  63.4982900  38.3372040  74.2705460  64.0836020  38.2251380
  75.9261830  66.3734260  51.6610700  76.7274560  66.6946310  52.0746100
  75.4113650  66.0129840  52.3830610  80.0305860  66.3618500  34.2950690
  80.8234470  66.6507330  33.8432480  79.5110210  65.9310670  33.6163170
  84.7626460  62.4814130  51.6086110  84.1564620  62.5045730  50.8681860
  84.4580570  61.7497170  52.1453360  86.1926830  66.2094420  50.2195520
  87.1448580  66.1252440  50.1695760  86.0455050  66.8736130  50.8929310
  89.0836030  65.5888630  35.7187430  88.7977540  65.1753770  34.9041610
  88.8855580  66.5176340  35.5987950  80.6997580  60.2678710  50.1382270
  79.9343250  60.8363710  50.0536940  80.8813540  59.9754920  49.2450500
  87.8420930  61.9984040  50.6957290  88.5830400  62.3359800  50.1924750
  87.0793610  62.1676100  50.1427060  77.6188530  55.5829410  49.4671310
  77.0884990  55.0920360  48.8394650  78.2876600  56.0113610  48.9329240
  86.5166590  60.0498870  49.2312500  86.9307610  60.2043950  50.0802920
  85.5817590  60.1754090  49.3938280  86.9888760  57.3895030  51.2351650
  87.5709530  56.6347350  51.1472130  87.1650530  57.9202470  50.4583130
  78.1060830  52.5491780  49.5468600  78.0117700  51.9312530  48.8219470
  77.5258220  53.2758070  49.3198510  80.8722270  51.1065020  46.5795990
  80.4239570  51.1289280  45.7341540  80.2387470  50.7084040  47.1766290
  81.2781820  60.0019350  47.2008430  81.6969930  60.8452080  47.0284670
  80.3590450  60.1391390  46.9715210  83.6145720  57.7335530  48.5846270
  83.7341930  57.1376670  49.3241110  84.4739720  57.7705220  48.1647570
  85.9533620  58.2872720  47.1608780  85.4268840  58.8115340  46.5573920
  86.2964960  58.9200110  47.7918510  79.1289240  66.3072360  48.3166160
  78.5910330  67.0318420  47.9974860  79.3823200  65.8302700  47.5263500
  80.3814490  54.2756880  49.8422090  80.9714180  53.9672730  50.5299910
  79.5634730  53.8036630  49.9981990  85.2007920  53.8922690  50.0755110
  84.5123440  53.2304230  50.0105100  85.9213940  53.4460960  50.5203570
  85.8308320  50.4874320  36.1345370  86.1110610  49.6442220  36.4904790
  85.0574050  50.7197430  36.6484120  81.9851450  67.5423570  48.5752810
  81.9110150  68.4458710  48.8825180  81.0830290  67.2235470  48.5474880
  82.5336780  66.7082080  36.1979170  83.4287570  67.0467050  36.2197930
  82.5654410  65.9861490  35.5703450  73.3878740  64.8698160  41.8786430
  73.7181750  64.0019220  41.6465070  73.8169740  65.0756680  42.7091390
  77.9840660  63.2007170  39.5388400  77.6836200  63.0772140  40.4392310
  77.8778150  62.3415760  39.1304130  73.8768950  65.7368750  44.6168060
  73.4399940  65.9169550  45.4492210  74.4446630  66.4943370  44.4749780
  89.5131130  65.2385750  48.9045370  88.9133120  65.2978310  48.1609290
  89.6425030  64.2990730  49.0342220  90.7532580  62.9803570  34.2415080
  89.9225540  63.0480220  34.7122310  90.9304410  63.8707690  33.9381940
  90.2089040  59.7251050  36.7449280  90.9707950  60.2947700  36.8508970
  90.2243410  59.1578250  37.5157590  73.7093380  58.2488980  40.9756940
  73.0542220  57.9800620  40.3316640  74.5471330  58.1393460  40.5258920
  91.2149010  60.5801150  41.5891210  91.5857840  59.7968470  41.1827180
  91.8550940  61.2690250  41.4108510  88.1982770  61.9637730  47.0021530
  87.3842610  62.3934890  47.2647320  88.6056970  62.5756140  46.3890580
  90.2608210  60.0185420  33.9021800  90.5357050  60.9264300  33.7741020
  90.0718950  59.9547950  34.8383790  86.6583820  53.0430270  35.1975430
  87.0768700  52.8561250  34.3572090  86.3519880  52.1909320  35.5078360
  90.1573550  57.9554410  38.8951230  89.7817150  57.1882340  38.4632520
  89.4276670  58.3377110  39.3826160  89.5473170  57.1025930  48.5290750
  89.3159260  56.8738680  47.6288700  89.8077720  58.0225480  48.4835640
  87.9861240  52.3282360  51.3070450  88.8631420  52.3365760  51.6904450
  87.9982080  51.5913200  50.6962800  89.4324510  56.1811900  42.1958470
  89.9561990  55.6874550  41.5648640  90.0183930  56.3162260  42.9406040
  89.6114230  56.2651770  45.7178020  88.6616940  56.2315310  45.8323010
  89.7927240  57.1751880  45.4827790  88.9224480  55.4385250  38.1350880
  89.4183600  55.2056120  38.9199760  88.7240550  54.5997090  37.7188520
  90.3511640  54.0746200  40.6688560  90.2410920  53.9202240  41.6070830
  91.1119230  53.5467140  40.4263970  88.6977360  50.0140330  47.1271560
  89.3349580  50.6274470  47.4930750  88.8452250  50.0500990  46.1820790
  91.2401910  51.9054120  33.9094700  92.1651220  51.7735300  33.7012990
  91.2177700  51.9846940  34.8631150  91.3140400  52.6764780  36.5351410
  90.5191900  52.6109900  37.0644320  91.5183680  53.6115420  36.5236760
  88.2558820  66.7156330  40.5289800  88.8517890  66.3940900  39.8524220
  88.5136970  66.2428150  41.3203070  74.5557020  49.9754640  46.5127240
  74.2071840  50.4318460  47.2785420  74.2244720  49.0811770  46.5949670
  76.1621390  63.1474240  50.6780430  76.1191020  62.7767150  51.5594890
  76.2932400  64.0851810  50.8182250  79.8627420  64.7033830  46.2790150
  79.6218780  64.9708390  45.3920670  80.8030060  64.8739560  46.3341010
  82.0681840  51.1666520  50.0346660  82.0070730  51.7588350  50.7842070
  83.0082220  51.0592480  49.8896920  84.7056400  50.8236580  49.6738950
  85.3196810  51.1415870  49.0120030  85.2505960  50.3385170  50.2934810
  91.1231580  66.7228210  47.0800790  90.6289860  67.1197080  46.3627920
  90.5144870  66.0977420  47.4738070  75.2277660  49.5030840  49.7878010
  75.7760650  49.3218890  49.0244120  75.2932970  48.7124950  50.3234320
  76.0009420  66.0936490  47.7978210  75.4069740  65.9621190  48.5368250
  75.9933260  65.2574630  47.3320310  86.3536420  51.5939590  47.3849960
  86.0249780  50.7791350  47.0051690  87.3018720  51.5509400  47.2615650
  88.8071030  67.3651630  44.3587530  88.3474000  68.1167440  43.9845550
  88.1783490  66.6458100  44.3002330  75.6321650  63.4594870  46.7486250
  74.9055710  62.8400160  46.6812200  75.6930800  63.8535480  45.8784330
  79.2366750  65.6739870  43.5335660  79.7531770  65.0627230  43.0083920
  79.8864130  66.1768650  44.0246670  81.9762250  66.5648360  44.3604640
  82.2640060  66.3102660  43.4837650  82.4885470  66.0125720  44.9510210
  87.7460330  51.0061660  42.9850240  88.1868420  50.9506760  42.1371840
  87.4767920  51.9219670  43.0560420  89.6098900  50.6376900  40.9959060
  89.5487300  49.6938120  40.8490080  90.3890930  50.7456990  41.5412520
  73.9151650  66.7769260  39.9583010  73.7473690  66.1439940  40.6564900
  73.0486160  66.9828660  39.6077200  88.7253060  49.7889320  36.9640530
  88.9203690  50.6872770  37.2307960  87.9382930  49.5576400  37.4573480
  75.5214350  65.4702490  37.4033150  74.9961970  65.8510520  36.6995110
  75.4458930  66.0953260  38.1242860  82.0434610  67.4864460  51.7272840
  82.9701920  67.2508730  51.7708800  82.0285040  68.3136460  51.2458870
  90.2779670  67.0290030  38.7247090  90.4531860  66.3427770  38.0808010
  89.5801240  67.5537080  38.3323760  79.2298220  50.1509210  51.4914720
  78.9482490  50.6542810  50.7275540  79.6117920  49.3530960  51.1256850
  78.1207320  67.4184870  36.2782400  78.8526140  67.1344150  35.7306290
  78.3800990  67.1798150  37.1681780  77.2822110  63.5349600  36.2828730
  76.6530990  64.0034700  36.8314560  77.3969940  62.6898820  36.7174920
  85.8313680  49.5662790  52.0695190  85.7179130  49.8857400  52.9646710
  86.6483420  49.9675300  51.7732470  88.6112170  66.7134320  51.5513880
  89.4037490  66.2183550  51.3439840  88.9045320  67.3924460  52.1589490
  84.7371830  57.5855260  22.4329930  84.6565880  56.6709870  22.1621640
  84.3236250  58.0822330  21.7269640  82.8689870  59.3634280  24.3139200
  82.0931970  58.8834720  24.6037770  83.5202800  58.6839930  24.1395360
  76.8855700  59.6754090  25.1914960  76.0540580  59.4202800  25.5911470
  77.4936680  59.7464860  25.9272880  86.8897300  63.7694470  23.0938330
  86.4278830  62.9981710  23.4225500  87.7022850  63.7960540  23.5990780
  76.8656960  63.7094180  25.3872980  77.1685000  62.8191920  25.2083200
  77.6100550  64.2664400  25.1595230  75.2947650  54.6355980  18.9757350
  74.4064350  54.9771950  18.8737230  75.5788840  54.4356300  18.0838180
  73.2580660  57.2361630  24.8597050  73.8296770  56.4683830  24.8600690
  73.2582200  57.5350390  23.9503660  83.1160610  66.0552480  22.7142320
  82.4972050  66.5109980  22.1436760  83.9712390  66.2103940  22.3132020
  82.3098860  62.0391470  24.3209360  82.2407140  61.0981410  24.1598490
  83.0718720  62.1292880  24.8931930  74.5005530  52.6445990  26.6465980
  74.3208370  51.7471740  26.9268740  74.0985610  53.1917860  27.3212930
  83.3404030  54.8461850  24.5478290  83.7168850  53.9733730  24.4351960
  83.2423540  55.1820550  23.6568730  77.4709040  53.2187480  20.0095730
  77.5775790  54.1191210  20.3164490  76.5601400  53.1705450  19.7190380
  87.1228150  52.3412290  21.4806630  87.9437770  51.8508860  21.5232110
  87.1562230  52.9309950  22.2338470  75.1192200  55.1406490  25.2548320
  75.8002310  55.4044860  25.8735720  74.8040250  54.3007360  25.5886330
  79.3116770  56.1873850  24.3420910  79.8194990  56.6854820  24.9825930
  79.8430010  55.4109050  24.1660270  91.4127700  54.3579040  28.0450260
  90.7079870  54.7460750  27.5265370  91.6785620  55.0529330  28.6471190
  77.5952870  50.8272410  28.6084330  77.5971310  51.3444800  27.8030230
  76.7657180  50.3502590  28.5854260  83.9823960  60.9391720  20.1074230
  83.3641230  61.4041170  19.5436950  84.4947210  61.6319200  20.5243740
  78.8455720  60.4667590  26.7857830  78.5125100  61.0936510  27.4278900
  79.0222400  60.9929470  26.0059500  87.3589630  54.2812670  24.2534170
  86.6545200  54.5697560  24.8337280  87.7201790  55.0912780  23.8933730
  77.2768200  52.5382370  26.6154780  77.6185010  53.3824420  26.3208650
  76.3384010  52.6866110  26.7320120  78.0574820  62.4348390  28.6007010
  78.6748820  63.1099470  28.3191460  77.1967940  62.8436370  28.5094510
  73.3507160  61.6248250  17.4813860  72.9735140  62.1135350  16.7498760
  73.6080230  62.2973530  18.1120390  88.9752410  63.8987800  26.5161650
  88.2915930  64.5686910  26.5078320  89.5146700  64.0968450  25.7506510
  90.4276550  53.7267460  24.6443380  89.4801460  53.7606440  24.7758810
  90.7526540  54.5406410  25.0292740  80.9596090  50.0264640  22.9399370
  81.2671070  49.4711530  22.2234870  80.0296790  50.1609100  22.7572360
  86.5111150  65.7431930  25.2306830  86.5238310  65.3394220  24.3629090
  85.9586370  66.5179220  25.1268260  87.8056570  62.4648150  20.3197000
  87.6952900  61.5222480  20.4446420  87.8024820  62.8263790  21.2059760
  85.9096590  60.6461770  26.5589440  86.3265380  60.4321880  25.7242900
  86.6336410  60.9034560  27.1298060  83.3476850  58.0913470  19.6759490
  82.4206130  58.0250850  19.9047960  83.5001670  59.0293600  19.5614730
  83.3345930  54.3630470  16.6726650  82.3949600  54.5244430  16.7579110
  83.6529190  55.0816150  16.1262640  89.8558690  59.0448990  26.6505680
  89.0277320  59.1142080  26.1755810  90.4509170  59.6303300  26.1821510
  87.3774140  59.6533770  20.1794740  86.7586560  59.3153320  19.5321040
  87.3598590  59.0093530  20.8873930  86.8200700  55.8318310  27.5960550
  86.4071880  56.6572020  27.8500540  86.0876650  55.2463350  27.4036910
  78.9533490  58.6178210  22.4579220  78.5490490  57.9055460  21.9625120
  79.0396610  58.2731450  23.3467260  79.4215190  62.3045770  24.6218430
  79.1243480  61.6991240  23.9426210  80.3715010  62.3423080  24.5107790
  77.6662110  55.3921420  26.2378260  78.2176700  55.5016760  25.4631510
  78.1805620  55.7659020  26.9533490  87.5100800  65.8777640  28.2841530
  87.0331360  66.6849830  28.0914140  86.8262590  65.2255970  28.4367740
  85.5538840  58.8920580  17.1867490  85.9932120  58.0543010  17.0405310
  86.2667260  59.5249980  17.2731630  83.6634220  63.8316650  21.1548730
  84.1030130  64.5740980  20.7404120  83.6021110  64.0743220  22.0787690
  89.1355980  50.1463390  15.5008530  88.8228640  50.2390220  16.4007600
  89.8968450  50.7244420  15.4505960  75.6538120  57.5123190  19.9585870
  75.5335720  58.2385280  19.3467140  75.3439010  56.7426100  19.4813780
  91.0900010  65.6389580  33.3532920  91.5659730  66.1172470  34.0322000
  91.7107170  65.5707070  32.6278420  73.2923490  60.6838330  25.7654510
  73.3703910  60.8187100  24.8210230  73.9065170  59.9754220  25.9582630
  74.5371120  62.3838520  22.1760690  74.1299200  62.5253110  21.3214290
  75.4284130  62.0998680  21.9731900  90.4933260  62.8302430  30.5132930
  90.6196320  62.5914310  29.5950110  90.5354640  61.9986970  30.9855010
  84.3550000  66.5330430  29.0827740  84.8694670  66.4438440  29.8850170
  83.5119080  66.8790130  29.3755650  86.3304400  66.8185770  18.5111740
  86.1705540  66.5288710  19.4093570  86.1651110  66.0425900  17.9756970
  78.8092780  66.5984300  20.2883360  78.6335260  65.6819840  20.0751160
  77.9548520  66.9571590  20.5281160  86.0330530  64.3273330  17.0709740
  85.3395690  64.3250620  16.4112020  86.7753390  63.9032650  16.6403910
  85.5980460  65.9536040  21.1458230  86.0537410  65.1725420  21.4596850
  85.9372980  66.6642860  21.6899410  90.3457270  54.8834890  31.4782670
  89.7301540  55.3914560  30.9498130  90.0253690  53.9833220  31.4208610
  73.3483010  61.7252500  28.3048970  73.5114050  61.2557860  27.4868340
  73.8135460  61.2176060  28.9697810  78.1201780  50.8558260  23.3409540
  77.6769930  51.6367800  23.0094060  78.6786770  51.1788150  24.0480480
  87.4076100  54.9435730  30.0741520  86.5569690  54.6441480  30.3950590
  87.2477890  55.1877740  29.1625340  81.2360600  50.4768960  18.2215370
  80.6114780  50.4728830  18.9468680  81.1490720  49.6099920  17.8251340
  77.9116000  55.9791830  21.0690790  77.6856920  55.7629000  21.9737410
  77.1308530  56.4120290  20.7236760  85.1413760  55.9855200  19.6681440
  84.5422650  56.7091000  19.4845060  85.6893370  55.9231980  18.8857890
  83.7478630  54.6218740  21.6984720  84.1408200  54.9390940  20.8853410
  84.1095480  53.7430620  21.8129240  72.7842800  51.2119540  23.9214920
  72.4955850  51.7822400  24.6339900  73.5288560  50.7323990  24.2846150
  72.9713030  55.1539660  15.1317640  72.8887700  56.0970420  15.2732630
  72.6196090  55.0114570  14.2529990  84.3333770  57.2124490  25.7935500
  83.6014890  57.7211300  26.1425600  83.9358110  56.3954470  25.4924280
  80.7711160  53.8878690  24.1987990  80.7747220  53.4468640  23.3492530
  81.6662280  54.2096020  24.3059810  76.6213540  53.7705180  23.1582200
  76.2813590  54.2480410  23.9149250  75.8590860  53.3170300  22.7983300
  80.8331310  54.8890770  17.1894750  80.9544130  54.8477250  18.1380570
  80.4479820  55.7514920  17.0341480  79.8452810  57.1991910  16.5878050
  79.2769710  56.7510160  15.9613960  80.5541810  57.5584690  16.0543200
  88.2230430  50.0790350  31.0444820  88.5476200  49.3480010  31.5702800
  88.2586940  49.7603990  30.1425810  74.9221990  61.1003930  30.4644780
  74.5376780  60.4597600  31.0627740  75.2334180  61.8040050  31.0339510
  81.0719130  57.9480470  25.9453400  81.4389260  57.4739040  26.6914740
  80.8824190  58.8222040  26.2861740  73.9359620  52.6924160  22.0746870
  73.6506540  52.3279830  22.9125490  73.8738480  51.9604620  21.4610010
  78.8618500  56.9889110  28.2637610  78.5575570  57.8681090  28.4887970
  79.8164960  57.0488900  28.2995050  77.3900290  61.1950100  18.8604460
  76.6162550  60.6547720  18.7003180  78.1194920  60.6756710  18.5222220
  88.1488270  60.1915460  24.6530850  88.8687390  60.6870750  24.2626960
  87.9470090  59.5133350  24.0084720  83.6098210  51.5853420  18.7960240
  82.7962820  51.0866590  18.7205550  83.4160160  52.4251670  18.3796590
  86.3246600  55.9573070  17.0922400  87.2126220  56.2690300  16.9173740
  86.2951690  55.0845320  16.7002980  77.4337690  60.8630480  22.4983270
  77.9516360  60.0598740  22.4440160  76.9821710  60.8009620  23.3400100
  82.3207190  62.1296760  17.7710570  82.6622890  62.8738990  17.2753890
  81.4919900  62.4427880  18.1335400  74.9182230  57.8291850  29.4108970
  74.5597170  58.4945700  29.9982310  74.6236790  56.9975400  29.7821590
  88.5960870  57.2684910  16.5602260  88.5124590  57.6999130  15.7098700
  89.3155060  57.7283260  16.9929080  89.6735010  59.7252430  29.6372230
  88.9483200  60.3181210  29.4401620  90.2010470  59.7175970  28.8385600
  89.6248120  64.1227170  19.2884390  88.9824280  63.4682790  19.5628110
  89.2378780  64.5282260  18.5125060  85.2034600  61.4512600  23.1356080
  85.5558420  60.8540730  22.4757450  84.3196930  61.1256830  23.3064330
  81.2897880  62.2110290  20.5426490  81.9769010  62.7579500  20.9234080
  80.5030300  62.7551020  20.5776100  73.4290280  57.8283110  16.0343570
  74.2985130  58.1107910  16.3179490  72.9380600  58.6418980  15.9192380
  80.5925090  59.2156320  20.1551850  81.0487870  60.0261570  20.3812040
  80.2413300  58.8979460  20.9870340  82.8957700  64.7262660  27.3844150
  83.5399920  64.9322040  28.0617570  83.2587140  63.9651060  26.9315000
  84.1689780  62.7295010  26.1021600  84.8112010  62.0288170  26.2153770
  84.6939130  63.5093450  25.9218490  88.0145500  63.0143630  15.8260740
  87.7883080  62.2974070  16.4185380  87.6241700  62.7656070  14.9882490
  85.9427400  63.5289910  29.3057660  86.2783640  64.1156600  29.9835580
  85.0227740  63.3982620  29.5355450  73.7961530  67.0410490  16.6005200
  74.1559170  67.6399830  15.9462470  73.6553870  67.5870380  17.3740230
  87.5961750  60.9315570  17.4874900  87.3083450  61.3928260  18.2752780
  88.3913920  60.4713340  17.7559120  73.7803390  65.3065350  31.0747600
  73.8894510  64.3660090  30.9342990  73.1283950  65.5720100  30.4261330
  79.8130150  64.4241690  17.4178870  79.8040250  65.1571380  16.8023380
  78.8928510  64.1773270  17.5105830  75.4136790  59.6456580  18.1625630
  74.8064740  60.3855480  18.1720930  75.8886140  59.7355940  17.3363830
  88.3531610  52.7664340  18.6470080  87.7244770  52.8710010  17.9328310
  87.8583530  52.9861120  19.4363960  82.7989750  64.4869930  16.0804060
  82.9001730  64.2833920  15.1506040  81.8991490  64.2328210  16.2851840
  80.3215640  55.0450290  20.0627960  79.6131790  55.5136630  20.5041570
  80.6060120  54.3872300  20.6973150  84.3531070  51.7700950  21.5023750
  84.2298850  51.7887080  20.5533260  85.3015630  51.8179890  21.6222150
  81.4407860  67.0056250  20.7751730  81.6949360  66.9677640  19.8531100
  80.4920340  66.8789580  20.7679980  78.5250660  53.3535370  17.4378670
  79.3741190  53.7905520  17.3718860  78.1581930  53.6655630  18.2650730
  89.1538430  52.6814950  28.9048880  88.6512030  53.4220350  29.2442690
  89.9695090  53.0698950  28.5885670  87.4460440  57.9248130  22.3510240
  86.5050580  57.9398360  22.5257930  87.7604510  57.1384090  22.7970540
  77.4242080  59.6067730  15.9114200  78.1905350  59.4949090  16.4739630
  77.5016770  58.9105700  15.2590970  76.1188840  57.0392800  16.5947090
  76.1992430  56.0920310  16.7064490  77.0108590  57.3699680  16.7007750
  89.4486020  65.0956980  24.0264500  89.5733440  65.9188150  24.4988310
  90.3151580  64.8847710  23.6788650  76.9203550  67.1888190  23.6981630
  77.6566030  66.6403650  23.9690200  77.3044470  68.0544200  23.5587620
  73.8049030  63.2561760  19.5723140  72.8788810  63.4982900  19.5628550
  74.2705460  64.0836020  19.4507890  75.9261830  66.3734260  32.8867210
  76.7274560  66.6946310  33.3002610  75.4113650  66.0129840  33.6087120
  80.0305860  66.3618500  15.5207200  80.8234470  66.6507330  15.0688990
  79.5110210  65.9310670  14.8419680  86.1926830  66.2094420  31.4452030
  87.1448580  66.1252440  31.3952270  86.0455050  66.8736130  32.1185820
  89.0836030  65.5888630  16.9443940  88.7977540  65.1753770  16.1298120
  88.8855580  66.5176340  16.8244460  73.6459640  58.8607720  31.8303260
  74.1498660  58.2815000  32.4019490  72.9067060  59.1447950  32.3679630
  80.5483260  61.5821910  15.3849550  80.4433900  60.9674260  16.1110930
  80.3807480  61.0587800  14.6012560  83.7885990  60.6441940  15.9891540
  83.2396090  61.0911240  16.6334280  84.4105250  60.1391190  16.5129210
  87.8420930  61.9984040  31.9213800  88.5830400  62.3359800  31.4181260
  87.0793610  62.1676100  31.3683570  79.4561110  59.6032860  17.8856840
  79.8777530  59.4372730  18.7288230  79.5811950  58.7933090  17.3911980
  77.6188530  55.5829410  30.6927820  77.0884990  55.0920360  30.0651160
  78.2876600  56.0113610  30.1585750  81.9688750  58.6270470  15.1333940
  82.4894410  57.9119490  14.7675090  82.6157150  59.2656340  15.4334450
  86.5166590  60.0498870  30.4569010  86.9307610  60.2043950  31.3059430
  85.5817590  60.1754090  30.6194790  86.9888760  57.3895030  32.4608160
  87.5709530  56.6347350  32.3728640  87.1650530  57.9202470  31.6839640
  81.2781820  60.0019350  28.4264940  81.6969930  60.8452080  28.2541180
  80.3590450  60.1391390  28.1971720  83.6145720  57.7335530  29.8102780
  83.7341930  57.1376670  30.5497620  84.4739720  57.7705220  29.3904080
  85.9533620  58.2872720  28.3865290  85.4268840  58.8115340  27.7830430
  86.2964960  58.9200110  29.0175020  78.3520010  55.6766090  14.8315000
  78.1509070  54.8133450  15.1928340  78.1812060  55.5899450  13.8936600
  79.1289240  66.3072360  29.5422670  78.5910330  67.0318420  29.2231370
  79.3823200  65.8302700  28.7520010  85.8308320  50.4874320  17.3601880
  86.1110610  49.6442220  17.7161300  85.0574050  50.7197430  17.8740630
  77.1502810  52.7766710  14.8192880  77.4528710  52.7834140  13.9112030
  77.8897400  52.4264570  15.3160540  81.9851450  67.5423570  29.8009320
  81.9110150  68.4458710  30.1081690  81.0830290  67.2235470  29.7731390
  80.3687740  51.7201330  15.8049080  80.0209740  51.0425320  15.2251530
  80.5700510  51.2590840  16.6192470  82.5336780  66.7082080  17.4235680
  83.4287570  67.0467050  17.4454440  82.5654410  65.9861490  16.7959960
  76.1732940  62.0809130  15.6522680  76.6107810  62.6238800  16.3080260
  76.6580670  61.2556080  15.6619020  73.3878740  64.8698160  23.1042940
  73.7181750  64.0019220  22.8721580  73.8169740  65.0756680  23.9347900
  77.9840660  63.2007170  20.7644910  77.6836200  63.0772140  21.6648820
  77.8778150  62.3415760  20.3560640  73.8768950  65.7368750  25.8424570
  73.4399940  65.9169550  26.6748720  74.4446630  66.4943370  25.7006290
  89.5131130  65.2385750  30.1301880  88.9133120  65.2978310  29.3865800
  89.6425030  64.2990730  30.2598730  90.7532580  62.9803570  15.4671590
  89.9225540  63.0480220  15.9378820  90.9304410  63.8707690  15.1638450
  90.2089040  59.7251050  17.9705790  90.9707950  60.2947700  18.0765480
  90.2243410  59.1578250  18.7414100  73.7093380  58.2488980  22.2013450
  73.0542220  57.9800620  21.5573150  74.5471330  58.1393460  21.7515430
  91.2149010  60.5801150  22.8147720  91.5857840  59.7968470  22.4083690
  91.8550940  61.2690250  22.6365020  88.1982770  61.9637730  28.2278040
  87.3842610  62.3934890  28.4903830  88.6056970  62.5756140  27.6147090
  90.2608210  60.0185420  15.1278310  90.5357050  60.9264300  14.9997530
  90.0718950  59.9547950  16.0640300  86.6583820  53.0430270  16.4231940
  87.0768700  52.8561250  15.5828600  86.3519880  52.1909320  16.7334870
  90.1573550  57.9554410  20.1207740  89.7817150  57.1882340  19.6889030
  89.4276670  58.3377110  20.6082670  74.7469310  58.6341550  26.7416790
  75.1142350  58.5468950  27.6212810  74.1780130  57.8708100  26.6423650
  89.5473170  57.1025930  29.7547260  89.3159260  56.8738680  28.8545210
  89.8077720  58.0225480  29.7092150  74.2985310  55.5450640  30.6475210
  73.4041360  55.5117400  30.9868920  74.8382860  55.7437430  31.4126460
  87.9861240  52.3282360  32.5326960  88.8631420  52.3365760  32.9160960
  87.9982080  51.5913200  31.9219310  72.9231460  55.4587910  18.1438780
  72.0195540  55.7218110  17.9690440  73.4072080  55.7299080  17.3638740
  89.4324510  56.1811900  23.4214980  89.9561990  55.6874550  22.7905150
  90.0183930  56.3162260  24.1662550  89.6114230  56.2651770  26.9434530
  88.6616940  56.2315310  27.0579520  89.7927240  57.1751880  26.7084300
  75.4658670  54.5153450  16.0533160  76.1750370  54.0936670  15.5680440
  74.7498610  54.5828680  15.4216510  75.1132830  50.5692780  15.0935810
  75.8360960  51.1101720  15.4117030  75.3857350  50.2956200  14.2177350
  88.9224480  55.4385250  19.3607390  89.4183600  55.2056120  20.1456270
  88.7240550  54.5997090  18.9445030  74.8025020  49.8198970  24.9958430
  75.4501210  49.2696350  24.5553590  75.2226860  50.0742120  25.8174240
  90.3511640  54.0746200  21.8945070  90.2410920  53.9202240  22.8327340
  91.1119230  53.5467140  21.6520480  88.6977360  50.0140330  28.3528070
  89.3349580  50.6274470  28.7187260  88.8452250  50.0500990  27.4077300
  91.2401910  51.9054120  15.1351210  92.1651220  51.7735300  14.9269500
  91.2177700  51.9846940  16.0887660  91.3140400  52.6764780  17.7607920
  90.5191900  52.6109900  18.2900830  91.5183680  53.6115420  17.7493270
  88.2558820  66.7156330  21.7546310  88.8517890  66.3940900  21.0780730
  88.5136970  66.2428150  22.5459580  74.5557020  49.9754640  27.7383750
  74.2071840  50.4318460  28.5041930  74.2244720  49.0811770  27.8206180
  76.1621390  63.1474240  31.9036940  76.1191020  62.7767150  32.7851400
  76.2932400  64.0851810  32.0438760  79.8627420  64.7033830  27.5046660
  79.6218780  64.9708390  26.6177180  80.8030060  64.8739560  27.5597520
  91.1231580  66.7228210  28.3057300  90.6289860  67.1197080  27.5884430
  90.5144870  66.0977420  28.6994580  76.0009420  66.0936490  29.0234720
  75.4069740  65.9621190  29.7624760  75.9933260  65.2574630  28.5576820
  85.4464440  49.3868720  27.2264750  84.5724280  49.7203830  27.0237680
  85.3375190  48.9141900  28.0516620  86.3536420  51.5939590  28.6106470
  86.0249780  50.7791350  28.2308200  87.3018720  51.5509400  28.4872160
  88.8071030  67.3651630  25.5844040  88.3474000  68.1167440  25.2102060
  88.1783490  66.6458100  25.5258840  75.6321650  63.4594870  27.9742760
  74.9055710  62.8400160  27.9068710  75.6930800  63.8535480  27.1040840
  79.2366750  65.6739870  24.7592170  79.7531770  65.0627230  24.2340430
  79.8864130  66.1768650  25.2503180  81.9762250  66.5648360  25.5861150
  82.2640060  66.3102660  24.7094160  82.4885470  66.0125720  26.1766720
  87.7460330  51.0061660  24.2106750  88.1868420  50.9506760  23.3628350
  87.4767920  51.9219670  24.2816930  89.6098900  50.6376900  22.2215570
  89.5487300  49.6938120  22.0746590  90.3890930  50.7456990  22.7669030
  73.9151650  66.7769260  21.1839520  73.7473690  66.1439940  21.8821410
  73.0486160  66.9828660  20.8333710  81.0793480  52.7225310  21.6773690
  80.2667990  52.3482200  21.3369570  81.5835120  51.9670390  21.9794880
  85.5818460  49.3867760  22.9156760  86.1847830  49.9587970  23.3905280
  84.8411450  49.9507200  22.6930660  88.7253060  49.7889320  18.1897040
  88.9203690  50.6872770  18.4564470  87.9382930  49.5576400  18.6829990
  75.5214350  65.4702490  18.6289660  74.9961970  65.8510520  17.9251620
  75.4458930  66.0953260  19.3499370  76.9104820  51.1350090  17.2273350
  77.4397580  50.3479890  17.0981300  77.5433140  51.8141280  17.4608880
  79.1042660  50.8725230  20.2818740  78.4745400  50.1712540  20.4488870
  78.5647800  51.6329360  20.0651900  82.0434610  67.4864460  32.9529350
  82.9701920  67.2508730  32.9965310  82.0285040  68.3136460  32.4715380
  90.2779670  67.0290030  19.9503600  90.4531860  66.3427770  19.3064520
  89.5801240  67.5537080  19.5580270  78.1207320  67.4184870  17.5038910
  78.8526140  67.1344150  16.9562800  78.3800990  67.1798150  18.3938290
  77.2822110  63.5349600  17.5085240  76.6530990  64.0034700  18.0571070
  77.3969940  62.6898820  17.9431430  85.8313680  49.5662790  33.2951700
  85.7179130  49.8857400  34.1903220  86.6483420  49.9675300  32.9988980
  88.6112170  66.7134320  32.7770390  89.4037490  66.2183550  32.5696350
  88.9045320  67.3924460  33.3846000  84.7371830  57.5855260   3.6586440
  84.6565880  56.6709870   3.3878150  84.3236250  58.0822330   2.9526150
  82.8689870  59.3634280   5.5395710  82.0931970  58.8834720   5.8294280
  83.5202800  58.6839930   5.3651870  76.8855700  59.6754090   6.4171470
  76.0540580  59.4202800   6.8167980  77.4936680  59.7464860   7.1529390
  86.8897300  63.7694470   4.3194840  86.4278830  62.9981710   4.6482010
  87.7022850  63.7960540   4.8247290  76.8656960  63.7094180   6.6129490
  77.1685000  62.8191920   6.4339710  77.6100550  64.2664400   6.3851740
  73.2580660  57.2361630   6.0853560  73.8296770  56.4683830   6.0857200
  73.2582200  57.5350390   5.1760170  83.1160610  66.0552480   3.9398830
  82.4972050  66.5109980   3.3693270  83.9712390  66.2103940   3.5388530
  82.3098860  62.0391470   5.5465870  82.2407140  61.0981410   5.3855000
  83.0718720  62.1292880   6.1188440  74.5005530  52.6445990   7.8722490
  74.3208370  51.7471740   8.1525250  74.0985610  53.1917860   8.5469440
  83.3404030  54.8461850   5.7734800  83.7168850  53.9733730   5.6608470
  83.2423540  55.1820550   4.8825240  87.1228150  52.3412290   2.7063140
  87.9437770  51.8508860   2.7488620  87.1562230  52.9309950   3.4594980
  75.1192200  55.1406490   6.4804830  75.8002310  55.4044860   7.0992230
  74.8040250  54.3007360   6.8142840  79.3116770  56.1873850   5.5677420
  79.8194990  56.6854820   6.2082440  79.8430010  55.4109050   5.3916780
  91.4127700  54.3579040   9.2706770  90.7079870  54.7460750   8.7521880
  91.6785620  55.0529330   9.8727700  77.5952870  50.8272410   9.8340840
  77.5971310  51.3444800   9.0286740  76.7657180  50.3502590   9.8110770
  78.8455720  60.4667590   8.0114340  78.5125100  61.0936510   8.6535410
  79.0222400  60.9929470   7.2316010  87.3589630  54.2812670   5.4790680
  86.6545200  54.5697560   6.0593790  87.7201790  55.0912780   5.1190240
  77.2768200  52.5382370   7.8411290  77.6185010  53.3824420   7.5465160
  76.3384010  52.6866110   7.9576630  78.0574820  62.4348390   9.8263520
  78.6748820  63.1099470   9.5447970  77.1967940  62.8436370   9.7351020
  88.9752410  63.8987800   7.7418160  88.2915930  64.5686910   7.7334830
  89.5146700  64.0968450   6.9763020  90.4276550  53.7267460   5.8699890
  89.4801460  53.7606440   6.0015320  90.7526540  54.5406410   6.2549250
  80.9596090  50.0264640   4.1655880  81.2671070  49.4711530   3.4491380
  80.0296790  50.1609100   3.9828870  86.5111150  65.7431930   6.4563340
  86.5238310  65.3394220   5.5885600  85.9586370  66.5179220   6.3524770
  85.9096590  60.6461770   7.7845950  86.3265380  60.4321880   6.9499410
  86.6336410  60.9034560   8.3554570  89.8558690  59.0448990   7.8762190
  89.0277320  59.1142080   7.4012320  90.4509170  59.6303300   7.4078020
  86.8200700  55.8318310   8.8217060  86.4071880  56.6572020   9.0757050
  86.0876650  55.2463350   8.6293420  78.9533490  58.6178210   3.6835730
  78.5490490  57.9055460   3.1881630  79.0396610  58.2731450   4.5723770
  79.4215190  62.3045770   5.8474940  79.1243480  61.6991240   5.1682720
  80.3715010  62.3423080   5.7364300  77.6662110  55.3921420   7.4634770
  78.2176700  55.5016760   6.6888020  78.1805620  55.7659020   8.1790000
  87.5100800  65.8777640   9.5098040  87.0331360  66.6849830   9.3170650
  86.8262590  65.2255970   9.6624250  78.5133620  62.0427460  12.4982740
  77.6162150  62.2667430  12.7456140  78.5386490  62.1662400  11.5494140
  77.3404840  58.9140780  11.0740110  77.2012610  59.7863580  11.4427510
  76.4586200  58.5713590  10.9288050  83.6634220  63.8316650   2.3805240
  84.1030130  64.5740980   1.9660630  83.6021110  64.0743220   3.3044200
  79.1385190  64.8562480  13.2825260  79.1100620  65.2605430  12.4153690
  78.9750160  63.9272840  13.1196860  91.0900010  65.6389580  14.5789430
  91.5659730  66.1172470  15.2578510  91.7107170  65.5707070  13.8534930
  73.2923490  60.6838330   6.9911020  73.3703910  60.8187100   6.0466740
  73.9065170  59.9754220   7.1839140  74.5371120  62.3838520   3.4017200
  74.1299200  62.5253110   2.5470800  75.4284130  62.0998680   3.1988410
  90.4933260  62.8302430  11.7389440  90.6196320  62.5914310  10.8206620
  90.5354640  61.9986970  12.2111520  84.3550000  66.5330430  10.3084250
  84.8694670  66.4438440  11.1106680  83.5119080  66.8790130  10.6012160
  85.5980460  65.9536040   2.3714740  86.0537410  65.1725420   2.6853360
  85.9372980  66.6642860   2.9155920  90.3457270  54.8834890  12.7039180
  89.7301540  55.3914560  12.1754640  90.0253690  53.9833220  12.6465120
  73.3483010  61.7252500   9.5305480  73.5114050  61.2557860   8.7124850
  73.8135460  61.2176060  10.1954320  78.1201780  50.8558260   4.5666050
  77.6769930  51.6367800   4.2350570  78.6786770  51.1788150   5.2736990
  82.4071590  53.7226780  10.1701370  81.9450960  53.9309800  10.9821310
  82.0049700  52.9086130   9.8672040  87.4076100  54.9435730  11.2998030
  86.5569690  54.6441480  11.6207100  87.2477890  55.1877740  10.3881850
  84.5025810  56.4437480  13.3996820  84.8279220  55.6101230  13.0599050
  85.2906140  56.9666000  13.5475150  80.1577680  51.4005590   6.4255650
  80.4550010  52.3068420   6.3447670  80.7063240  50.9124370   5.8115220
  77.9116000  55.9791830   2.2947300  77.6856920  55.7629000   3.1993920
  77.1308530  56.4120290   1.9493270  80.3515210  56.8777410  12.9607570
  80.2558810  55.9372140  12.8107970  81.1947190  57.0992480  12.5655640
  83.7478630  54.6218740   2.9241230  84.1408200  54.9390940   2.1109920
  84.1095480  53.7430620   3.0385750  75.4825750  53.2891080  11.1141350
  75.0889140  54.1366290  11.3214130  74.7944150  52.6517450  11.3049990
  82.0570800  53.3726050  14.1838090  81.3669120  53.1798250  14.8184180
  82.8003100  53.6560690  14.7162390  72.7842800  51.2119540   5.1471430
  72.4955850  51.7822400   5.8596410  73.5288560  50.7323990   5.5102660
  84.3333770  57.2124490   7.0192010  83.6014890  57.7211300   7.3682110
  83.9358110  56.3954470   6.7180790  80.7711160  53.8878690   5.4244500
  80.7747220  53.4468640   4.5749040  81.6662280  54.2096020   5.5316320
  76.6213540  53.7705180   4.3838710  76.2813590  54.2480410   5.1405760
  75.8590860  53.3170300   4.0239810  84.7959680  52.6658170   6.4314950
  84.8132420  53.1166820   7.2756800  84.5475260  51.7663810   6.6448390
  88.2230430  50.0790350  12.2701330  88.5476200  49.3480010  12.7959310
  88.2586940  49.7603990  11.3682320  74.9221990  61.1003930  11.6901290
  74.5376780  60.4597600  12.2884250  75.2334180  61.8040050  12.2596020
  81.0719130  57.9480470   7.1709910  81.4389260  57.4739040   7.9171250
  80.8824190  58.8222040   7.5118250  73.9359620  52.6924160   3.3003380
  73.6506540  52.3279830   4.1382000  73.8738480  51.9604620   2.6866520
  78.8618500  56.9889110   9.4894120  78.5575570  57.8681090   9.7144480
  79.8164960  57.0488900   9.5251560  88.1488270  60.1915460   5.8787360
  88.8687390  60.6870750   5.4883470  87.9470090  59.5133350   5.2341230
  83.5307070  60.2624520  11.7656360  83.4644380  59.3420190  11.5113950
  82.9012210  60.3599960  12.4801000  77.4337690  60.8630480   3.7239780
  77.9516360  60.0598740   3.6696670  76.9821710  60.8009620   4.5656610
  74.9182230  57.8291850  10.6365480  74.5597170  58.4945700  11.2238820
  74.6236790  56.9975400  11.0078100  78.1195350  58.2876090  13.5205030
  77.8195490  58.4333270  12.6232850  78.8906590  57.7281380  13.4278420
  83.4623800  63.0845090  11.5160160  83.4768340  62.1526050  11.2979070
  82.7548900  63.1704850  12.1549930  89.6735010  59.7252430  10.8628740
  88.9483200  60.3181210  10.6658130  90.2010470  59.7175970  10.0642110
  85.2034600  61.4512600   4.3612590  85.5558420  60.8540730   3.7013960
  84.3196930  61.1256830   4.5320840  81.2897880  62.2110290   1.7683000
  81.9769010  62.7579500   2.1490590  80.5030300  62.7551020   1.8032610
  82.8957700  64.7262660   8.6100660  83.5399920  64.9322040   9.2874080
  83.2587140  63.9651060   8.1571510  84.1689780  62.7295010   7.3278110
  84.8112010  62.0288170   7.4410280  84.6939130  63.5093450   7.1475000
  85.9427400  63.5289910  10.5314170  86.2783640  64.1156600  11.2092090
  85.0227740  63.3982620  10.7611960  73.4930800  51.3185090  11.3137580
  72.7789320  51.5182010  11.9190190  73.9125840  50.5424660  11.6852380
  73.7803390  65.3065350  12.3004110  73.8894510  64.3660090  12.1599500
  73.1283950  65.5720100  11.6517840  81.7715980  63.5781240  13.7002230
  81.4512850  62.8590480  14.2447920  81.0974340  64.2536310  13.7738290
  84.9869580  53.8107400   9.0639030  85.3550400  52.9902610   9.3918600
  84.1267780  53.8709290   9.4794680  81.9471570  56.4646990   9.2877000
  82.4456820  56.9392810   9.9528850  82.0894520  55.5410510   9.4947030
  84.3531070  51.7700950   2.7280260  84.2298850  51.7887080   1.7789770
  85.3015630  51.8179890   2.8478660  89.1538430  52.6814950  10.1305390
  88.6512030  53.4220350  10.4699200  89.9695090  53.0698950   9.8142180
  87.4460440  57.9248130   3.5766750  86.5050580  57.9398360   3.7514440
  87.7604510  57.1384090   4.0227050  89.4486020  65.0956980   5.2521010
  89.5733440  65.9188150   5.7244820  90.3151580  64.8847710   4.9045160
  76.9203550  67.1888190   4.9238140  77.6566030  66.6403650   5.1946710
  77.3044470  68.0544200   4.7844130  75.9261830  66.3734260  14.1123720
  76.7274560  66.6946310  14.5259120  75.4113650  66.0129840  14.8343630
  84.7626460  62.4814130  14.0599130  84.1564620  62.5045730  13.3194880
  84.4580570  61.7497170  14.5966380  86.1926830  66.2094420  12.6708540
  87.1448580  66.1252440  12.6208780  86.0455050  66.8736130  13.3442330
  73.6459640  58.8607720  13.0559770  74.1498660  58.2815000  13.6276000
  72.9067060  59.1447950  13.5936140  80.6997580  60.2678710  12.5895290
  79.9343250  60.8363710  12.5049960  80.8813540  59.9754920  11.6963520
  87.8420930  61.9984040  13.1470310  88.5830400  62.3359800  12.6437770
  87.0793610  62.1676100  12.5940080  75.6782720  57.0037310  13.9509840
  75.7188060  56.7051180  14.8595070  76.5328220  57.4044920  13.7917360
  77.6188530  55.5829410  11.9184330  77.0884990  55.0920360  11.2907670
  78.2876600  56.0113610  11.3842260  86.5166590  60.0498870  11.6825520
  86.9307610  60.2043950  12.5315940  85.5817590  60.1754090  11.8451300
  86.9888760  57.3895030  13.6864670  87.5709530  56.6347350  13.5985150
  87.1650530  57.9202470  12.9096150  78.1060830  52.5491780  11.9981620
  78.0117700  51.9312530  11.2732490  77.5258220  53.2758070  11.7711530
  80.8722270  51.1065020   9.0309010  80.4239570  51.1289280   8.1854560
  80.2387470  50.7084040   9.6279310  81.2781820  60.0019350   9.6521450
  81.6969930  60.8452080   9.4797690  80.3590450  60.1391390   9.4228230
  83.6145720  57.7335530  11.0359290  83.7341930  57.1376670  11.7754130
  84.4739720  57.7705220  10.6160590  85.9533620  58.2872720   9.6121800
  85.4268840  58.8115340   9.0086940  86.2964960  58.9200110  10.2431530
  79.1289240  66.3072360  10.7679180  78.5910330  67.0318420  10.4487880
  79.3823200  65.8302700   9.9776520  80.3814490  54.2756880  12.2935110
  80.9714180  53.9672730  12.9812930  79.5634730  53.8036630  12.4495010
  85.2007920  53.8922690  12.5268130  84.5123440  53.2304230  12.4618120
  85.9213940  53.4460960  12.9716590  81.9851450  67.5423570  11.0265830
  81.9110150  68.4458710  11.3338200  81.0830290  67.2235470  10.9987900
  73.3878740  64.8698160   4.3299450  73.7181750  64.0019220   4.0978090
  73.8169740  65.0756680   5.1604410  73.8768950  65.7368750   7.0681080
  73.4399940  65.9169550   7.9005230  74.4446630  66.4943370   6.9262800
  89.5131130  65.2385750  11.3558390  88.9133120  65.2978310  10.6122310
  89.6425030  64.2990730  11.4855240  73.7093380  58.2488980   3.4269960
  73.0542220  57.9800620   2.7829660  74.5471330  58.1393460   2.9771940
  91.2149010  60.5801150   4.0404230  91.5857840  59.7968470   3.6340200
  91.8550940  61.2690250   3.8621530  88.1982770  61.9637730   9.4534550
  87.3842610  62.3934890   9.7160340  88.6056970  62.5756140   8.8403600
  74.7469310  58.6341550   7.9673300  75.1142350  58.5468950   8.8469320
  74.1780130  57.8708100   7.8680160  89.5473170  57.1025930  10.9803770
  89.3159260  56.8738680  10.0801720  89.8077720  58.0225480  10.9348660
  74.2985310  55.5450640  11.8731720  73.4041360  55.5117400  12.2125430
  74.8382860  55.7437430  12.6382970  87.9861240  52.3282360  13.7583470
  88.8631420  52.3365760  14.1417470  87.9982080  51.5913200  13.1475820
  89.4324510  56.1811900   4.6471490  89.9561990  55.6874550   4.0161660
  90.0183930  56.3162260   5.3919060  89.6114230  56.2651770   8.1691040
  88.6616940  56.2315310   8.2836030  89.7927240  57.1751880   7.9340810
  74.8025020  49.8198970   6.2214940  75.4501210  49.2696350   5.7810100
  75.2226860  50.0742120   7.0430750  90.3511640  54.0746200   3.1201580
  90.2410920  53.9202240   4.0583850  91.1119230  53.5467140   2.8776990
  88.6977360  50.0140330   9.5784580  89.3349580  50.6274470   9.9443770
  88.8452250  50.0500990   8.6333810  88.2558820  66.7156330   2.9802820
  88.8517890  66.3940900   2.3037240  88.5136970  66.2428150   3.7716090
  74.5557020  49.9754640   8.9640260  74.2071840  50.4318460   9.7298440
  74.2244720  49.0811770   9.0462690  76.1621390  63.1474240  13.1293450
  76.1191020  62.7767150  14.0107910  76.2932400  64.0851810  13.2695270
  79.8627420  64.7033830   8.7303170  79.6218780  64.9708390   7.8433690
  80.8030060  64.8739560   8.7854030  82.0681840  51.1666520  12.4859680
  82.0070730  51.7588350  13.2355090  83.0082220  51.0592480  12.3409940
  84.7056400  50.8236580  12.1251970  85.3196810  51.1415870  11.4633050
  85.2505960  50.3385170  12.7447830  91.1231580  66.7228210   9.5313810
  90.6289860  67.1197080   8.8140940  90.5144870  66.0977420   9.9251090
  75.2277660  49.5030840  12.2391030  75.7760650  49.3218890  11.4757140
  75.2932970  48.7124950  12.7747340  76.0009420  66.0936490  10.2491230
  75.4069740  65.9621190  10.9881270  75.9933260  65.2574630   9.7833330
  85.4464440  49.3868720   8.4521260  84.5724280  49.7203830   8.2494190
  85.3375190  48.9141900   9.2773130  86.3536420  51.5939590   9.8362980
  86.0249780  50.7791350   9.4564710  87.3018720  51.5509400   9.7128670
  88.8071030  67.3651630   6.8100550  88.3474000  68.1167440   6.4358570
  88.1783490  66.6458100   6.7515350  75.6321650  63.4594870   9.1999270
  74.9055710  62.8400160   9.1325220  75.6930800  63.8535480   8.3297350
  79.2366750  65.6739870   5.9848680  79.7531770  65.0627230   5.4596940
  79.8864130  66.1768650   6.4759690  81.9762250  66.5648360   6.8117660
  82.2640060  66.3102660   5.9350670  82.4885470  66.0125720   7.4023230
  83.1939260  50.3038560   7.3914170  82.4111050  50.7784060   7.6710930
  82.9002190  49.3993390   7.2827350  87.7460330  51.0061660   5.4363260
  88.1868420  50.9506760   4.5884860  87.4767920  51.9219670   5.5073440
  89.6098900  50.6376900   3.4472080  89.5487300  49.6938120   3.3003100
  90.3890930  50.7456990   3.9925540  73.9151650  66.7769260   2.4096030
  73.7473690  66.1439940   3.1077920  73.0486160  66.9828660   2.0590220
  81.0793480  52.7225310   2.9030200  80.2667990  52.3482200   2.5626080
  81.5835120  51.9670390   3.2051390  85.5818460  49.3867760   4.1413270
  86.1847830  49.9587970   4.6161790  84.8411450  49.9507200   3.9187170
  82.0434610  67.4864460  14.1785860  82.9701920  67.2508730  14.2221820
  82.0285040  68.3136460  13.6971890  79.2298220  50.1509210  13.9427740
  78.9482490  50.6542810  13.1788560  79.6117920  49.3530960  13.5769870
  85.8313680  49.5662790  14.5208210  85.7179130  49.8857400  15.4159730
  86.6483420  49.9675300  14.2245490  88.6112170  66.7134320  14.0026900
  89.4037490  66.2183550  13.7952860  88.9045320  67.3924460  14.6102510
  84.7371830  38.8111770  97.5303890  84.6565880  37.8966380  97.2595600
  84.3236250  39.3078840  96.8243600  82.8689870  40.5890790  99.4113160
  82.0931970  40.1091230  99.7011730  83.5202800  39.9096440  99.2369320
  76.8855700  40.9010600 100.2888920  76.0540580  40.6459310 100.6885430
  77.4936680  40.9721370 101.0246840  86.8897300  44.9950980  98.1912290
  86.4278830  44.2238220  98.5199460  87.7022850  45.0217050  98.6964740
  76.8656960  44.9350690 100.4846940  77.1685000  44.0448430 100.3057160
  77.6100550  45.4920910 100.2569190  75.2947650  35.8612490  94.0731310
  74.4064350  36.2028460  93.9711190  75.5788840  35.6612810  93.1812140
  73.2580660  38.4618140  99.9571010  73.8296770  37.6940340  99.9574650
  73.2582200  38.7606900  99.0477620  83.1160610  47.2808990  97.8116280
  82.4972050  47.7366490  97.2410720  83.9712390  47.4360450  97.4105980
  82.3098860  43.2647980  99.4183320  82.2407140  42.3237920  99.2572450
  83.0718720  43.3549390  99.9905890  74.5005530  33.8702500 101.7439940
  74.3208370  32.9728250 102.0242700  74.0985610  34.4174370 102.4186890
  83.3404030  36.0718360  99.6452250  83.7168850  35.1990240  99.5325920
  83.2423540  36.4077060  98.7542690  77.4709040  34.4443990  95.1069690
  77.5775790  35.3447720  95.4138450  76.5601400  34.3961960  94.8164340
  87.1228150  33.5668800  96.5780590  87.9437770  33.0765370  96.6206070
  87.1562230  34.1566460  97.3312430  75.1192200  36.3663000 100.3522280
  75.8002310  36.6301370 100.9709680  74.8040250  35.5263870 100.6860290
  79.3116770  37.4130360  99.4394870  79.8194990  37.9111330 100.0799890
  79.8430010  36.6365560  99.2634230  83.9823960  42.1648230  95.2048190
  83.3641230  42.6297680  94.6410910  84.4947210  42.8575710  95.6217700
  78.8455720  41.6924100 101.8831790  78.5125100  42.3193020 102.5252860
  79.0222400  42.2185980 101.1033460  87.3589630  35.5069180  99.3508130
  86.6545200  35.7954070  99.9311240  87.7201790  36.3169290  98.9907690
  77.2768200  33.7638880 101.7128740  77.6185010  34.6080930 101.4182610
  76.3384010  33.9122620 101.8294080  73.3507160  42.8504760  92.5787820
  72.9735140  43.3391860  91.8472720  73.6080230  43.5230040  93.2094350
  88.9752410  45.1244310 101.6135610  88.2915930  45.7943420 101.6052280
  89.5146700  45.3224960 100.8480470  90.4276550  34.9523970  99.7417340
  89.4801460  34.9862950  99.8732770  90.7526540  35.7662920 100.1266700
  80.9596090  31.2521150  98.0373330  81.2671070  30.6968040  97.3208830
  80.0296790  31.3865610  97.8546320  86.5111150  46.9688440 100.3280790
  86.5238310  46.5650730  99.4603050  85.9586370  47.7435730 100.2242220
  87.8056570  43.6904660  95.4170960  87.6952900  42.7478990  95.5420380
  87.8024820  44.0520300  96.3033720  85.9096590  41.8718280 101.6563400
  86.3265380  41.6578390 100.8216860  86.6336410  42.1291070 102.2272020
  83.3476850  39.3169980  94.7733450  82.4206130  39.2507360  95.0021920
  83.5001670  40.2550110  94.6588690  83.3345930  35.5886980  91.7700610
  82.3949600  35.7500940  91.8553070  83.6529190  36.3072660  91.2236600
  89.8558690  40.2705500 101.7479640  89.0277320  40.3398590 101.2729770
  90.4509170  40.8559810 101.2795470  87.3774140  40.8790280  95.2768700
  86.7586560  40.5409830  94.6295000  87.3598590  40.2350040  95.9847890
  78.9533490  39.8434720  97.5553180  78.5490490  39.1311970  97.0599080
  79.0396610  39.4987960  98.4441220  79.4215190  43.5302280  99.7192390
  79.1243480  42.9247750  99.0400170  80.3715010  43.5679590  99.6081750
  77.6662110  36.6177930 101.3352220  78.2176700  36.7273270 100.5605470
  78.1805620  36.9915530 102.0507450  85.5538840  40.1177090  92.2841450
  85.9932120  39.2799520  92.1379270  86.2667260  40.7506490  92.3705590
  83.6634220  45.0573160  96.2522690  84.1030130  45.7997490  95.8378080
  83.6021110  45.2999730  97.1761650  89.1355980  31.3719900  90.5982490
  88.8228640  31.4646730  91.4981560  89.8968450  31.9500930  90.5479920
  75.6538120  38.7379700  95.0559830  75.5335720  39.4641790  94.4441100
  75.3439010  37.9682610  94.5787740  73.2923490  41.9094840 100.8628470
  73.3703910  42.0443610  99.9184190  73.9065170  41.2010730 101.0556590
  74.5371120  43.6095030  97.2734650  74.1299200  43.7509620  96.4188250
  75.4284130  43.3255190  97.0705860  86.3304400  48.0442280  93.6085700
  86.1705540  47.7545220  94.5067530  86.1651110  47.2682410  93.0730930
  78.8092780  47.8240810  95.3857320  78.6335260  46.9076350  95.1725120
  77.9548520  48.1828100  95.6255120  86.0330530  45.5529840  92.1683700
  85.3395690  45.5507130  91.5085980  86.7753390  45.1289160  91.7377870
  85.5980460  47.1792550  96.2432190  86.0537410  46.3981930  96.5570810
  85.9372980  47.8899370  96.7873370  78.1201780  32.0814770  98.4383500
  77.6769930  32.8624310  98.1068020  78.6786770  32.4044660  99.1454440
  81.2360600  31.7025470  93.3189330  80.6114780  31.6985340  94.0442640
  81.1490720  30.8356430  92.9225300  80.1577680  32.6262100 100.2973100
  80.4550010  33.5324930 100.2165120  80.7063240  32.1380880  99.6832670
  77.9116000  37.2048340  96.1664750  77.6856920  36.9885510  97.0711370
  77.1308530  37.6376800  95.8210720  85.1413760  37.2111710  94.7655400
  84.5422650  37.9347510  94.5819020  85.6893370  37.1488490  93.9831850
  83.7478630  35.8475250  96.7958680  84.1408200  36.1647450  95.9827370
  84.1095480  34.9687130  96.9103200  72.7842800  32.4376050  99.0188880
  72.4955850  33.0078910  99.7313860  73.5288560  31.9580500  99.3820110
  72.9713030  36.3796170  90.2291600  72.8887700  37.3226930  90.3706590
  72.6196090  36.2371080  89.3503950  84.3333770  38.4381000 100.8909460
  83.6014890  38.9467810 101.2399560  83.9358110  37.6210980 100.5898240
  80.7711160  35.1135200  99.2961950  80.7747220  34.6725150  98.4466490
  81.6662280  35.4352530  99.4033770  76.6213540  34.9961690  98.2556160
  76.2813590  35.4736920  99.0123210  75.8590860  34.5426810  97.8957260
  80.8331310  36.1147280  92.2868710  80.9544130  36.0733760  93.2354530
  80.4479820  36.9771430  92.1315440  84.7959680  33.8914680 100.3032400
  84.8132420  34.3423330 101.1474250  84.5475260  32.9920320 100.5165840
  79.8452810  38.4248420  91.6852010  79.2769710  37.9766670  91.0587920
  80.5541810  38.7841200  91.1517160  81.0719130  39.1736980 101.0427360
  81.4389260  38.6995550 101.7888700  80.8824190  40.0478550 101.3835700
  73.9359620  33.9180670  97.1720830  73.6506540  33.5536340  98.0099450
  73.8738480  33.1861130  96.5583970  77.3900290  42.4206610  93.9578420
  76.6162550  41.8804230  93.7977140  78.1194920  41.9013220  93.6196180
  88.1488270  41.4171970  99.7504810  88.8687390  41.9127260  99.3600920
  87.9470090  40.7389860  99.1058680  83.6098210  32.8109930  93.8934200
  82.7962820  32.3123100  93.8179510  83.4160160  33.6508180  93.4770550
  86.3246600  37.1829580  92.1896360  87.2126220  37.4946810  92.0147700
  86.2951690  36.3101830  91.7976940  77.4337690  42.0886990  97.5957230
  77.9516360  41.2855250  97.5414120  76.9821710  42.0266130  98.4374060
  82.3207190  43.3553270  92.8684530  82.6622890  44.0995500  92.3727850
  81.4919900  43.6684390  93.2309360  88.5960870  38.4941420  91.6576220
  88.5124590  38.9255640  90.8072660  89.3155060  38.9539770  92.0903040
  89.6248120  45.3483680  94.3858350  88.9824280  44.6939300  94.6602070
  89.2378780  45.7538770  93.6099020  85.2034600  42.6769110  98.2330040
  85.5558420  42.0797240  97.5731410  84.3196930  42.3513340  98.4038290
  81.2897880  43.4366800  95.6400450  81.9769010  43.9836010  96.0208040
  80.5030300  43.9807530  95.6750060  73.4290280  39.0539620  91.1317530
  74.2985130  39.3364420  91.4153450  72.9380600  39.8675490  91.0166340
  80.5925090  40.4412830  95.2525810  81.0487870  41.2518080  95.4786000
  80.2413300  40.1235970  96.0844300  76.4936870  30.7850480  95.7248330
  76.3651500  30.7768380  96.6733250  75.6698890  31.1233570  95.3739340
  84.1689780  43.9551520 101.1995560  84.8112010  43.2544680 101.3127730
  84.6939130  44.7349960 101.0192450  88.0145500  44.2400140  90.9234700
  87.7883080  43.5230580  91.5159340  87.6241700  43.9912580  90.0856450
  73.7961530  48.2667000  91.6979160  74.1559170  48.8656340  91.0436430
  73.6553870  48.8126890  92.4714190  87.5961750  42.1572080  92.5848860
  87.3083450  42.6184770  93.3726740  88.3913920  41.6969850  92.8533080
  79.8130150  45.6498200  92.5152830  79.8040250  46.3827890  91.8997340
  78.8928510  45.4029780  92.6079790  75.4136790  40.8713090  93.2599590
  74.8064740  41.6111990  93.2694890  75.8886140  40.9612450  92.4337790
  88.3531610  33.9920850  93.7444040  87.7244770  34.0966520  93.0302270
  87.8583530  34.2117630  94.5337920  82.7989750  45.7126440  91.1778020
  82.9001730  45.5090430  90.2480000  81.8991490  45.4584720  91.3825800
  80.3215640  36.2706800  95.1601920  79.6131790  36.7393140  95.6015530
  80.6060120  35.6128810  95.7947110  84.3531070  32.9957460  96.5997710
  84.2298850  33.0143590  95.6507220  85.3015630  33.0436400  96.7196110
  81.4407860  48.2312760  95.8725690  81.6949360  48.1934150  94.9505060
  80.4920340  48.1046090  95.8653940  78.5250660  34.5791880  92.5352630
  79.3741190  35.0162030  92.4692820  78.1581930  34.8912140  93.3624690
  87.4460440  39.1504640  97.4484200  86.5050580  39.1654870  97.6231890
  87.7604510  38.3640600  97.8944500  77.4242080  40.8324240  91.0088160
  78.1905350  40.7205600  91.5713590  77.5016770  40.1362210  90.3564930
  76.1188840  38.2649310  91.6921050  76.1992430  37.3176820  91.8038450
  77.0108590  38.5956190  91.7981710  89.4486020  46.3213490  99.1238460
  89.5733440  47.1444660  99.5962270  90.3151580  46.1104220  98.7762610
  76.9203550  48.4144700  98.7955590  77.6566030  47.8660160  99.0664160
  77.3044470  49.2800710  98.6561580  73.8049030  44.4818270  94.6697100
  72.8788810  44.7239410  94.6602510  74.2705460  45.3092530  94.5481850
  80.0305860  47.5875010  90.6181160  80.8234470  47.8763840  90.1662950
  79.5110210  47.1567180  89.9393640  89.0836030  46.8145140  92.0417900
  88.7977540  46.4010280  91.2272080  88.8855580  47.7432850  91.9218420
  80.5483260  42.8078420  90.4823510  80.4433900  42.1930770  91.2084890
  80.3807480  42.2844310  89.6986520  83.7885990  41.8698450  91.0865500
  83.2396090  42.3167750  91.7308240  84.4105250  41.3647700  91.6103170
  79.4561110  40.8289370  92.9830800  79.8777530  40.6629240  93.8262190
  79.5811950  40.0189600  92.4885940  81.9688750  39.8526980  90.2307900
  82.4894410  39.1376000  89.8649050  82.6157150  40.4912850  90.5308410
  78.3520010  36.9022600  89.9288960  78.1509070  36.0389960  90.2902300
  78.1812060  36.8155960  88.9910560  85.8308320  31.7130830  92.4575840
  86.1110610  30.8698730  92.8135260  85.0574050  31.9453940  92.9714590
  77.1502810  34.0023220  89.9166840  77.4528710  34.0090650  89.0085990
  77.8897400  33.6521080  90.4134500  80.3687740  32.9457840  90.9023040
  80.0209740  32.2681830  90.3225490  80.5700510  32.4847350  91.7166430
  82.5336780  47.9338590  92.5209640  83.4287570  48.2723560  92.5428400
  82.5654410  47.2118000  91.8933920  76.1732940  43.3065640  90.7496640
  76.6107810  43.8495310  91.4054220  76.6580670  42.4812590  90.7592980
  73.3878740  46.0954670  98.2016900  73.7181750  45.2275730  97.9695540
  73.8169740  46.3013190  99.0321860  77.9840660  44.4263680  95.8618870
  77.6836200  44.3028650  96.7622780  77.8778150  43.5672270  95.4534600
  73.8768950  46.9625260 100.9398530  73.4399940  47.1426060 101.7722680
  74.4446630  47.7199880 100.7980250  90.7532580  44.2060080  90.5645550
  89.9225540  44.2736730  91.0352780  90.9304410  45.0964200  90.2612410
  90.2089040  40.9507560  93.0679750  90.9707950  41.5204210  93.1739440
  90.2243410  40.3834760  93.8388060  73.7093380  39.4745490  97.2987410
  73.0542220  39.2057130  96.6547110  74.5471330  39.3649970  96.8489390
  91.2149010  41.8057660  97.9121680  91.5857840  41.0224980  97.5057650
  91.8550940  42.4946760  97.7338980  90.2608210  41.2441930  90.2252270
  90.5357050  42.1520810  90.0971490  90.0718950  41.1804460  91.1614260
  86.6583820  34.2686780  91.5205900  87.0768700  34.0817760  90.6802560
  86.3519880  33.4165830  91.8308830  90.1573550  39.1810920  95.2181700
  89.7817150  38.4138850  94.7862990  89.4276670  39.5633620  95.7056630
  74.7469310  39.8598060 101.8390750  75.1142350  39.7725460 102.7186770
  74.1780130  39.0964610 101.7397610  72.9231460  36.6844420  93.2412740
  72.0195540  36.9474620  93.0664400  73.4072080  36.9555590  92.4612700
  89.4324510  37.4068410  98.5188940  89.9561990  36.9131060  97.8879110
  90.0183930  37.5418770  99.2636510  89.6114230  37.4908280 102.0408490
  88.6616940  37.4571820 102.1553480  89.7927240  38.4008390 101.8058260
  75.4658670  35.7409960  91.1507120  76.1750370  35.3193180  90.6654400
  74.7498610  35.8085190  90.5190470  75.1132830  31.7949290  90.1909770
  75.8360960  32.3358230  90.5090990  75.3857350  31.5212710  89.3151310
  88.9224480  36.6641760  94.4581350  89.4183600  36.4312630  95.2430230
  88.7240550  35.8253600  94.0418990  74.8025020  31.0455480 100.0932390
  75.4501210  30.4952860  99.6527550  75.2226860  31.2998630 100.9148200
  90.3511640  35.3002710  96.9919030  90.2410920  35.1458750  97.9301300
  91.1119230  34.7723650  96.7494440  91.2401910  33.1310630  90.2325170
  92.1651220  32.9991810  90.0243460  91.2177700  33.2103450  91.1861620
  91.3140400  33.9021290  92.8581880  90.5191900  33.8366410  93.3874790
  91.5183680  34.8371930  92.8467230  88.2558820  47.9412840  96.8520270
  88.8517890  47.6197410  96.1754690  88.5136970  47.4684660  97.6433540
  79.8627420  45.9290340 102.6020620  79.6218780  46.1964900 101.7151140
  80.8030060  46.0996070 102.6571480  88.8071030  48.5908140 100.6818000
  88.3474000  49.3423950 100.3076020  88.1783490  47.8714610 100.6232800
  79.2366750  46.8996380  99.8566130  79.7531770  46.2883740  99.3314390
  79.8864130  47.4025160 100.3477140  81.9762250  47.7904870 100.6835110
  82.2640060  47.5359170  99.8068120  82.4885470  47.2382230 101.2740680
  83.1939260  31.5295070 101.2631620  82.4111050  32.0040570 101.5428380
  82.9002190  30.6249900 101.1544800  87.7460330  32.2318170  99.3080710
  88.1868420  32.1763270  98.4602310  87.4767920  33.1476180  99.3790890
  89.6098900  31.8633410  97.3189530  89.5487300  30.9194630  97.1720550
  90.3890930  31.9713500  97.8642990  73.9151650  48.0025770  96.2813480
  73.7473690  47.3696450  96.9795370  73.0486160  48.2085170  95.9307670
  74.5379670  31.8342550  93.7845340  75.2959030  31.9471430  93.2109370
  74.0756840  32.6711750  93.7388770  81.0793480  33.9481820  96.7747650
  80.2667990  33.5738710  96.4343530  81.5835120  33.1926900  97.0768840
  85.5818460  30.6124270  98.0130720  86.1847830  31.1844480  98.4879240
  84.8411450  31.1763710  97.7904620  88.7253060  31.0145830  93.2871000
  88.9203690  31.9129280  93.5538430  87.9382930  30.7832910  93.7803950
  75.5214350  46.6959000  93.7263620  74.9961970  47.0767030  93.0225580
  75.4458930  47.3209770  94.4473330  76.9104820  32.3606600  92.3247310
  77.4397580  31.5736400  92.1955260  77.5433140  33.0397790  92.5582840
  79.1042660  32.0981740  95.3792700  78.4745400  31.3969050  95.5462830
  78.5647800  32.8585870  95.1625860  90.2779670  48.2546540  95.0477560
  90.4531860  47.5684280  94.4038480  89.5801240  48.7793590  94.6554230
  78.1207320  48.6441380  92.6012870  78.8526140  48.3600660  92.0536760
  78.3800990  48.4054660  93.4912250  77.2822110  44.7606110  92.6059200
  76.6530990  45.2291210  93.1545030  77.3969940  43.9155330  93.0405390
  84.7371830  38.8111770  78.7560400  84.6565880  37.8966380  78.4852110
  84.3236250  39.3078840  78.0500110  82.8689870  40.5890790  80.6369670
  82.0931970  40.1091230  80.9268240  83.5202800  39.9096440  80.4625830
  76.8855700  40.9010600  81.5145430  76.0540580  40.6459310  81.9141940
  77.4936680  40.9721370  82.2503350  86.8897300  44.9950980  79.4168800
  86.4278830  44.2238220  79.7455970  87.7022850  45.0217050  79.9221250
  76.8656960  44.9350690  81.7103450  77.1685000  44.0448430  81.5313670
  77.6100550  45.4920910  81.4825700  73.2580660  38.4618140  81.1827520
  73.8296770  37.6940340  81.1831160  73.2582200  38.7606900  80.2734130
  83.1160610  47.2808990  79.0372790  82.4972050  47.7366490  78.4667230
  83.9712390  47.4360450  78.6362490  82.3098860  43.2647980  80.6439830
  82.2407140  42.3237920  80.4828960  83.0718720  43.3549390  81.2162400
  74.5005530  33.8702500  82.9696450  74.3208370  32.9728250  83.2499210
  74.0985610  34.4174370  83.6443400  83.3404030  36.0718360  80.8708760
  83.7168850  35.1990240  80.7582430  83.2423540  36.4077060  79.9799200
  87.1228150  33.5668800  77.8037100  87.9437770  33.0765370  77.8462580
  87.1562230  34.1566460  78.5568940  75.1192200  36.3663000  81.5778790
  75.8002310  36.6301370  82.1966190  74.8040250  35.5263870  81.9116800
  79.3116770  37.4130360  80.6651380  79.8194990  37.9111330  81.3056400
  79.8430010  36.6365560  80.4890740  91.4127700  35.5835550  84.3680730
  90.7079870  35.9717260  83.8495840  91.6785620  36.2785840  84.9701660
  77.5952870  32.0528920  84.9314800  77.5971310  32.5701310  84.1260700
  76.7657180  31.5759100  84.9084730  83.9823960  42.1648230  76.4304700
  83.3641230  42.6297680  75.8667420  84.4947210  42.8575710  76.8474210
  78.8455720  41.6924100  83.1088300  78.5125100  42.3193020  83.7509370
  79.0222400  42.2185980  82.3289970  87.3589630  35.5069180  80.5764640
  86.6545200  35.7954070  81.1567750  87.7201790  36.3169290  80.2164200
  77.2768200  33.7638880  82.9385250  77.6185010  34.6080930  82.6439120
  76.3384010  33.9122620  83.0550590  78.0574820  43.6604900  84.9237480
  78.6748820  44.3355980  84.6421930  77.1967940  44.0692880  84.8324980
  73.3507160  42.8504760  73.8044330  72.9735140  43.3391860  73.0729230
  73.6080230  43.5230040  74.4350860  88.9752410  45.1244310  82.8392120
  88.2915930  45.7943420  82.8308790  89.5146700  45.3224960  82.0736980
  90.4276550  34.9523970  80.9673850  89.4801460  34.9862950  81.0989280
  90.7526540  35.7662920  81.3523210  80.9596090  31.2521150  79.2629840
  81.2671070  30.6968040  78.5465340  80.0296790  31.3865610  79.0802830
  86.5111150  46.9688440  81.5537300  86.5238310  46.5650730  80.6859560
  85.9586370  47.7435730  81.4498730  87.8056570  43.6904660  76.6427470
  87.6952900  42.7478990  76.7676890  87.8024820  44.0520300  77.5290230
  85.9096590  41.8718280  82.8819910  86.3265380  41.6578390  82.0473370
  86.6336410  42.1291070  83.4528530  83.3476850  39.3169980  75.9989960
  82.4206130  39.2507360  76.2278430  83.5001670  40.2550110  75.8845200
  83.3345930  35.5886980  72.9957120  82.3949600  35.7500940  73.0809580
  83.6529190  36.3072660  72.4493110  89.8558690  40.2705500  82.9736150
  89.0277320  40.3398590  82.4986280  90.4509170  40.8559810  82.5051980
  87.3774140  40.8790280  76.5025210  86.7586560  40.5409830  75.8551510
  87.3598590  40.2350040  77.2104400  86.8200700  37.0574820  83.9191020
  86.4071880  37.8828530  84.1731010  86.0876650  36.4719860  83.7267380
  78.9533490  39.8434720  78.7809690  78.5490490  39.1311970  78.2855590
  79.0396610  39.4987960  79.6697730  79.4215190  43.5302280  80.9448900
  79.1243480  42.9247750  80.2656680  80.3715010  43.5679590  80.8338260
  77.6662110  36.6177930  82.5608730  78.2176700  36.7273270  81.7861980
  78.1805620  36.9915530  83.2763960  87.5100800  47.1034150  84.6072000
  87.0331360  47.9106340  84.4144610  86.8262590  46.4512480  84.7598210
  78.5133620  43.2683970  87.5956700  77.6162150  43.4923940  87.8430100
  78.5386490  43.3918910  86.6468100  85.5538840  40.1177090  73.5097960
  85.9932120  39.2799520  73.3635780  86.2667260  40.7506490  73.5962100
  77.3404840  40.1397290  86.1714070  77.2012610  41.0120090  86.5401470
  76.4586200  39.7970100  86.0262010  83.6634220  45.0573160  77.4779200
  84.1030130  45.7997490  77.0634590  83.6021110  45.2999730  78.4018160
  79.1385190  46.0818990  88.3799220  79.1100620  46.4861940  87.5127650
  78.9750160  45.1529350  88.2170820  89.1355980  31.3719900  71.8239000
  88.8228640  31.4646730  72.7238070  89.8968450  31.9500930  71.7736430
  75.6538120  38.7379700  76.2816340  75.5335720  39.4641790  75.6697610
  75.3439010  37.9682610  75.8044250  91.0900010  46.8646090  89.6763390
  91.5659730  47.3428980  90.3552470  91.7107170  46.7963580  88.9508890
  73.2923490  41.9094840  82.0884980  73.3703910  42.0443610  81.1440700
  73.9065170  41.2010730  82.2813100  74.5371120  43.6095030  78.4991160
  74.1299200  43.7509620  77.6444760  75.4284130  43.3255190  78.2962370
  90.4933260  44.0558940  86.8363400  90.6196320  43.8170820  85.9180580
  90.5354640  43.2243480  87.3085480  84.3550000  47.7586940  85.4058210
  84.8694670  47.6694950  86.2080640  83.5119080  48.1046640  85.6986120
  86.3304400  48.0442280  74.8342210  86.1705540  47.7545220  75.7324040
  86.1651110  47.2682410  74.2987440  78.8092780  47.8240810  76.6113830
  78.6335260  46.9076350  76.3981630  77.9548520  48.1828100  76.8511630
  86.0330530  45.5529840  73.3940210  85.3395690  45.5507130  72.7342490
  86.7753390  45.1289160  72.9634380  85.5980460  47.1792550  77.4688700
  86.0537410  46.3981930  77.7827320  85.9372980  47.8899370  78.0129880
  90.3457270  36.1091400  87.8013140  89.7301540  36.6171070  87.2728600
  90.0253690  35.2089730  87.7439080  73.3483010  42.9509010  84.6279440
  73.5114050  42.4814370  83.8098810  73.8135460  42.4432570  85.2928280
  78.1201780  32.0814770  79.6640010  77.6769930  32.8624310  79.3324530
  78.6786770  32.4044660  80.3710950  82.4071590  34.9483290  85.2675330
  81.9450960  35.1566310  86.0795270  82.0049700  34.1342640  84.9646000
  87.4076100  36.1692240  86.3971990  86.5569690  35.8697990  86.7181060
  87.2477890  36.4134250  85.4855810  84.5025810  37.6693990  88.4970780
  84.8279220  36.8357740  88.1573010  85.2906140  38.1922510  88.6449110
  81.2360600  31.7025470  74.5445840  80.6114780  31.6985340  75.2699150
  81.1490720  30.8356430  74.1481810  80.1577680  32.6262100  81.5229610
  80.4550010  33.5324930  81.4421630  80.7063240  32.1380880  80.9089180
  77.9116000  37.2048340  77.3921260  77.6856920  36.9885510  78.2967880
  77.1308530  37.6376800  77.0467230  85.1413760  37.2111710  75.9911910
  84.5422650  37.9347510  75.8075530  85.6893370  37.1488490  75.2088360
  80.3515210  38.1033920  88.0581530  80.2558810  37.1628650  87.9081930
  81.1947190  38.3248990  87.6629600  83.7478630  35.8475250  78.0215190
  84.1408200  36.1647450  77.2083880  84.1095480  34.9687130  78.1359710
  75.4825750  34.5147590  86.2115310  75.0889140  35.3622800  86.4188090
  74.7944150  33.8773960  86.4023950  82.0570800  34.5982560  89.2812050
  81.3669120  34.4054760  89.9158140  82.8003100  34.8817200  89.8136350
  72.7842800  32.4376050  80.2445390  72.4955850  33.0078910  80.9570370
  73.5288560  31.9580500  80.6076620  84.3333770  38.4381000  82.1165970
  83.6014890  38.9467810  82.4656070  83.9358110  37.6210980  81.8154750
  80.7711160  35.1135200  80.5218460  80.7747220  34.6725150  79.6723000
  81.6662280  35.4352530  80.6290280  76.6213540  34.9961690  79.4812670
  76.2813590  35.4736920  80.2379720  75.8590860  34.5426810  79.1213770
  80.8331310  36.1147280  73.5125220  80.9544130  36.0733760  74.4611040
  80.4479820  36.9771430  73.3571950  84.7959680  33.8914680  81.5288910
  84.8132420  34.3423330  82.3730760  84.5475260  32.9920320  81.7422350
  79.8452810  38.4248420  72.9108520  79.2769710  37.9766670  72.2844430
  80.5541810  38.7841200  72.3773670  88.2230430  31.3046860  87.3675290
  88.5476200  30.5736520  87.8933270  88.2586940  30.9860500  86.4656280
  74.9221990  42.3260440  86.7875250  74.5376780  41.6854110  87.3858210
  75.2334180  43.0296560  87.3569980  81.0719130  39.1736980  82.2683870
  81.4389260  38.6995550  83.0145210  80.8824190  40.0478550  82.6092210
  73.9359620  33.9180670  78.3977340  73.6506540  33.5536340  79.2355960
  73.8738480  33.1861130  77.7840480  78.8618500  38.2145620  84.5868080
  78.5575570  39.0937600  84.8118440  79.8164960  38.2745410  84.6225520
  77.3900290  42.4206610  75.1834930  76.6162550  41.8804230  75.0233650
  78.1194920  41.9013220  74.8452690  88.1488270  41.4171970  80.9761320
  88.8687390  41.9127260  80.5857430  87.9470090  40.7389860  80.3315190
  83.6098210  32.8109930  75.1190710  82.7962820  32.3123100  75.0436020
  83.4160160  33.6508180  74.7027060  83.5307070  41.4881030  86.8630320
  83.4644380  40.5676700  86.6087910  82.9012210  41.5856470  87.5774960
  86.3246600  37.1829580  73.4152870  87.2126220  37.4946810  73.2404210
  86.2951690  36.3101830  73.0233450  77.4337690  42.0886990  78.8213740
  77.9516360  41.2855250  78.7670630  76.9821710  42.0266130  79.6630570
  82.3207190  43.3553270  74.0941040  82.6622890  44.0995500  73.5984360
  81.4919900  43.6684390  74.4565870  74.9182230  39.0548360  85.7339440
  74.5597170  39.7202210  86.3212780  74.6236790  38.2231910  86.1052060
  78.1195350  39.5132600  88.6178990  77.8195490  39.6589780  87.7206810
  78.8906590  38.9537890  88.5252380  83.4623800  44.3101600  86.6134120
  83.4768340  43.3782560  86.3953030  82.7548900  44.3961360  87.2523890
  88.5960870  38.4941420  72.8832730  88.5124590  38.9255640  72.0329170
  89.3155060  38.9539770  73.3159550  89.6735010  40.9508940  85.9602700
  88.9483200  41.5437720  85.7632090  90.2010470  40.9432480  85.1616070
  89.6248120  45.3483680  75.6114860  88.9824280  44.6939300  75.8858580
  89.2378780  45.7538770  74.8355530  85.2034600  42.6769110  79.4586550
  85.5558420  42.0797240  78.7987920  84.3196930  42.3513340  79.6294800
  81.2897880  43.4366800  76.8656960  81.9769010  43.9836010  77.2464550
  80.5030300  43.9807530  76.9006570  73.4290280  39.0539620  72.3574040
  74.2985130  39.3364420  72.6409960  72.9380600  39.8675490  72.2422850
  80.5925090  40.4412830  76.4782320  81.0487870  41.2518080  76.7042510
  80.2413300  40.1235970  77.3100810  82.8957700  45.9519170  83.7074620
  83.5399920  46.1578550  84.3848040  83.2587140  45.1907570  83.2545470
  76.4936870  30.7850480  76.9504840  76.3651500  30.7768380  77.8989760
  75.6698890  31.1233570  76.5995850  84.1689780  43.9551520  82.4252070
  84.8112010  43.2544680  82.5384240  84.6939130  44.7349960  82.2448960
  88.0145500  44.2400140  72.1491210  87.7883080  43.5230580  72.7415850
  87.6241700  43.9912580  71.3112960  85.9427400  44.7546420  85.6288130
  86.2783640  45.3413110  86.3066050  85.0227740  44.6239130  85.8585920
  73.7961530  48.2667000  72.9235670  74.1559170  48.8656340  72.2692940
  73.6553870  48.8126890  73.6970700  73.4930800  32.5441600  86.4111540
  72.7789320  32.7438520  87.0164150  73.9125840  31.7681170  86.7826340
  87.5961750  42.1572080  73.8105370  87.3083450  42.6184770  74.5983250
  88.3913920  41.6969850  74.0789590  73.7803390  46.5321860  87.3978070
  73.8894510  45.5916600  87.2573460  73.1283950  46.7976610  86.7491800
  81.7715980  44.8037750  88.7976190  81.4512850  44.0846990  89.3421880
  81.0974340  45.4792820  88.8712250  79.8130150  45.6498200  73.7409340
  79.8040250  46.3827890  73.1253850  78.8928510  45.4029780  73.8336300
  75.4136790  40.8713090  74.4856100  74.8064740  41.6111990  74.4951400
  75.8886140  40.9612450  73.6594300  84.9869580  35.0363910  84.1612990
  85.3550400  34.2159120  84.4892560  84.1267780  35.0965800  84.5768640
  88.3531610  33.9920850  74.9700550  87.7244770  34.0966520  74.2558780
  87.8583530  34.2117630  75.7594430  82.7989750  45.7126440  72.4034530
  82.9001730  45.5090430  71.4736510  81.8991490  45.4584720  72.6082310
  80.3215640  36.2706800  76.3858430  79.6131790  36.7393140  76.8272040
  80.6060120  35.6128810  77.0203620  81.9471570  37.6903500  84.3850960
  82.4456820  38.1649320  85.0502810  82.0894520  36.7667020  84.5920990
  84.3531070  32.9957460  77.8254220  84.2298850  33.0143590  76.8763730
  85.3015630  33.0436400  77.9452620  81.4407860  48.2312760  77.0982200
  81.6949360  48.1934150  76.1761570  80.4920340  48.1046090  77.0910450
  89.1538430  33.9071460  85.2279350  88.6512030  34.6476860  85.5673160
  89.9695090  34.2955460  84.9116140  87.4460440  39.1504640  78.6740710
  86.5050580  39.1654870  78.8488400  87.7604510  38.3640600  79.1201010
  77.4242080  40.8324240  72.2344670  78.1905350  40.7205600  72.7970100
  77.5016770  40.1362210  71.5821440  76.1188840  38.2649310  72.9177560
  76.1992430  37.3176820  73.0294960  77.0108590  38.5956190  73.0238220
  89.4486020  46.3213490  80.3494970  89.5733440  47.1444660  80.8218780
  90.3151580  46.1104220  80.0019120  76.9203550  48.4144700  80.0212100
  77.6566030  47.8660160  80.2920670  77.3044470  49.2800710  79.8818090
  73.8049030  44.4818270  75.8953610  72.8788810  44.7239410  75.8859020
  74.2705460  45.3092530  75.7738360  75.9261830  47.5990770  89.2097680
  76.7274560  47.9202820  89.6233080  75.4113650  47.2386350  89.9317590
  80.0305860  47.5875010  71.8437670  80.8234470  47.8763840  71.3919460
  79.5110210  47.1567180  71.1650150  84.7626460  43.7070640  89.1573090
  84.1564620  43.7302240  88.4168840  84.4580570  42.9753680  89.6940340
  86.1926830  47.4350930  87.7682500  87.1448580  47.3508950  87.7182740
  86.0455050  48.0992640  88.4416290  89.0836030  46.8145140  73.2674410
  88.7977540  46.4010280  72.4528590  88.8855580  47.7432850  73.1474930
  73.6459640  40.0864230  88.1533730  74.1498660  39.5071510  88.7249960
  72.9067060  40.3704460  88.6910100  80.5483260  42.8078420  71.7080020
  80.4433900  42.1930770  72.4341400  80.3807480  42.2844310  70.9243030
  80.6997580  41.4935220  87.6869250  79.9343250  42.0620220  87.6023920
  80.8813540  41.2011430  86.7937480  83.7885990  41.8698450  72.3122010
  83.2396090  42.3167750  72.9564750  84.4105250  41.3647700  72.8359680
  87.8420930  43.2240550  88.2444270  88.5830400  43.5616310  87.7411730
  87.0793610  43.3932610  87.6914040  75.6782720  38.2293820  89.0483800
  75.7188060  37.9307690  89.9569030  76.5328220  38.6301430  88.8891320
  79.4561110  40.8289370  74.2087310  79.8777530  40.6629240  75.0518700
  79.5811950  40.0189600  73.7142450  77.6188530  36.8085920  87.0158290
  77.0884990  36.3176870  86.3881630  78.2876600  37.2370120  86.4816220
  81.9688750  39.8526980  71.4564410  82.4894410  39.1376000  71.0905560
  82.6157150  40.4912850  71.7564920  86.5166590  41.2755380  86.7799480
  86.9307610  41.4300460  87.6289900  85.5817590  41.4010600  86.9425260
  86.9888760  38.6151540  88.7838630  87.5709530  37.8603860  88.6959110
  87.1650530  39.1458980  88.0070110  78.1060830  33.7748290  87.0955580
  78.0117700  33.1569040  86.3706450  77.5258220  34.5014580  86.8685490
  80.8722270  32.3321530  84.1282970  80.4239570  32.3545790  83.2828520
  80.2387470  31.9340550  84.7253270  81.2781820  41.2275860  84.7495410
  81.6969930  42.0708590  84.5771650  80.3590450  41.3647900  84.5202190
  83.6145720  38.9592040  86.1333250  83.7341930  38.3633180  86.8728090
  84.4739720  38.9961730  85.7134550  85.9533620  39.5129230  84.7095760
  85.4268840  40.0371850  84.1060900  86.2964960  40.1456620  85.3405490
  78.3520010  36.9022600  71.1545470  78.1509070  36.0389960  71.5158810
  78.1812060  36.8155960  70.2167070  79.1289240  47.5328870  85.8653140
  78.5910330  48.2574930  85.5461840  79.3823200  47.0559210  85.0750480
  80.3814490  35.5013390  87.3909070  80.9714180  35.1929240  88.0786890
  79.5634730  35.0293140  87.5468970  85.2007920  35.1179200  87.6242090
  84.5123440  34.4560740  87.5592080  85.9213940  34.6717470  88.0690550
  85.8308320  31.7130830  73.6832350  86.1110610  30.8698730  74.0391770
  85.0574050  31.9453940  74.1971100  81.9851450  48.7680080  86.1239790
  81.9110150  49.6715220  86.4312160  81.0830290  48.4491980  86.0961860
  80.3687740  32.9457840  72.1279550  80.0209740  32.2681830  71.5482000
  80.5700510  32.4847350  72.9422940  82.5336780  47.9338590  73.7466150
  83.4287570  48.2723560  73.7684910  82.5654410  47.2118000  73.1190430
  76.1732940  43.3065640  71.9753150  76.6107810  43.8495310  72.6310730
  76.6580670  42.4812590  71.9849490  73.3878740  46.0954670  79.4273410
  73.7181750  45.2275730  79.1952050  73.8169740  46.3013190  80.2578370
  77.9840660  44.4263680  77.0875380  77.6836200  44.3028650  77.9879290
  77.8778150  43.5672270  76.6791110  73.8768950  46.9625260  82.1655040
  73.4399940  47.1426060  82.9979190  74.4446630  47.7199880  82.0236760
  89.5131130  46.4642260  86.4532350  88.9133120  46.5234820  85.7096270
  89.6425030  45.5247240  86.5829200  90.7532580  44.2060080  71.7902060
  89.9225540  44.2736730  72.2609290  90.9304410  45.0964200  71.4868920
  90.2089040  40.9507560  74.2936260  90.9707950  41.5204210  74.3995950
  90.2243410  40.3834760  75.0644570  73.7093380  39.4745490  78.5243920
  73.0542220  39.2057130  77.8803620  74.5471330  39.3649970  78.0745900
  91.2149010  41.8057660  79.1378190  91.5857840  41.0224980  78.7314160
  91.8550940  42.4946760  78.9595490  88.1982770  43.1894240  84.5508510
  87.3842610  43.6191400  84.8134300  88.6056970  43.8012650  83.9377560
  90.2608210  41.2441930  71.4508780  90.5357050  42.1520810  71.3228000
  90.0718950  41.1804460  72.3870770  86.6583820  34.2686780  72.7462410
  87.0768700  34.0817760  71.9059070  86.3519880  33.4165830  73.0565340
  90.1573550  39.1810920  76.4438210  89.7817150  38.4138850  76.0119500
  89.4276670  39.5633620  76.9313140  74.7469310  39.8598060  83.0647260
  75.1142350  39.7725460  83.9443280  74.1780130  39.0964610  82.9654120
  89.5473170  38.3282440  86.0777730  89.3159260  38.0995190  85.1775680
  89.8077720  39.2481990  86.0322620  74.2985310  36.7707150  86.9705680
  73.4041360  36.7373910  87.3099390  74.8382860  36.9693940  87.7356930
  87.9861240  33.5538870  88.8557430  88.8631420  33.5622270  89.2391430
  87.9982080  32.8169710  88.2449780  89.4324510  37.4068410  79.7445450
  89.9561990  36.9131060  79.1135620  90.0183930  37.5418770  80.4893020
  89.6114230  37.4908280  83.2665000  88.6616940  37.4571820  83.3809990
  89.7927240  38.4008390  83.0314770  88.9224480  36.6641760  75.6837860
  89.4183600  36.4312630  76.4686740  88.7240550  35.8253600  75.2675500
  74.8025020  31.0455480  81.3188900  75.4501210  30.4952860  80.8784060
  75.2226860  31.2998630  82.1404710  90.3511640  35.3002710  78.2175540
  90.2410920  35.1458750  79.1557810  91.1119230  34.7723650  77.9750950
  91.2401910  33.1310630  71.4581680  92.1651220  32.9991810  71.2499970
  91.2177700  33.2103450  72.4118130  91.3140400  33.9021290  74.0838390
  90.5191900  33.8366410  74.6131300  91.5183680  34.8371930  74.0723740
  88.2558820  47.9412840  78.0776780  88.8517890  47.6197410  77.4011200
  88.5136970  47.4684660  78.8690050  74.5557020  31.2011150  84.0614220
  74.2071840  31.6574970  84.8272400  74.2244720  30.3068280  84.1436650
  76.1621390  44.3730750  88.2267410  76.1191020  44.0023660  89.1081870
  76.2932400  45.3108320  88.3669230  79.8627420  45.9290340  83.8277130
  79.6218780  46.1964900  82.9407650  80.8030060  46.0996070  83.8827990
  82.0681840  32.3923030  87.5833640  82.0070730  32.9844860  88.3329050
  83.0082220  32.2848990  87.4383900  84.7056400  32.0493090  87.2225930
  85.3196810  32.3672380  86.5607010  85.2505960  31.5641680  87.8421790
  91.1231580  47.9484720  84.6287770  90.6289860  48.3453590  83.9114900
  90.5144870  47.3233930  85.0225050  75.2277660  30.7287350  87.3364990
  75.7760650  30.5475400  86.5731100  75.2932970  29.9381460  87.8721300
  76.0009420  47.3193000  85.3465190  75.4069740  47.1877700  86.0855230
  75.9933260  46.4831140  84.8807290  85.4464440  30.6125230  83.5495220
  84.5724280  30.9460340  83.3468150  85.3375190  30.1398410  84.3747090
  86.3536420  32.8196100  84.9336940  86.0249780  32.0047860  84.5538670
  87.3018720  32.7765910  84.8102630  88.8071030  48.5908140  81.9074510
  88.3474000  49.3423950  81.5332530  88.1783490  47.8714610  81.8489310
  75.6321650  44.6851380  84.2973230  74.9055710  44.0656670  84.2299180
  75.6930800  45.0791990  83.4271310  79.2366750  46.8996380  81.0822640
  79.7531770  46.2883740  80.5570900  79.8864130  47.4025160  81.5733650
  81.9762250  47.7904870  81.9091620  82.2640060  47.5359170  81.0324630
  82.4885470  47.2382230  82.4997190  83.1939260  31.5295070  82.4888130
  82.4111050  32.0040570  82.7684890  82.9002190  30.6249900  82.3801310
  87.7460330  32.2318170  80.5337220  88.1868420  32.1763270  79.6858820
  87.4767920  33.1476180  80.6047400  89.6098900  31.8633410  78.5446040
  89.5487300  30.9194630  78.3977060  90.3890930  31.9713500  79.0899500
  73.9151650  48.0025770  77.5069990  73.7473690  47.3696450  78.2051880
  73.0486160  48.2085170  77.1564180  81.0793480  33.9481820  78.0004160
  80.2667990  33.5738710  77.6600040  81.5835120  33.1926900  78.3025350
  85.5818460  30.6124270  79.2387230  86.1847830  31.1844480  79.7135750
  84.8411450  31.1763710  79.0161130  88.7253060  31.0145830  74.5127510
  88.9203690  31.9129280  74.7794940  87.9382930  30.7832910  75.0060460
  75.5214350  46.6959000  74.9520130  74.9961970  47.0767030  74.2482090
  75.4458930  47.3209770  75.6729840  79.1042660  32.0981740  76.6049210
  78.4745400  31.3969050  76.7719340  78.5647800  32.8585870  76.3882370
  82.0434610  48.7120970  89.2759820  82.9701920  48.4765240  89.3195780
  82.0285040  49.5392970  88.7945850  90.2779670  48.2546540  76.2734070
  90.4531860  47.5684280  75.6294990  89.5801240  48.7793590  75.8810740
  79.2298220  31.3765720  89.0401700  78.9482490  31.8799320  88.2762520
  79.6117920  30.5787470  88.6743830  78.1207320  48.6441380  73.8269380
  78.8526140  48.3600660  73.2793270  78.3800990  48.4054660  74.7168760
  77.2822110  44.7606110  73.8315710  76.6530990  45.2291210  74.3801540
  77.3969940  43.9155330  74.2661900  85.8313680  30.7919300  89.6182170
  85.7179130  31.1113910  90.5133690  86.6483420  31.1931810  89.3219450
  88.6112170  47.9390830  89.1000860  89.4037490  47.4440060  88.8926820
  88.9045320  48.6180970  89.7076470  84.7371830  38.8111770  59.9816910
  84.6565880  37.8966380  59.7108620  84.3236250  39.3078840  59.2756620
  82.8689870  40.5890790  61.8626180  82.0931970  40.1091230  62.1524750
  83.5202800  39.9096440  61.6882340  76.8855700  40.9010600  62.7401940
  76.0540580  40.6459310  63.1398450  77.4936680  40.9721370  63.4759860
  86.8897300  44.9950980  60.6425310  86.4278830  44.2238220  60.9712480
  87.7022850  45.0217050  61.1477760  76.8656960  44.9350690  62.9359960
  77.1685000  44.0448430  62.7570180  77.6100550  45.4920910  62.7082210
  75.2947650  35.8612490  56.5244330  74.4064350  36.2028460  56.4224210
  75.5788840  35.6612810  55.6325160  83.1160610  47.2808990  60.2629300
  82.4972050  47.7366490  59.6923740  83.9712390  47.4360450  59.8619000
  82.3098860  43.2647980  61.8696340  82.2407140  42.3237920  61.7085470
  83.0718720  43.3549390  62.4418910  74.5005530  33.8702500  64.1952960
  74.3208370  32.9728250  64.4755720  74.0985610  34.4174370  64.8699910
  83.3404030  36.0718360  62.0965270  83.7168850  35.1990240  61.9838940
  83.2423540  36.4077060  61.2055710  77.4709040  34.4443990  57.5582710
  77.5775790  35.3447720  57.8651470  76.5601400  34.3961960  57.2677360
  87.1228150  33.5668800  59.0293610  87.9437770  33.0765370  59.0719090
  87.1562230  34.1566460  59.7825450  79.3116770  37.4130360  61.8907890
  79.8194990  37.9111330  62.5312910  79.8430010  36.6365560  61.7147250
  91.4127700  35.5835550  65.5937240  90.7079870  35.9717260  65.0752350
  91.6785620  36.2785840  66.1958170  77.5952870  32.0528920  66.1571310
  77.5971310  32.5701310  65.3517210  76.7657180  31.5759100  66.1341240
  83.9823960  42.1648230  57.6561210  83.3641230  42.6297680  57.0923930
  84.4947210  42.8575710  58.0730720  78.8455720  41.6924100  64.3344810
  78.5125100  42.3193020  64.9765880  79.0222400  42.2185980  63.5546480
  87.3589630  35.5069180  61.8021150  86.6545200  35.7954070  62.3824260
  87.7201790  36.3169290  61.4420710  77.2768200  33.7638880  64.1641760
  77.6185010  34.6080930  63.8695630  76.3384010  33.9122620  64.2807100
  78.0574820  43.6604900  66.1493990  78.6748820  44.3355980  65.8678440
  77.1967940  44.0692880  66.0581490  73.3507160  42.8504760  55.0300840
  72.9735140  43.3391860  54.2985740  73.6080230  43.5230040  55.6607370
  88.9752410  45.1244310  64.0648630  88.2915930  45.7943420  64.0565300
  89.5146700  45.3224960  63.2993490  90.4276550  34.9523970  62.1930360
  89.4801460  34.9862950  62.3245790  90.7526540  35.7662920  62.5779720
  80.9596090  31.2521150  60.4886350  81.2671070  30.6968040  59.7721850
  80.0296790  31.3865610  60.3059340  86.5111150  46.9688440  62.7793810
  86.5238310  46.5650730  61.9116070  85.9586370  47.7435730  62.6755240
  87.8056570  43.6904660  57.8683980  87.6952900  42.7478990  57.9933400
  87.8024820  44.0520300  58.7546740  85.9096590  41.8718280  64.1076420
  86.3265380  41.6578390  63.2729880  86.6336410  42.1291070  64.6785040
  83.3476850  39.3169980  57.2246470  82.4206130  39.2507360  57.4534940
  83.5001670  40.2550110  57.1101710  83.3345930  35.5886980  54.2213630
  82.3949600  35.7500940  54.3066090  83.6529190  36.3072660  53.6749620
  89.8558690  40.2705500  64.1992660  89.0277320  40.3398590  63.7242790
  90.4509170  40.8559810  63.7308490  87.3774140  40.8790280  57.7281720
  86.7586560  40.5409830  57.0808020  87.3598590  40.2350040  58.4360910
  86.8200700  37.0574820  65.1447530  86.4071880  37.8828530  65.3987520
  86.0876650  36.4719860  64.9523890  78.9533490  39.8434720  60.0066200
  78.5490490  39.1311970  59.5112100  79.0396610  39.4987960  60.8954240
  79.4215190  43.5302280  62.1705410  79.1243480  42.9247750  61.4913190
  80.3715010  43.5679590  62.0594770  77.6662110  36.6177930  63.7865240
  78.2176700  36.7273270  63.0118490  78.1805620  36.9915530  64.5020470
  87.5100800  47.1034150  65.8328510  87.0331360  47.9106340  65.6401120
  86.8262590  46.4512480  65.9854720  78.5133620  43.2683970  68.8213210
  77.6162150  43.4923940  69.0686610  78.5386490  43.3918910  67.8724610
  85.5538840  40.1177090  54.7354470  85.9932120  39.2799520  54.5892290
  86.2667260  40.7506490  54.8218610  77.3404840  40.1397290  67.3970580
  77.2012610  41.0120090  67.7657980  76.4586200  39.7970100  67.2518520
  83.6634220  45.0573160  58.7035710  84.1030130  45.7997490  58.2891100
  83.6021110  45.2999730  59.6274670  79.1385190  46.0818990  69.6055730
  79.1100620  46.4861940  68.7384160  78.9750160  45.1529350  69.4427330
  89.1355980  31.3719900  53.0495510  88.8228640  31.4646730  53.9494580
  89.8968450  31.9500930  52.9992940  75.6538120  38.7379700  57.5072850
  75.5335720  39.4641790  56.8954120  75.3439010  37.9682610  57.0300760
  91.0900010  46.8646090  70.9019900  91.5659730  47.3428980  71.5808980
  91.7107170  46.7963580  70.1765400  74.5371120  43.6095030  59.7247670
  74.1299200  43.7509620  58.8701270  75.4284130  43.3255190  59.5218880
  90.4933260  44.0558940  68.0619910  90.6196320  43.8170820  67.1437090
  90.5354640  43.2243480  68.5341990  84.3550000  47.7586940  66.6314720
  84.8694670  47.6694950  67.4337150  83.5119080  48.1046640  66.9242630
  86.3304400  48.0442280  56.0598720  86.1705540  47.7545220  56.9580550
  86.1651110  47.2682410  55.5243950  78.8092780  47.8240810  57.8370340
  78.6335260  46.9076350  57.6238140  77.9548520  48.1828100  58.0768140
  86.0330530  45.5529840  54.6196720  85.3395690  45.5507130  53.9599000
  86.7753390  45.1289160  54.1890890  85.5980460  47.1792550  58.6945210
  86.0537410  46.3981930  59.0083830  85.9372980  47.8899370  59.2386390
  90.3457270  36.1091400  69.0269650  89.7301540  36.6171070  68.4985110
  90.0253690  35.2089730  68.9695590  73.3483010  42.9509010  65.8535950
  73.5114050  42.4814370  65.0355320  73.8135460  42.4432570  66.5184790
  78.1201780  32.0814770  60.8896520  77.6769930  32.8624310  60.5581040
  78.6786770  32.4044660  61.5967460  82.4071590  34.9483290  66.4931840
  81.9450960  35.1566310  67.3051780  82.0049700  34.1342640  66.1902510
  87.4076100  36.1692240  67.6228500  86.5569690  35.8697990  67.9437570
  87.2477890  36.4134250  66.7112320  84.5025810  37.6693990  69.7227290
  84.8279220  36.8357740  69.3829520  85.2906140  38.1922510  69.8705620
  81.2360600  31.7025470  55.7702350  80.6114780  31.6985340  56.4955660
  81.1490720  30.8356430  55.3738320  80.1577680  32.6262100  62.7486120
  80.4550010  33.5324930  62.6678140  80.7063240  32.1380880  62.1345690
  77.9116000  37.2048340  58.6177770  77.6856920  36.9885510  59.5224390
  77.1308530  37.6376800  58.2723740  85.1413760  37.2111710  57.2168420
  84.5422650  37.9347510  57.0332040  85.6893370  37.1488490  56.4344870
  80.3515210  38.1033920  69.2838040  80.2558810  37.1628650  69.1338440
  81.1947190  38.3248990  68.8886110  83.7478630  35.8475250  59.2471700
  84.1408200  36.1647450  58.4340390  84.1095480  34.9687130  59.3616220
  75.4825750  34.5147590  67.4371820  75.0889140  35.3622800  67.6444600
  74.7944150  33.8773960  67.6280460  82.0570800  34.5982560  70.5068560
  81.3669120  34.4054760  71.1414650  82.8003100  34.8817200  71.0392860
  72.7842800  32.4376050  61.4701900  72.4955850  33.0078910  62.1826880
  73.5288560  31.9580500  61.8333130  72.9713030  36.3796170  52.6804620
  72.8887700  37.3226930  52.8219610  72.6196090  36.2371080  51.8016970
  84.3333770  38.4381000  63.3422480  83.6014890  38.9467810  63.6912580
  83.9358110  37.6210980  63.0411260  80.7711160  35.1135200  61.7474970
  80.7747220  34.6725150  60.8979510  81.6662280  35.4352530  61.8546790
  76.6213540  34.9961690  60.7069180  76.2813590  35.4736920  61.4636230
  75.8590860  34.5426810  60.3470280  80.8331310  36.1147280  54.7381730
  80.9544130  36.0733760  55.6867550  80.4479820  36.9771430  54.5828460
  84.7959680  33.8914680  62.7545420  84.8132420  34.3423330  63.5987270
  84.5475260  32.9920320  62.9678860  79.8452810  38.4248420  54.1365030
  79.2769710  37.9766670  53.5100940  80.5541810  38.7841200  53.6030180
  88.2230430  31.3046860  68.5931800  88.5476200  30.5736520  69.1189780
  88.2586940  30.9860500  67.6912790  74.9221990  42.3260440  68.0131760
  74.5376780  41.6854110  68.6114720  75.2334180  43.0296560  68.5826490
  81.0719130  39.1736980  63.4940380  81.4389260  38.6995550  64.2401720
  80.8824190  40.0478550  63.8348720  78.8618500  38.2145620  65.8124590
  78.5575570  39.0937600  66.0374950  79.8164960  38.2745410  65.8482030
  77.3900290  42.4206610  56.4091440  76.6162550  41.8804230  56.2490160
  78.1194920  41.9013220  56.0709200  88.1488270  41.4171970  62.2017830
  88.8687390  41.9127260  61.8113940  87.9470090  40.7389860  61.5571700
  83.6098210  32.8109930  56.3447220  82.7962820  32.3123100  56.2692530
  83.4160160  33.6508180  55.9283570  83.5307070  41.4881030  68.0886830
  83.4644380  40.5676700  67.8344420  82.9012210  41.5856470  68.8031470
  86.3246600  37.1829580  54.6409380  87.2126220  37.4946810  54.4660720
  86.2951690  36.3101830  54.2489960  77.4337690  42.0886990  60.0470250
  77.9516360  41.2855250  59.9927140  76.9821710  42.0266130  60.8887080
  82.3207190  43.3553270  55.3197550  82.6622890  44.0995500  54.8240870
  81.4919900  43.6684390  55.6822380  74.9182230  39.0548360  66.9595950
  74.5597170  39.7202210  67.5469290  74.6236790  38.2231910  67.3308570
  78.1195350  39.5132600  69.8435500  77.8195490  39.6589780  68.9463320
  78.8906590  38.9537890  69.7508890  83.4623800  44.3101600  67.8390630
  83.4768340  43.3782560  67.6209540  82.7548900  44.3961360  68.4780400
  88.5960870  38.4941420  54.1089240  88.5124590  38.9255640  53.2585680
  89.3155060  38.9539770  54.5416060  89.6735010  40.9508940  67.1859210
  88.9483200  41.5437720  66.9888600  90.2010470  40.9432480  66.3872580
  89.6248120  45.3483680  56.8371370  88.9824280  44.6939300  57.1115090
  89.2378780  45.7538770  56.0612040  85.2034600  42.6769110  60.6843060
  85.5558420  42.0797240  60.0244430  84.3196930  42.3513340  60.8551310
  81.2897880  43.4366800  58.0913470  81.9769010  43.9836010  58.4721060
  80.5030300  43.9807530  58.1263080  73.4290280  39.0539620  53.5830550
  74.2985130  39.3364420  53.8666470  72.9380600  39.8675490  53.4679360
  80.5925090  40.4412830  57.7038830  81.0487870  41.2518080  57.9299020
  80.2413300  40.1235970  58.5357320  82.8957700  45.9519170  64.9331130
  83.5399920  46.1578550  65.6104550  83.2587140  45.1907570  64.4801980
  76.4936870  30.7850480  58.1761350  76.3651500  30.7768380  59.1246270
  75.6698890  31.1233570  57.8252360  84.1689780  43.9551520  63.6508580
  84.8112010  43.2544680  63.7640750  84.6939130  44.7349960  63.4705470
  88.0145500  44.2400140  53.3747720  87.7883080  43.5230580  53.9672360
  87.6241700  43.9912580  52.5369470  85.9427400  44.7546420  66.8544640
  86.2783640  45.3413110  67.5322560  85.0227740  44.6239130  67.0842430
  73.7961530  48.2667000  54.1492180  74.1559170  48.8656340  53.4949450
  73.6553870  48.8126890  54.9227210  87.5961750  42.1572080  55.0361880
  87.3083450  42.6184770  55.8239760  88.3913920  41.6969850  55.3046100
  73.7803390  46.5321860  68.6234580  73.8894510  45.5916600  68.4829970
  73.1283950  46.7976610  67.9748310  81.7715980  44.8037750  70.0232700
  81.4512850  44.0846990  70.5678390  81.0974340  45.4792820  70.0968760
  79.8130150  45.6498200  54.9665850  79.8040250  46.3827890  54.3510360
  78.8928510  45.4029780  55.0592810  75.4136790  40.8713090  55.7112610
  74.8064740  41.6111990  55.7207910  75.8886140  40.9612450  54.8850810
  84.9869580  35.0363910  65.3869500  85.3550400  34.2159120  65.7149070
  84.1267780  35.0965800  65.8025150  88.3531610  33.9920850  56.1957060
  87.7244770  34.0966520  55.4815290  87.8583530  34.2117630  56.9850940
  82.7989750  45.7126440  53.6291040  82.9001730  45.5090430  52.6993020
  81.8991490  45.4584720  53.8338820  80.3215640  36.2706800  57.6114940
  79.6131790  36.7393140  58.0528550  80.6060120  35.6128810  58.2460130
  81.9471570  37.6903500  65.6107470  82.4456820  38.1649320  66.2759320
  82.0894520  36.7667020  65.8177500  84.3531070  32.9957460  59.0510730
  84.2298850  33.0143590  58.1020240  85.3015630  33.0436400  59.1709130
  81.4407860  48.2312760  58.3238710  81.6949360  48.1934150  57.4018080
  80.4920340  48.1046090  58.3166960  78.5250660  34.5791880  54.9865650
  79.3741190  35.0162030  54.9205840  78.1581930  34.8912140  55.8137710
  89.1538430  33.9071460  66.4535860  88.6512030  34.6476860  66.7929670
  89.9695090  34.2955460  66.1372650  87.4460440  39.1504640  59.8997220
  86.5050580  39.1654870  60.0744910  87.7604510  38.3640600  60.3457520
  77.4242080  40.8324240  53.4601180  78.1905350  40.7205600  54.0226610
  77.5016770  40.1362210  52.8077950  76.1188840  38.2649310  54.1434070
  76.1992430  37.3176820  54.2551470  77.0108590  38.5956190  54.2494730
  89.4486020  46.3213490  61.5751480  89.5733440  47.1444660  62.0475290
  90.3151580  46.1104220  61.2275630  76.9203550  48.4144700  61.2468610
  77.6566030  47.8660160  61.5177180  77.3044470  49.2800710  61.1074600
  73.8049030  44.4818270  57.1210120  72.8788810  44.7239410  57.1115530
  74.2705460  45.3092530  56.9994870  75.9261830  47.5990770  70.4354190
  76.7274560  47.9202820  70.8489590  75.4113650  47.2386350  71.1574100
  80.0305860  47.5875010  53.0694180  80.8234470  47.8763840  52.6175970
  79.5110210  47.1567180  52.3906660  84.7626460  43.7070640  70.3829600
  84.1564620  43.7302240  69.6425350  84.4580570  42.9753680  70.9196850
  86.1926830  47.4350930  68.9939010  87.1448580  47.3508950  68.9439250
  86.0455050  48.0992640  69.6672800  89.0836030  46.8145140  54.4930920
  88.7977540  46.4010280  53.6785100  88.8855580  47.7432850  54.3731440
  73.6459640  40.0864230  69.3790240  74.1498660  39.5071510  69.9506470
  72.9067060  40.3704460  69.9166610  80.5483260  42.8078420  52.9336530
  80.4433900  42.1930770  53.6597910  80.3807480  42.2844310  52.1499540
  80.6997580  41.4935220  68.9125760  79.9343250  42.0620220  68.8280430
  80.8813540  41.2011430  68.0193990  83.7885990  41.8698450  53.5378520
  83.2396090  42.3167750  54.1821260  84.4105250  41.3647700  54.0616190
  87.8420930  43.2240550  69.4700780  88.5830400  43.5616310  68.9668240
  87.0793610  43.3932610  68.9170550  75.6782720  38.2293820  70.2740310
  75.7188060  37.9307690  71.1825540  76.5328220  38.6301430  70.1147830
  79.4561110  40.8289370  55.4343820  79.8777530  40.6629240  56.2775210
  79.5811950  40.0189600  54.9398960  77.6188530  36.8085920  68.2414800
  77.0884990  36.3176870  67.6138140  78.2876600  37.2370120  67.7072730
  81.9688750  39.8526980  52.6820920  82.4894410  39.1376000  52.3162070
  82.6157150  40.4912850  52.9821430  86.5166590  41.2755380  68.0055990
  86.9307610  41.4300460  68.8546410  85.5817590  41.4010600  68.1681770
  86.9888760  38.6151540  70.0095140  87.5709530  37.8603860  69.9215620
  87.1650530  39.1458980  69.2326620  78.1060830  33.7748290  68.3212090
  78.0117700  33.1569040  67.5962960  77.5258220  34.5014580  68.0942000
  80.8722270  32.3321530  65.3539480  80.4239570  32.3545790  64.5085030
  80.2387470  31.9340550  65.9509780  81.2781820  41.2275860  65.9751920
  81.6969930  42.0708590  65.8028160  80.3590450  41.3647900  65.7458700
  83.6145720  38.9592040  67.3589760  83.7341930  38.3633180  68.0984600
  84.4739720  38.9961730  66.9391060  85.9533620  39.5129230  65.9352270
  85.4268840  40.0371850  65.3317410  86.2964960  40.1456620  66.5662000
  78.3520010  36.9022600  52.3801980  78.1509070  36.0389960  52.7415320
  78.1812060  36.8155960  51.4423580  79.1289240  47.5328870  67.0909650
  78.5910330  48.2574930  66.7718350  79.3823200  47.0559210  66.3006990
  80.3814490  35.5013390  68.6165580  80.9714180  35.1929240  69.3043400
  79.5634730  35.0293140  68.7725480  85.2007920  35.1179200  68.8498600
  84.5123440  34.4560740  68.7848590  85.9213940  34.6717470  69.2947060
  85.8308320  31.7130830  54.9088860  86.1110610  30.8698730  55.2648280
  85.0574050  31.9453940  55.4227610  77.1502810  34.0023220  52.3679860
  77.4528710  34.0090650  51.4599010  77.8897400  33.6521080  52.8647520
  81.9851450  48.7680080  67.3496300  81.9110150  49.6715220  67.6568670
  81.0830290  48.4491980  67.3218370  80.3687740  32.9457840  53.3536060
  80.0209740  32.2681830  52.7738510  80.5700510  32.4847350  54.1679450
  82.5336780  47.9338590  54.9722660  83.4287570  48.2723560  54.9941420
  82.5654410  47.2118000  54.3446940  76.1732940  43.3065640  53.2009660
  76.6107810  43.8495310  53.8567240  76.6580670  42.4812590  53.2106000
  77.9840660  44.4263680  58.3131890  77.6836200  44.3028650  59.2135800
  77.8778150  43.5672270  57.9047620  89.5131130  46.4642260  67.6788860
  88.9133120  46.5234820  66.9352780  89.6425030  45.5247240  67.8085710
  90.7532580  44.2060080  53.0158570  89.9225540  44.2736730  53.4865800
  90.9304410  45.0964200  52.7125430  90.2089040  40.9507560  55.5192770
  90.9707950  41.5204210  55.6252460  90.2243410  40.3834760  56.2901080
  91.2149010  41.8057660  60.3634700  91.5857840  41.0224980  59.9570670
  91.8550940  42.4946760  60.1852000  88.1982770  43.1894240  65.7765020
  87.3842610  43.6191400  66.0390810  88.6056970  43.8012650  65.1634070
  90.2608210  41.2441930  52.6765290  90.5357050  42.1520810  52.5484510
  90.0718950  41.1804460  53.6127280  86.6583820  34.2686780  53.9718920
  87.0768700  34.0817760  53.1315580  86.3519880  33.4165830  54.2821850
  90.1573550  39.1810920  57.6694720  89.7817150  38.4138850  57.2376010
  89.4276670  39.5633620  58.1569650  74.7469310  39.8598060  64.2903770
  75.1142350  39.7725460  65.1699790  74.1780130  39.0964610  64.1910630
  89.5473170  38.3282440  67.3034240  89.3159260  38.0995190  66.4032190
  89.8077720  39.2481990  67.2579130  74.2985310  36.7707150  68.1962190
  73.4041360  36.7373910  68.5355900  74.8382860  36.9693940  68.9613440
  87.9861240  33.5538870  70.0813940  88.8631420  33.5622270  70.4647940
  87.9982080  32.8169710  69.4706290  72.9231460  36.6844420  55.6925760
  72.0195540  36.9474620  55.5177420  73.4072080  36.9555590  54.9125720
  89.4324510  37.4068410  60.9701960  89.9561990  36.9131060  60.3392130
  90.0183930  37.5418770  61.7149530  89.6114230  37.4908280  64.4921510
  88.6616940  37.4571820  64.6066500  89.7927240  38.4008390  64.2571280
  75.4658670  35.7409960  53.6020140  76.1750370  35.3193180  53.1167420
  74.7498610  35.8085190  52.9703490  75.1132830  31.7949290  52.6422790
  75.8360960  32.3358230  52.9604010  75.3857350  31.5212710  51.7664330
  88.9224480  36.6641760  56.9094370  89.4183600  36.4312630  57.6943250
  88.7240550  35.8253600  56.4932010  74.8025020  31.0455480  62.5445410
  75.4501210  30.4952860  62.1040570  75.2226860  31.2998630  63.3661220
  90.3511640  35.3002710  59.4432050  90.2410920  35.1458750  60.3814320
  91.1119230  34.7723650  59.2007460  88.6977360  31.2396840  65.9015050
  89.3349580  31.8530980  66.2674240  88.8452250  31.2757500  64.9564280
  91.2401910  33.1310630  52.6838190  92.1651220  32.9991810  52.4756480
  91.2177700  33.2103450  53.6374640  91.3140400  33.9021290  55.3094900
  90.5191900  33.8366410  55.8387810  91.5183680  34.8371930  55.2980250
  88.2558820  47.9412840  59.3033290  88.8517890  47.6197410  58.6267710
  88.5136970  47.4684660  60.0946560  74.5557020  31.2011150  65.2870730
  74.2071840  31.6574970  66.0528910  74.2244720  30.3068280  65.3693160
  76.1621390  44.3730750  69.4523920  76.1191020  44.0023660  70.3338380
  76.2932400  45.3108320  69.5925740  79.8627420  45.9290340  65.0533640
  79.6218780  46.1964900  64.1664160  80.8030060  46.0996070  65.1084500
  82.0681840  32.3923030  68.8090150  82.0070730  32.9844860  69.5585560
  83.0082220  32.2848990  68.6640410  84.7056400  32.0493090  68.4482440
  85.3196810  32.3672380  67.7863520  85.2505960  31.5641680  69.0678300
  91.1231580  47.9484720  65.8544280  90.6289860  48.3453590  65.1371410
  90.5144870  47.3233930  66.2481560  75.2277660  30.7287350  68.5621500
  75.7760650  30.5475400  67.7987610  75.2932970  29.9381460  69.0977810
  76.0009420  47.3193000  66.5721700  75.4069740  47.1877700  67.3111740
  75.9933260  46.4831140  66.1063800  85.4464440  30.6125230  64.7751730
  84.5724280  30.9460340  64.5724660  85.3375190  30.1398410  65.6003600
  86.3536420  32.8196100  66.1593450  86.0249780  32.0047860  65.7795180
  87.3018720  32.7765910  66.0359140  88.8071030  48.5908140  63.1331020
  88.3474000  49.3423950  62.7589040  88.1783490  47.8714610  63.0745820
  75.6321650  44.6851380  65.5229740  74.9055710  44.0656670  65.4555690
  75.6930800  45.0791990  64.6527820  79.2366750  46.8996380  62.3079150
  79.7531770  46.2883740  61.7827410  79.8864130  47.4025160  62.7990160
  81.9762250  47.7904870  63.1348130  82.2640060  47.5359170  62.2581140
  82.4885470  47.2382230  63.7253700  83.1939260  31.5295070  63.7144640
  82.4111050  32.0040570  63.9941400  82.9002190  30.6249900  63.6057820
  87.7460330  32.2318170  61.7593730  88.1868420  32.1763270  60.9115330
  87.4767920  33.1476180  61.8303910  89.6098900  31.8633410  59.7702550
  89.5487300  30.9194630  59.6233570  90.3890930  31.9713500  60.3156010
  73.9151650  48.0025770  58.7326500  73.7473690  47.3696450  59.4308390
  73.0486160  48.2085170  58.3820690  74.5379670  31.8342550  56.2358360
  75.2959030  31.9471430  55.6622390  74.0756840  32.6711750  56.1901790
  81.0793480  33.9481820  59.2260670  80.2667990  33.5738710  58.8856550
  81.5835120  33.1926900  59.5281860  85.5818460  30.6124270  60.4643740
  86.1847830  31.1844480  60.9392260  84.8411450  31.1763710  60.2417640
  88.7253060  31.0145830  55.7384020  88.9203690  31.9129280  56.0051450
  87.9382930  30.7832910  56.2316970  75.5214350  46.6959000  56.1776640
  74.9961970  47.0767030  55.4738600  75.4458930  47.3209770  56.8986350
  76.9104820  32.3606600  54.7760330  77.4397580  31.5736400  54.6468280
  77.5433140  33.0397790  55.0095860  79.1042660  32.0981740  57.8305720
  78.4745400  31.3969050  57.9975850  78.5647800  32.8585870  57.6138880
  82.0434610  48.7120970  70.5016330  82.9701920  48.4765240  70.5452290
  82.0285040  49.5392970  70.0202360  90.2779670  48.2546540  57.4990580
  90.4531860  47.5684280  56.8551500  89.5801240  48.7793590  57.1067250
  79.2298220  31.3765720  70.2658210  78.9482490  31.8799320  69.5019030
  79.6117920  30.5787470  69.9000340  78.1207320  48.6441380  55.0525890
  78.8526140  48.3600660  54.5049780  78.3800990  48.4054660  55.9425270
  77.2822110  44.7606110  55.0572220  76.6530990  45.2291210  55.6058050
  77.3969940  43.9155330  55.4918410  85.8313680  30.7919300  70.8438680
  85.7179130  31.1113910  71.7390200  86.6483420  31.1931810  70.5475960
  88.6112170  47.9390830  70.3257370  89.4037490  47.4440060  70.1183330
  88.9045320  48.6180970  70.9332980  84.7371830  38.8111770  41.2073420
  84.6565880  37.8966380  40.9365130  84.3236250  39.3078840  40.5013130
  82.8689870  40.5890790  43.0882690  82.0931970  40.1091230  43.3781260
  83.5202800  39.9096440  42.9138850  76.8855700  40.9010600  43.9658450
  76.0540580  40.6459310  44.3654960  77.4936680  40.9721370  44.7016370
  75.2947650  35.8612490  37.7500840  74.4064350  36.2028460  37.6480720
  75.5788840  35.6612810  36.8581670  73.2580660  38.4618140  43.6340540
  73.8296770  37.6940340  43.6344180  73.2582200  38.7606900  42.7247150
  82.3098860  43.2647980  43.0952850  82.2407140  42.3237920  42.9341980
  83.0718720  43.3549390  43.6675420  74.5005530  33.8702500  45.4209470
  74.3208370  32.9728250  45.7012230  74.0985610  34.4174370  46.0956420
  83.3404030  36.0718360  43.3221780  83.7168850  35.1990240  43.2095450
  83.2423540  36.4077060  42.4312220  77.4709040  34.4443990  38.7839220
  77.5775790  35.3447720  39.0907980  76.5601400  34.3961960  38.4933870
  87.1228150  33.5668800  40.2550120  87.9437770  33.0765370  40.2975600
  87.1562230  34.1566460  41.0081960  75.1192200  36.3663000  44.0291810
  75.8002310  36.6301370  44.6479210  74.8040250  35.5263870  44.3629820
  79.3116770  37.4130360  43.1164400  79.8194990  37.9111330  43.7569420
  79.8430010  36.6365560  42.9403760  91.4127700  35.5835550  46.8193750
  90.7079870  35.9717260  46.3008860  91.6785620  36.2785840  47.4214680
  77.5952870  32.0528920  47.3827820  77.5971310  32.5701310  46.5773720
  76.7657180  31.5759100  47.3597750  78.8455720  41.6924100  45.5601320
  78.5125100  42.3193020  46.2022390  79.0222400  42.2185980  44.7802990
  87.3589630  35.5069180  43.0277660  86.6545200  35.7954070  43.6080770
  87.7201790  36.3169290  42.6677220  77.2768200  33.7638880  45.3898270
  77.6185010  34.6080930  45.0952140  76.3384010  33.9122620  45.5063610
  88.9752410  45.1244310  45.2905140  88.2915930  45.7943420  45.2821810
  89.5146700  45.3224960  44.5250000  90.4276550  34.9523970  43.4186870
  89.4801460  34.9862950  43.5502300  90.7526540  35.7662920  43.8036230
  80.9596090  31.2521150  41.7142860  81.2671070  30.6968040  40.9978360
  80.0296790  31.3865610  41.5315850  85.9096590  41.8718280  45.3332930
  86.3265380  41.6578390  44.4986390  86.6336410  42.1291070  45.9041550
  83.3476850  39.3169980  38.4502980  82.4206130  39.2507360  38.6791450
  83.5001670  40.2550110  38.3358220  83.3345930  35.5886980  35.4470140
  82.3949600  35.7500940  35.5322600  83.6529190  36.3072660  34.9006130
  89.8558690  40.2705500  45.4249170  89.0277320  40.3398590  44.9499300
  90.4509170  40.8559810  44.9565000  87.3774140  40.8790280  38.9538230
  86.7586560  40.5409830  38.3064530  87.3598590  40.2350040  39.6617420
  86.8200700  37.0574820  46.3704040  86.4071880  37.8828530  46.6244030
  86.0876650  36.4719860  46.1780400  78.9533490  39.8434720  41.2322710
  78.5490490  39.1311970  40.7368610  79.0396610  39.4987960  42.1210750
  77.6662110  36.6177930  45.0121750  78.2176700  36.7273270  44.2375000
  78.1805620  36.9915530  45.7276980  87.5100800  47.1034150  47.0585020
  87.0331360  47.9106340  46.8657630  86.8262590  46.4512480  47.2111230
  85.5538840  40.1177090  35.9610980  85.9932120  39.2799520  35.8148800
  86.2667260  40.7506490  36.0475120  77.3404840  40.1397290  48.6227090
  77.2012610  41.0120090  48.9914490  76.4586200  39.7970100  48.4775030
  89.1355980  31.3719900  34.2752020  88.8228640  31.4646730  35.1751090
  89.8968450  31.9500930  34.2249450  75.6538120  38.7379700  38.7329360
  75.5335720  39.4641790  38.1210630  75.3439010  37.9682610  38.2557270
  91.0900010  46.8646090  52.1276410  91.5659730  47.3428980  52.8065490
  91.7107170  46.7963580  51.4021910  73.2923490  41.9094840  44.5398000
  73.3703910  42.0443610  43.5953720  73.9065170  41.2010730  44.7326120
  74.5371120  43.6095030  40.9504180  74.1299200  43.7509620  40.0957780
  75.4284130  43.3255190  40.7475390  90.4933260  44.0558940  49.2876420
  90.6196320  43.8170820  48.3693600  90.5354640  43.2243480  49.7598500
  84.3550000  47.7586940  47.8571230  84.8694670  47.6694950  48.6593660
  83.5119080  48.1046640  48.1499140  90.3457270  36.1091400  50.2526160
  89.7301540  36.6171070  49.7241620  90.0253690  35.2089730  50.1952100
  73.3483010  42.9509010  47.0792460  73.5114050  42.4814370  46.2611830
  73.8135460  42.4432570  47.7441300  78.1201780  32.0814770  42.1153030
  77.6769930  32.8624310  41.7837550  78.6786770  32.4044660  42.8223970
  82.4071590  34.9483290  47.7188350  81.9450960  35.1566310  48.5308290
  82.0049700  34.1342640  47.4159020  87.4076100  36.1692240  48.8485010
  86.5569690  35.8697990  49.1694080  87.2477890  36.4134250  47.9368830
  84.5025810  37.6693990  50.9483800  84.8279220  36.8357740  50.6086030
  85.2906140  38.1922510  51.0962130  81.2360600  31.7025470  36.9958860
  80.6114780  31.6985340  37.7212170  81.1490720  30.8356430  36.5994830
  80.1577680  32.6262100  43.9742630  80.4550010  33.5324930  43.8934650
  80.7063240  32.1380880  43.3602200  77.9116000  37.2048340  39.8434280
  77.6856920  36.9885510  40.7480900  77.1308530  37.6376800  39.4980250
  85.1413760  37.2111710  38.4424930  84.5422650  37.9347510  38.2588550
  85.6893370  37.1488490  37.6601380  80.3515210  38.1033920  50.5094550
  80.2558810  37.1628650  50.3594950  81.1947190  38.3248990  50.1142620
  83.7478630  35.8475250  40.4728210  84.1408200  36.1647450  39.6596900
  84.1095480  34.9687130  40.5872730  75.4825750  34.5147590  48.6628330
  75.0889140  35.3622800  48.8701110  74.7944150  33.8773960  48.8536970
  82.0570800  34.5982560  51.7325070  81.3669120  34.4054760  52.3671160
  82.8003100  34.8817200  52.2649370  72.7842800  32.4376050  42.6958410
  72.4955850  33.0078910  43.4083390  73.5288560  31.9580500  43.0589640
  72.9713030  36.3796170  33.9061130  72.8887700  37.3226930  34.0476120
  72.6196090  36.2371080  33.0273480  84.3333770  38.4381000  44.5678990
  83.6014890  38.9467810  44.9169090  83.9358110  37.6210980  44.2667770
  80.7711160  35.1135200  42.9731480  80.7747220  34.6725150  42.1236020
  81.6662280  35.4352530  43.0803300  76.6213540  34.9961690  41.9325690
  76.2813590  35.4736920  42.6892740  75.8590860  34.5426810  41.5726790
  80.8331310  36.1147280  35.9638240  80.9544130  36.0733760  36.9124060
  80.4479820  36.9771430  35.8084970  84.7959680  33.8914680  43.9801930
  84.8132420  34.3423330  44.8243780  84.5475260  32.9920320  44.1935370
  79.8452810  38.4248420  35.3621540  79.2769710  37.9766670  34.7357450
  80.5541810  38.7841200  34.8286690  88.2230430  31.3046860  49.8188310
  88.5476200  30.5736520  50.3446290  88.2586940  30.9860500  48.9169300
  74.9221990  42.3260440  49.2388270  74.5376780  41.6854110  49.8371230
  75.2334180  43.0296560  49.8083000  81.0719130  39.1736980  44.7196890
  81.4389260  38.6995550  45.4658230  80.8824190  40.0478550  45.0605230
  73.9359620  33.9180670  40.8490360  73.6506540  33.5536340  41.6868980
  73.8738480  33.1861130  40.2353500  78.8618500  38.2145620  47.0381100
  78.5575570  39.0937600  47.2631460  79.8164960  38.2745410  47.0738540
  88.1488270  41.4171970  43.4274340  88.8687390  41.9127260  43.0370450
  87.9470090  40.7389860  42.7828210  83.6098210  32.8109930  37.5703730
  82.7962820  32.3123100  37.4949040  83.4160160  33.6508180  37.1540080
  83.5307070  41.4881030  49.3143340  83.4644380  40.5676700  49.0600930
  82.9012210  41.5856470  50.0287980  86.3246600  37.1829580  35.8665890
  87.2126220  37.4946810  35.6917230  86.2951690  36.3101830  35.4746470
  74.9182230  39.0548360  48.1852460  74.5597170  39.7202210  48.7725800
  74.6236790  38.2231910  48.5565080  78.1195350  39.5132600  51.0692010
  77.8195490  39.6589780  50.1719830  78.8906590  38.9537890  50.9765400
  83.4623800  44.3101600  49.0647140  83.4768340  43.3782560  48.8466050
  82.7548900  44.3961360  49.7036910  88.5960870  38.4941420  35.3345750
  88.5124590  38.9255640  34.4842190  89.3155060  38.9539770  35.7672570
  89.6735010  40.9508940  48.4115720  88.9483200  41.5437720  48.2145110
  90.2010470  40.9432480  47.6129090  89.6248120  45.3483680  38.0627880
  88.9824280  44.6939300  38.3371600  89.2378780  45.7538770  37.2868550
  73.4290280  39.0539620  34.8087060  74.2985130  39.3364420  35.0922980
  72.9380600  39.8675490  34.6935870  80.5925090  40.4412830  38.9295340
  81.0487870  41.2518080  39.1555530  80.2413300  40.1235970  39.7613830
  76.4936870  30.7850480  39.4017860  76.3651500  30.7768380  40.3502780
  75.6698890  31.1233570  39.0508870  84.1689780  43.9551520  44.8765090
  84.8112010  43.2544680  44.9897260  84.6939130  44.7349960  44.6961980
  88.0145500  44.2400140  34.6004230  87.7883080  43.5230580  35.1928870
  87.6241700  43.9912580  33.7625980  85.9427400  44.7546420  48.0801150
  86.2783640  45.3413110  48.7579070  85.0227740  44.6239130  48.3098940
  73.4930800  32.5441600  48.8624560  72.7789320  32.7438520  49.4677170
  73.9125840  31.7681170  49.2339360  87.5961750  42.1572080  36.2618390
  87.3083450  42.6184770  37.0496270  88.3913920  41.6969850  36.5302610
  73.7803390  46.5321860  49.8491090  73.8894510  45.5916600  49.7086480
  73.1283950  46.7976610  49.2004820  84.9869580  35.0363910  46.6126010
  85.3550400  34.2159120  46.9405580  84.1267780  35.0965800  47.0281660
  88.3531610  33.9920850  37.4213570  87.7244770  34.0966520  36.7071800
  87.8583530  34.2117630  38.2107450  82.7989750  45.7126440  34.8547550
  82.9001730  45.5090430  33.9249530  81.8991490  45.4584720  35.0595330
  80.3215640  36.2706800  38.8371450  79.6131790  36.7393140  39.2785060
  80.6060120  35.6128810  39.4716640  81.9471570  37.6903500  46.8363980
  82.4456820  38.1649320  47.5015830  82.0894520  36.7667020  47.0434010
  84.3531070  32.9957460  40.2767240  84.2298850  33.0143590  39.3276750
  85.3015630  33.0436400  40.3965640  78.5250660  34.5791880  36.2122160
  79.3741190  35.0162030  36.1462350  78.1581930  34.8912140  37.0394220
  89.1538430  33.9071460  47.6792370  88.6512030  34.6476860  48.0186180
  89.9695090  34.2955460  47.3629160  87.4460440  39.1504640  41.1253730
  86.5050580  39.1654870  41.3001420  87.7604510  38.3640600  41.5714030
  76.1188840  38.2649310  35.3690580  76.1992430  37.3176820  35.4807980
  77.0108590  38.5956190  35.4751240  89.4486020  46.3213490  42.8007990
  89.5733440  47.1444660  43.2731800  90.3151580  46.1104220  42.4532140
  73.8049030  44.4818270  38.3466630  72.8788810  44.7239410  38.3372040
  74.2705460  45.3092530  38.2251380  75.9261830  47.5990770  51.6610700
  76.7274560  47.9202820  52.0746100  75.4113650  47.2386350  52.3830610
  84.7626460  43.7070640  51.6086110  84.1564620  43.7302240  50.8681860
  84.4580570  42.9753680  52.1453360  86.1926830  47.4350930  50.2195520
  87.1448580  47.3508950  50.1695760  86.0455050  48.0992640  50.8929310
  89.0836030  46.8145140  35.7187430  88.7977540  46.4010280  34.9041610
  88.8855580  47.7432850  35.5987950  73.6459640  40.0864230  50.6046750
  74.1498660  39.5071510  51.1762980  72.9067060  40.3704460  51.1423120
  80.5483260  42.8078420  34.1593040  80.4433900  42.1930770  34.8854420
  80.3807480  42.2844310  33.3756050  80.6997580  41.4935220  50.1382270
  79.9343250  42.0620220  50.0536940  80.8813540  41.2011430  49.2450500
  83.7885990  41.8698450  34.7635030  83.2396090  42.3167750  35.4077770
  84.4105250  41.3647700  35.2872700  87.8420930  43.2240550  50.6957290
  88.5830400  43.5616310  50.1924750  87.0793610  43.3932610  50.1427060
  75.6782720  38.2293820  51.4996820  75.7188060  37.9307690  52.4082050
  76.5328220  38.6301430  51.3404340  79.4561110  40.8289370  36.6600330
  79.8777530  40.6629240  37.5031720  79.5811950  40.0189600  36.1655470
  77.6188530  36.8085920  49.4671310  77.0884990  36.3176870  48.8394650
  78.2876600  37.2370120  48.9329240  81.9688750  39.8526980  33.9077430
  82.4894410  39.1376000  33.5418580  82.6157150  40.4912850  34.2077940
  86.5166590  41.2755380  49.2312500  86.9307610  41.4300460  50.0802920
  85.5817590  41.4010600  49.3938280  86.9888760  38.6151540  51.2351650
  87.5709530  37.8603860  51.1472130  87.1650530  39.1458980  50.4583130
  78.1060830  33.7748290  49.5468600  78.0117700  33.1569040  48.8219470
  77.5258220  34.5014580  49.3198510  80.8722270  32.3321530  46.5795990
  80.4239570  32.3545790  45.7341540  80.2387470  31.9340550  47.1766290
  81.2781820  41.2275860  47.2008430  81.6969930  42.0708590  47.0284670
  80.3590450  41.3647900  46.9715210  83.6145720  38.9592040  48.5846270
  83.7341930  38.3633180  49.3241110  84.4739720  38.9961730  48.1647570
  85.9533620  39.5129230  47.1608780  85.4268840  40.0371850  46.5573920
  86.2964960  40.1456620  47.7918510  78.3520010  36.9022600  33.6058490
  78.1509070  36.0389960  33.9671830  78.1812060  36.8155960  32.6680090
  80.3814490  35.5013390  49.8422090  80.9714180  35.1929240  50.5299910
  79.5634730  35.0293140  49.9981990  85.2007920  35.1179200  50.0755110
  84.5123440  34.4560740  50.0105100  85.9213940  34.6717470  50.5203570
  85.8308320  31.7130830  36.1345370  86.1110610  30.8698730  36.4904790
  85.0574050  31.9453940  36.6484120  77.1502810  34.0023220  33.5936370
  77.4528710  34.0090650  32.6855520  77.8897400  33.6521080  34.0904030
  80.3687740  32.9457840  34.5792570  80.0209740  32.2681830  33.9995020
  80.5700510  32.4847350  35.3935960  73.3878740  46.0954670  41.8786430
  73.7181750  45.2275730  41.6465070  73.8169740  46.3013190  42.7091390
  89.5131130  46.4642260  48.9045370  88.9133120  46.5234820  48.1609290
  89.6425030  45.5247240  49.0342220  90.7532580  44.2060080  34.2415080
  89.9225540  44.2736730  34.7122310  90.9304410  45.0964200  33.9381940
  90.2089040  40.9507560  36.7449280  90.9707950  41.5204210  36.8508970
  90.2243410  40.3834760  37.5157590  73.7093380  39.4745490  40.9756940
  73.0542220  39.2057130  40.3316640  74.5471330  39.3649970  40.5258920
  91.2149010  41.8057660  41.5891210  91.5857840  41.0224980  41.1827180
  91.8550940  42.4946760  41.4108510  88.1982770  43.1894240  47.0021530
  87.3842610  43.6191400  47.2647320  88.6056970  43.8012650  46.3890580
  90.2608210  41.2441930  33.9021800  90.5357050  42.1520810  33.7741020
  90.0718950  41.1804460  34.8383790  86.6583820  34.2686780  35.1975430
  87.0768700  34.0817760  34.3572090  86.3519880  33.4165830  35.5078360
  90.1573550  39.1810920  38.8951230  89.7817150  38.4138850  38.4632520
  89.4276670  39.5633620  39.3826160  74.7469310  39.8598060  45.5160280
  75.1142350  39.7725460  46.3956300  74.1780130  39.0964610  45.4167140
  89.5473170  38.3282440  48.5290750  89.3159260  38.0995190  47.6288700
  89.8077720  39.2481990  48.4835640  74.2985310  36.7707150  49.4218700
  73.4041360  36.7373910  49.7612410  74.8382860  36.9693940  50.1869950
  87.9861240  33.5538870  51.3070450  88.8631420  33.5622270  51.6904450
  87.9982080  32.8169710  50.6962800  72.9231460  36.6844420  36.9182270
  72.0195540  36.9474620  36.7433930  73.4072080  36.9555590  36.1382230
  89.4324510  37.4068410  42.1958470  89.9561990  36.9131060  41.5648640
  90.0183930  37.5418770  42.9406040  89.6114230  37.4908280  45.7178020
  88.6616940  37.4571820  45.8323010  89.7927240  38.4008390  45.4827790
  75.4658670  35.7409960  34.8276650  76.1750370  35.3193180  34.3423930
  74.7498610  35.8085190  34.1960000  75.1132830  31.7949290  33.8679300
  75.8360960  32.3358230  34.1860520  75.3857350  31.5212710  32.9920840
  88.9224480  36.6641760  38.1350880  89.4183600  36.4312630  38.9199760
  88.7240550  35.8253600  37.7188520  74.8025020  31.0455480  43.7701920
  75.4501210  30.4952860  43.3297080  75.2226860  31.2998630  44.5917730
  90.3511640  35.3002710  40.6688560  90.2410920  35.1458750  41.6070830
  91.1119230  34.7723650  40.4263970  88.6977360  31.2396840  47.1271560
  89.3349580  31.8530980  47.4930750  88.8452250  31.2757500  46.1820790
  91.2401910  33.1310630  33.9094700  92.1651220  32.9991810  33.7012990
  91.2177700  33.2103450  34.8631150  91.3140400  33.9021290  36.5351410
  90.5191900  33.8366410  37.0644320  91.5183680  34.8371930  36.5236760
  88.2558820  47.9412840  40.5289800  88.8517890  47.6197410  39.8524220
  88.5136970  47.4684660  41.3203070  74.5557020  31.2011150  46.5127240
  74.2071840  31.6574970  47.2785420  74.2244720  30.3068280  46.5949670
  76.1621390  44.3730750  50.6780430  76.1191020  44.0023660  51.5594890
  76.2932400  45.3108320  50.8182250  82.0681840  32.3923030  50.0346660
  82.0070730  32.9844860  50.7842070  83.0082220  32.2848990  49.8896920
  84.7056400  32.0493090  49.6738950  85.3196810  32.3672380  49.0120030
  85.2505960  31.5641680  50.2934810  91.1231580  47.9484720  47.0800790
  90.6289860  48.3453590  46.3627920  90.5144870  47.3233930  47.4738070
  75.2277660  30.7287350  49.7878010  75.7760650  30.5475400  49.0244120
  75.2932970  29.9381460  50.3234320  85.4464440  30.6125230  46.0008240
  84.5724280  30.9460340  45.7981170  85.3375190  30.1398410  46.8260110
  86.3536420  32.8196100  47.3849960  86.0249780  32.0047860  47.0051690
  87.3018720  32.7765910  47.2615650  83.1939260  31.5295070  44.9401150
  82.4111050  32.0040570  45.2197910  82.9002190  30.6249900  44.8314330
  87.7460330  32.2318170  42.9850240  88.1868420  32.1763270  42.1371840
  87.4767920  33.1476180  43.0560420  89.6098900  31.8633410  40.9959060
  89.5487300  30.9194630  40.8490080  90.3890930  31.9713500  41.5412520
  74.5379670  31.8342550  37.4614870  75.2959030  31.9471430  36.8878900
  74.0756840  32.6711750  37.4158300  81.0793480  33.9481820  40.4517180
  80.2667990  33.5738710  40.1113060  81.5835120  33.1926900  40.7538370
  85.5818460  30.6124270  41.6900250  86.1847830  31.1844480  42.1648770
  84.8411450  31.1763710  41.4674150  88.7253060  31.0145830  36.9640530
  88.9203690  31.9129280  37.2307960  87.9382930  30.7832910  37.4573480
  76.9104820  32.3606600  36.0016840  77.4397580  31.5736400  35.8724790
  77.5433140  33.0397790  36.2352370  79.1042660  32.0981740  39.0562230
  78.4745400  31.3969050  39.2232360  78.5647800  32.8585870  38.8395390
  82.0434610  48.7120970  51.7272840  82.9701920  48.4765240  51.7708800
  82.0285040  49.5392970  51.2458870  90.2779670  48.2546540  38.7247090
  90.4531860  47.5684280  38.0808010  89.5801240  48.7793590  38.3323760
  79.2298220  31.3765720  51.4914720  78.9482490  31.8799320  50.7275540
  79.6117920  30.5787470  51.1256850  85.8313680  30.7919300  52.0695190
  85.7179130  31.1113910  52.9646710  86.6483420  31.1931810  51.7732470
  88.6112170  47.9390830  51.5513880  89.4037490  47.4440060  51.3439840
  88.9045320  48.6180970  52.1589490  84.7371830  38.8111770  22.4329930
  84.6565880  37.8966380  22.1621640  84.3236250  39.3078840  21.7269640
  82.8689870  40.5890790  24.3139200  82.0931970  40.1091230  24.6037770
  83.5202800  39.9096440  24.1395360  76.8855700  40.9010600  25.1914960
  76.0540580  40.6459310  25.5911470  77.4936680  40.9721370  25.9272880
  86.8897300  44.9950980  23.0938330  86.4278830  44.2238220  23.4225500
  87.7022850  45.0217050  23.5990780  76.8656960  44.9350690  25.3872980
  77.1685000  44.0448430  25.2083200  77.6100550  45.4920910  25.1595230
  75.2947650  35.8612490  18.9757350  74.4064350  36.2028460  18.8737230
  75.5788840  35.6612810  18.0838180  73.2580660  38.4618140  24.8597050
  73.8296770  37.6940340  24.8600690  73.2582200  38.7606900  23.9503660
  83.1160610  47.2808990  22.7142320  82.4972050  47.7366490  22.1436760
  83.9712390  47.4360450  22.3132020  82.3098860  43.2647980  24.3209360
  82.2407140  42.3237920  24.1598490  83.0718720  43.3549390  24.8931930
  74.5005530  33.8702500  26.6465980  74.3208370  32.9728250  26.9268740
  74.0985610  34.4174370  27.3212930  83.3404030  36.0718360  24.5478290
  83.7168850  35.1990240  24.4351960  83.2423540  36.4077060  23.6568730
  77.4709040  34.4443990  20.0095730  77.5775790  35.3447720  20.3164490
  76.5601400  34.3961960  19.7190380  87.1228150  33.5668800  21.4806630
  87.9437770  33.0765370  21.5232110  87.1562230  34.1566460  22.2338470
  75.1192200  36.3663000  25.2548320  75.8002310  36.6301370  25.8735720
  74.8040250  35.5263870  25.5886330  79.3116770  37.4130360  24.3420910
  79.8194990  37.9111330  24.9825930  79.8430010  36.6365560  24.1660270
  91.4127700  35.5835550  28.0450260  90.7079870  35.9717260  27.5265370
  91.6785620  36.2785840  28.6471190  77.5952870  32.0528920  28.6084330
  77.5971310  32.5701310  27.8030230  76.7657180  31.5759100  28.5854260
  83.9823960  42.1648230  20.1074230  83.3641230  42.6297680  19.5436950
  84.4947210  42.8575710  20.5243740  78.8455720  41.6924100  26.7857830
  78.5125100  42.3193020  27.4278900  79.0222400  42.2185980  26.0059500
  87.3589630  35.5069180  24.2534170  86.6545200  35.7954070  24.8337280
  87.7201790  36.3169290  23.8933730  77.2768200  33.7638880  26.6154780
  77.6185010  34.6080930  26.3208650  76.3384010  33.9122620  26.7320120
  78.0574820  43.6604900  28.6007010  78.6748820  44.3355980  28.3191460
  77.1967940  44.0692880  28.5094510  88.9752410  45.1244310  26.5161650
  88.2915930  45.7943420  26.5078320  89.5146700  45.3224960  25.7506510
  90.4276550  34.9523970  24.6443380  89.4801460  34.9862950  24.7758810
  90.7526540  35.7662920  25.0292740  80.9596090  31.2521150  22.9399370
  81.2671070  30.6968040  22.2234870  80.0296790  31.3865610  22.7572360
  86.5111150  46.9688440  25.2306830  86.5238310  46.5650730  24.3629090
  85.9586370  47.7435730  25.1268260  87.8056570  43.6904660  20.3197000
  87.6952900  42.7478990  20.4446420  87.8024820  44.0520300  21.2059760
  85.9096590  41.8718280  26.5589440  86.3265380  41.6578390  25.7242900
  86.6336410  42.1291070  27.1298060  83.3476850  39.3169980  19.6759490
  82.4206130  39.2507360  19.9047960  83.5001670  40.2550110  19.5614730
  83.3345930  35.5886980  16.6726650  82.3949600  35.7500940  16.7579110
  83.6529190  36.3072660  16.1262640  89.8558690  40.2705500  26.6505680
  89.0277320  40.3398590  26.1755810  90.4509170  40.8559810  26.1821510
  87.3774140  40.8790280  20.1794740  86.7586560  40.5409830  19.5321040
  87.3598590  40.2350040  20.8873930  86.8200700  37.0574820  27.5960550
  86.4071880  37.8828530  27.8500540  86.0876650  36.4719860  27.4036910
  78.9533490  39.8434720  22.4579220  78.5490490  39.1311970  21.9625120
  79.0396610  39.4987960  23.3467260  79.4215190  43.5302280  24.6218430
  79.1243480  42.9247750  23.9426210  80.3715010  43.5679590  24.5107790
  77.6662110  36.6177930  26.2378260  78.2176700  36.7273270  25.4631510
  78.1805620  36.9915530  26.9533490  87.5100800  47.1034150  28.2841530
  87.0331360  47.9106340  28.0914140  86.8262590  46.4512480  28.4367740
  85.5538840  40.1177090  17.1867490  85.9932120  39.2799520  17.0405310
  86.2667260  40.7506490  17.2731630  77.3404840  40.1397290  29.8483600
  77.2012610  41.0120090  30.2171000  76.4586200  39.7970100  29.7031540
  83.6634220  45.0573160  21.1548730  84.1030130  45.7997490  20.7404120
  83.6021110  45.2999730  22.0787690  79.1385190  46.0818990  32.0568750
  79.1100620  46.4861940  31.1897180  78.9750160  45.1529350  31.8940350
  89.1355980  31.3719900  15.5008530  88.8228640  31.4646730  16.4007600
  89.8968450  31.9500930  15.4505960  75.6538120  38.7379700  19.9585870
  75.5335720  39.4641790  19.3467140  75.3439010  37.9682610  19.4813780
  91.0900010  46.8646090  33.3532920  91.5659730  47.3428980  34.0322000
  91.7107170  46.7963580  32.6278420  73.2923490  41.9094840  25.7654510
  73.3703910  42.0443610  24.8210230  73.9065170  41.2010730  25.9582630
  74.5371120  43.6095030  22.1760690  74.1299200  43.7509620  21.3214290
  75.4284130  43.3255190  21.9731900  90.4933260  44.0558940  30.5132930
  90.6196320  43.8170820  29.5950110  90.5354640  43.2243480  30.9855010
  84.3550000  47.7586940  29.0827740  84.8694670  47.6694950  29.8850170
  83.5119080  48.1046640  29.3755650  86.3304400  48.0442280  18.5111740
  86.1705540  47.7545220  19.4093570  86.1651110  47.2682410  17.9756970
  78.8092780  47.8240810  20.2883360  78.6335260  46.9076350  20.0751160
  77.9548520  48.1828100  20.5281160  86.0330530  45.5529840  17.0709740
  85.3395690  45.5507130  16.4112020  86.7753390  45.1289160  16.6403910
  85.5980460  47.1792550  21.1458230  86.0537410  46.3981930  21.4596850
  85.9372980  47.8899370  21.6899410  90.3457270  36.1091400  31.4782670
  89.7301540  36.6171070  30.9498130  90.0253690  35.2089730  31.4208610
  73.3483010  42.9509010  28.3048970  73.5114050  42.4814370  27.4868340
  73.8135460  42.4432570  28.9697810  78.1201780  32.0814770  23.3409540
  77.6769930  32.8624310  23.0094060  78.6786770  32.4044660  24.0480480
  82.4071590  34.9483290  28.9444860  81.9450960  35.1566310  29.7564800
  82.0049700  34.1342640  28.6415530  87.4076100  36.1692240  30.0741520
  86.5569690  35.8697990  30.3950590  87.2477890  36.4134250  29.1625340
  84.5025810  37.6693990  32.1740310  84.8279220  36.8357740  31.8342540
  85.2906140  38.1922510  32.3218640  81.2360600  31.7025470  18.2215370
  80.6114780  31.6985340  18.9468680  81.1490720  30.8356430  17.8251340
  80.1577680  32.6262100  25.1999140  80.4550010  33.5324930  25.1191160
  80.7063240  32.1380880  24.5858710  77.9116000  37.2048340  21.0690790
  77.6856920  36.9885510  21.9737410  77.1308530  37.6376800  20.7236760
  85.1413760  37.2111710  19.6681440  84.5422650  37.9347510  19.4845060
  85.6893370  37.1488490  18.8857890  80.3515210  38.1033920  31.7351060
  80.2558810  37.1628650  31.5851460  81.1947190  38.3248990  31.3399130
  83.7478630  35.8475250  21.6984720  84.1408200  36.1647450  20.8853410
  84.1095480  34.9687130  21.8129240  75.4825750  34.5147590  29.8884840
  75.0889140  35.3622800  30.0957620  74.7944150  33.8773960  30.0793480
  82.0570800  34.5982560  32.9581580  81.3669120  34.4054760  33.5927670
  82.8003100  34.8817200  33.4905880  72.7842800  32.4376050  23.9214920
  72.4955850  33.0078910  24.6339900  73.5288560  31.9580500  24.2846150
  72.9713030  36.3796170  15.1317640  72.8887700  37.3226930  15.2732630
  72.6196090  36.2371080  14.2529990  84.3333770  38.4381000  25.7935500
  83.6014890  38.9467810  26.1425600  83.9358110  37.6210980  25.4924280
  80.7711160  35.1135200  24.1987990  80.7747220  34.6725150  23.3492530
  81.6662280  35.4352530  24.3059810  76.6213540  34.9961690  23.1582200
  76.2813590  35.4736920  23.9149250  75.8590860  34.5426810  22.7983300
  80.8331310  36.1147280  17.1894750  80.9544130  36.0733760  18.1380570
  80.4479820  36.9771430  17.0341480  84.7959680  33.8914680  25.2058440
  84.8132420  34.3423330  26.0500290  84.5475260  32.9920320  25.4191880
  79.8452810  38.4248420  16.5878050  79.2769710  37.9766670  15.9613960
  80.5541810  38.7841200  16.0543200  88.2230430  31.3046860  31.0444820
  88.5476200  30.5736520  31.5702800  88.2586940  30.9860500  30.1425810
  81.0719130  39.1736980  25.9453400  81.4389260  38.6995550  26.6914740
  80.8824190  40.0478550  26.2861740  73.9359620  33.9180670  22.0746870
  73.6506540  33.5536340  22.9125490  73.8738480  33.1861130  21.4610010
  78.8618500  38.2145620  28.2637610  78.5575570  39.0937600  28.4887970
  79.8164960  38.2745410  28.2995050  77.3900290  42.4206610  18.8604460
  76.6162550  41.8804230  18.7003180  78.1194920  41.9013220  18.5222220
  88.1488270  41.4171970  24.6530850  88.8687390  41.9127260  24.2626960
  87.9470090  40.7389860  24.0084720  83.6098210  32.8109930  18.7960240
  82.7962820  32.3123100  18.7205550  83.4160160  33.6508180  18.3796590
  83.5307070  41.4881030  30.5399850  83.4644380  40.5676700  30.2857440
  82.9012210  41.5856470  31.2544490  86.3246600  37.1829580  17.0922400
  87.2126220  37.4946810  16.9173740  86.2951690  36.3101830  16.7002980
  77.4337690  42.0886990  22.4983270  77.9516360  41.2855250  22.4440160
  76.9821710  42.0266130  23.3400100  82.3207190  43.3553270  17.7710570
  82.6622890  44.0995500  17.2753890  81.4919900  43.6684390  18.1335400
  74.9182230  39.0548360  29.4108970  74.5597170  39.7202210  29.9982310
  74.6236790  38.2231910  29.7821590  78.1195350  39.5132600  32.2948520
  77.8195490  39.6589780  31.3976340  78.8906590  38.9537890  32.2021910
  83.4623800  44.3101600  30.2903650  83.4768340  43.3782560  30.0722560
  82.7548900  44.3961360  30.9293420  88.5960870  38.4941420  16.5602260
  88.5124590  38.9255640  15.7098700  89.3155060  38.9539770  16.9929080
  89.6735010  40.9508940  29.6372230  88.9483200  41.5437720  29.4401620
  90.2010470  40.9432480  28.8385600  89.6248120  45.3483680  19.2884390
  88.9824280  44.6939300  19.5628110  89.2378780  45.7538770  18.5125060
  85.2034600  42.6769110  23.1356080  85.5558420  42.0797240  22.4757450
  84.3196930  42.3513340  23.3064330  81.2897880  43.4366800  20.5426490
  81.9769010  43.9836010  20.9234080  80.5030300  43.9807530  20.5776100
  73.4290280  39.0539620  16.0343570  74.2985130  39.3364420  16.3179490
  72.9380600  39.8675490  15.9192380  80.5925090  40.4412830  20.1551850
  81.0487870  41.2518080  20.3812040  80.2413300  40.1235970  20.9870340
  82.8957700  45.9519170  27.3844150  83.5399920  46.1578550  28.0617570
  83.2587140  45.1907570  26.9315000  76.4936870  30.7850480  20.6274370
  76.3651500  30.7768380  21.5759290  75.6698890  31.1233570  20.2765380
  84.1689780  43.9551520  26.1021600  84.8112010  43.2544680  26.2153770
  84.6939130  44.7349960  25.9218490  88.0145500  44.2400140  15.8260740
  87.7883080  43.5230580  16.4185380  87.6241700  43.9912580  14.9882490
  85.9427400  44.7546420  29.3057660  86.2783640  45.3413110  29.9835580
  85.0227740  44.6239130  29.5355450  73.4930800  32.5441600  30.0881070
  72.7789320  32.7438520  30.6933680  73.9125840  31.7681170  30.4595870
  87.5961750  42.1572080  17.4874900  87.3083450  42.6184770  18.2752780
  88.3913920  41.6969850  17.7559120  81.7715980  44.8037750  32.4745720
  81.4512850  44.0846990  33.0191410  81.0974340  45.4792820  32.5481780
  79.8130150  45.6498200  17.4178870  79.8040250  46.3827890  16.8023380
  78.8928510  45.4029780  17.5105830  75.4136790  40.8713090  18.1625630
  74.8064740  41.6111990  18.1720930  75.8886140  40.9612450  17.3363830
  84.9869580  35.0363910  27.8382520  85.3550400  34.2159120  28.1662090
  84.1267780  35.0965800  28.2538170  88.3531610  33.9920850  18.6470080
  87.7244770  34.0966520  17.9328310  87.8583530  34.2117630  19.4363960
  82.7989750  45.7126440  16.0804060  82.9001730  45.5090430  15.1506040
  81.8991490  45.4584720  16.2851840  80.3215640  36.2706800  20.0627960
  79.6131790  36.7393140  20.5041570  80.6060120  35.6128810  20.6973150
  81.9471570  37.6903500  28.0620490  82.4456820  38.1649320  28.7272340
  82.0894520  36.7667020  28.2690520  84.3531070  32.9957460  21.5023750
  84.2298850  33.0143590  20.5533260  85.3015630  33.0436400  21.6222150
  81.4407860  48.2312760  20.7751730  81.6949360  48.1934150  19.8531100
  80.4920340  48.1046090  20.7679980  78.5250660  34.5791880  17.4378670
  79.3741190  35.0162030  17.3718860  78.1581930  34.8912140  18.2650730
  89.1538430  33.9071460  28.9048880  88.6512030  34.6476860  29.2442690
  89.9695090  34.2955460  28.5885670  87.4460440  39.1504640  22.3510240
  86.5050580  39.1654870  22.5257930  87.7604510  38.3640600  22.7970540
  77.4242080  40.8324240  15.9114200  78.1905350  40.7205600  16.4739630
  77.5016770  40.1362210  15.2590970  76.1188840  38.2649310  16.5947090
  76.1992430  37.3176820  16.7064490  77.0108590  38.5956190  16.7007750
  89.4486020  46.3213490  24.0264500  89.5733440  47.1444660  24.4988310
  90.3151580  46.1104220  23.6788650  76.9203550  48.4144700  23.6981630
  77.6566030  47.8660160  23.9690200  77.3044470  49.2800710  23.5587620
  80.0305860  47.5875010  15.5207200  80.8234470  47.8763840  15.0688990
  79.5110210  47.1567180  14.8419680  84.7626460  43.7070640  32.8342620
  84.1564620  43.7302240  32.0938370  84.4580570  42.9753680  33.3709870
  86.1926830  47.4350930  31.4452030  87.1448580  47.3508950  31.3952270
  86.0455050  48.0992640  32.1185820  89.0836030  46.8145140  16.9443940
  88.7977540  46.4010280  16.1298120  88.8855580  47.7432850  16.8244460
  73.6459640  40.0864230  31.8303260  74.1498660  39.5071510  32.4019490
  72.9067060  40.3704460  32.3679630  80.5483260  42.8078420  15.3849550
  80.4433900  42.1930770  16.1110930  80.3807480  42.2844310  14.6012560
  80.6997580  41.4935220  31.3638780  79.9343250  42.0620220  31.2793450
  80.8813540  41.2011430  30.4707010  83.7885990  41.8698450  15.9891540
  83.2396090  42.3167750  16.6334280  84.4105250  41.3647700  16.5129210
  87.8420930  43.2240550  31.9213800  88.5830400  43.5616310  31.4181260
  87.0793610  43.3932610  31.3683570  75.6782720  38.2293820  32.7253330
  75.7188060  37.9307690  33.6338560  76.5328220  38.6301430  32.5660850
  79.4561110  40.8289370  17.8856840  79.8777530  40.6629240  18.7288230
  79.5811950  40.0189600  17.3911980  77.6188530  36.8085920  30.6927820
  77.0884990  36.3176870  30.0651160  78.2876600  37.2370120  30.1585750
  81.9688750  39.8526980  15.1333940  82.4894410  39.1376000  14.7675090
  82.6157150  40.4912850  15.4334450  86.5166590  41.2755380  30.4569010
  86.9307610  41.4300460  31.3059430  85.5817590  41.4010600  30.6194790
  86.9888760  38.6151540  32.4608160  87.5709530  37.8603860  32.3728640
  87.1650530  39.1458980  31.6839640  78.1060830  33.7748290  30.7725110
  78.0117700  33.1569040  30.0475980  77.5258220  34.5014580  30.5455020
  80.8722270  32.3321530  27.8052500  80.4239570  32.3545790  26.9598050
  80.2387470  31.9340550  28.4022800  81.2781820  41.2275860  28.4264940
  81.6969930  42.0708590  28.2541180  80.3590450  41.3647900  28.1971720
  83.6145720  38.9592040  29.8102780  83.7341930  38.3633180  30.5497620
  84.4739720  38.9961730  29.3904080  85.9533620  39.5129230  28.3865290
  85.4268840  40.0371850  27.7830430  86.2964960  40.1456620  29.0175020
  78.3520010  36.9022600  14.8315000  78.1509070  36.0389960  15.1928340
  78.1812060  36.8155960  13.8936600  79.1289240  47.5328870  29.5422670
  78.5910330  48.2574930  29.2231370  79.3823200  47.0559210  28.7520010
  80.3814490  35.5013390  31.0678600  80.9714180  35.1929240  31.7556420
  79.5634730  35.0293140  31.2238500  85.2007920  35.1179200  31.3011620
  84.5123440  34.4560740  31.2361610  85.9213940  34.6717470  31.7460080
  85.8308320  31.7130830  17.3601880  86.1110610  30.8698730  17.7161300
  85.0574050  31.9453940  17.8740630  77.1502810  34.0023220  14.8192880
  77.4528710  34.0090650  13.9112030  77.8897400  33.6521080  15.3160540
  80.3687740  32.9457840  15.8049080  80.0209740  32.2681830  15.2251530
  80.5700510  32.4847350  16.6192470  82.5336780  47.9338590  17.4235680
  83.4287570  48.2723560  17.4454440  82.5654410  47.2118000  16.7959960
  76.1732940  43.3065640  15.6522680  76.6107810  43.8495310  16.3080260
  76.6580670  42.4812590  15.6619020  77.9840660  44.4263680  20.7644910
  77.6836200  44.3028650  21.6648820  77.8778150  43.5672270  20.3560640
  73.8768950  46.9625260  25.8424570  73.4399940  47.1426060  26.6748720
  74.4446630  47.7199880  25.7006290  89.5131130  46.4642260  30.1301880
  88.9133120  46.5234820  29.3865800  89.6425030  45.5247240  30.2598730
  90.7532580  44.2060080  15.4671590  89.9225540  44.2736730  15.9378820
  90.9304410  45.0964200  15.1638450  90.2089040  40.9507560  17.9705790
  90.9707950  41.5204210  18.0765480  90.2243410  40.3834760  18.7414100
  73.7093380  39.4745490  22.2013450  73.0542220  39.2057130  21.5573150
  74.5471330  39.3649970  21.7515430  91.2149010  41.8057660  22.8147720
  91.5857840  41.0224980  22.4083690  91.8550940  42.4946760  22.6365020
  88.1982770  43.1894240  28.2278040  87.3842610  43.6191400  28.4903830
  88.6056970  43.8012650  27.6147090  90.2608210  41.2441930  15.1278310
  90.5357050  42.1520810  14.9997530  90.0718950  41.1804460  16.0640300
  86.6583820  34.2686780  16.4231940  87.0768700  34.0817760  15.5828600
  86.3519880  33.4165830  16.7334870  90.1573550  39.1810920  20.1207740
  89.7817150  38.4138850  19.6889030  89.4276670  39.5633620  20.6082670
  74.7469310  39.8598060  26.7416790  75.1142350  39.7725460  27.6212810
  74.1780130  39.0964610  26.6423650  89.5473170  38.3282440  29.7547260
  89.3159260  38.0995190  28.8545210  89.8077720  39.2481990  29.7092150
  74.2985310  36.7707150  30.6475210  73.4041360  36.7373910  30.9868920
  74.8382860  36.9693940  31.4126460  87.9861240  33.5538870  32.5326960
  88.8631420  33.5622270  32.9160960  87.9982080  32.8169710  31.9219310
  72.9231460  36.6844420  18.1438780  72.0195540  36.9474620  17.9690440
  73.4072080  36.9555590  17.3638740  89.4324510  37.4068410  23.4214980
  89.9561990  36.9131060  22.7905150  90.0183930  37.5418770  24.1662550
  89.6114230  37.4908280  26.9434530  88.6616940  37.4571820  27.0579520
  89.7927240  38.4008390  26.7084300  75.4658670  35.7409960  16.0533160
  76.1750370  35.3193180  15.5680440  74.7498610  35.8085190  15.4216510
  75.1132830  31.7949290  15.0935810  75.8360960  32.3358230  15.4117030
  75.3857350  31.5212710  14.2177350  88.9224480  36.6641760  19.3607390
  89.4183600  36.4312630  20.1456270  88.7240550  35.8253600  18.9445030
  74.8025020  31.0455480  24.9958430  75.4501210  30.4952860  24.5553590
  75.2226860  31.2998630  25.8174240  90.3511640  35.3002710  21.8945070
  90.2410920  35.1458750  22.8327340  91.1119230  34.7723650  21.6520480
  88.6977360  31.2396840  28.3528070  89.3349580  31.8530980  28.7187260
  88.8452250  31.2757500  27.4077300  91.2401910  33.1310630  15.1351210
  92.1651220  32.9991810  14.9269500  91.2177700  33.2103450  16.0887660
  91.3140400  33.9021290  17.7607920  90.5191900  33.8366410  18.2900830
  91.5183680  34.8371930  17.7493270  88.2558820  47.9412840  21.7546310
  88.8517890  47.6197410  21.0780730  88.5136970  47.4684660  22.5459580
  74.5557020  31.2011150  27.7383750  74.2071840  31.6574970  28.5041930
  74.2244720  30.3068280  27.8206180  79.8627420  45.9290340  27.5046660
  79.6218780  46.1964900  26.6177180  80.8030060  46.0996070  27.5597520
  82.0681840  32.3923030  31.2603170  82.0070730  32.9844860  32.0098580
  83.0082220  32.2848990  31.1153430  84.7056400  32.0493090  30.8995460
  85.3196810  32.3672380  30.2376540  85.2505960  31.5641680  31.5191320
  91.1231580  47.9484720  28.3057300  90.6289860  48.3453590  27.5884430
  90.5144870  47.3233930  28.6994580  75.2277660  30.7287350  31.0134520
  75.7760650  30.5475400  30.2500630  75.2932970  29.9381460  31.5490830
  76.0009420  47.3193000  29.0234720  75.4069740  47.1877700  29.7624760
  75.9933260  46.4831140  28.5576820  85.4464440  30.6125230  27.2264750
  84.5724280  30.9460340  27.0237680  85.3375190  30.1398410  28.0516620
  86.3536420  32.8196100  28.6106470  86.0249780  32.0047860  28.2308200
  87.3018720  32.7765910  28.4872160  88.8071030  48.5908140  25.5844040
  88.3474000  49.3423950  25.2102060  88.1783490  47.8714610  25.5258840
  75.6321650  44.6851380  27.9742760  74.9055710  44.0656670  27.9068710
  75.6930800  45.0791990  27.1040840  79.2366750  46.8996380  24.7592170
  79.7531770  46.2883740  24.2340430  79.8864130  47.4025160  25.2503180
  81.9762250  47.7904870  25.5861150  82.2640060  47.5359170  24.7094160
  82.4885470  47.2382230  26.1766720  83.1939260  31.5295070  26.1657660
  82.4111050  32.0040570  26.4454420  82.9002190  30.6249900  26.0570840
  87.7460330  32.2318170  24.2106750  88.1868420  32.1763270  23.3628350
  87.4767920  33.1476180  24.2816930  89.6098900  31.8633410  22.2215570
  89.5487300  30.9194630  22.0746590  90.3890930  31.9713500  22.7669030
  74.5379670  31.8342550  18.6871380  75.2959030  31.9471430  18.1135410
  74.0756840  32.6711750  18.6414810  81.0793480  33.9481820  21.6773690
  80.2667990  33.5738710  21.3369570  81.5835120  33.1926900  21.9794880
  85.5818460  30.6124270  22.9156760  86.1847830  31.1844480  23.3905280
  84.8411450  31.1763710  22.6930660  88.7253060  31.0145830  18.1897040
  88.9203690  31.9129280  18.4564470  87.9382930  30.7832910  18.6829990
  76.9104820  32.3606600  17.2273350  77.4397580  31.5736400  17.0981300
  77.5433140  33.0397790  17.4608880  79.1042660  32.0981740  20.2818740
  78.4745400  31.3969050  20.4488870  78.5647800  32.8585870  20.0651900
  90.2779670  48.2546540  19.9503600  90.4531860  47.5684280  19.3064520
  89.5801240  48.7793590  19.5580270  79.2298220  31.3765720  32.7171230
  78.9482490  31.8799320  31.9532050  79.6117920  30.5787470  32.3513360
  78.1207320  48.6441380  17.5038910  78.8526140  48.3600660  16.9562800
  78.3800990  48.4054660  18.3938290  85.8313680  30.7919300  33.2951700
  85.7179130  31.1113910  34.1903220  86.6483420  31.1931810  32.9988980
  88.6112170  47.9390830  32.7770390  89.4037490  47.4440060  32.5696350
  88.9045320  48.6180970  33.3846000  84.7371830  38.8111770   3.6586440
  84.6565880  37.8966380   3.3878150  84.3236250  39.3078840   2.9526150
  82.8689870  40.5890790   5.5395710  82.0931970  40.1091230   5.8294280
  83.5202800  39.9096440   5.3651870  76.8855700  40.9010600   6.4171470
  76.0540580  40.6459310   6.8167980  77.4936680  40.9721370   7.1529390
  86.8897300  44.9950980   4.3194840  86.4278830  44.2238220   4.6482010
  87.7022850  45.0217050   4.8247290  76.8656960  44.9350690   6.6129490
  77.1685000  44.0448430   6.4339710  77.6100550  45.4920910   6.3851740
  73.2580660  38.4618140   6.0853560  73.8296770  37.6940340   6.0857200
  73.2582200  38.7606900   5.1760170  83.1160610  47.2808990   3.9398830
  82.4972050  47.7366490   3.3693270  83.9712390  47.4360450   3.5388530
  82.3098860  43.2647980   5.5465870  82.2407140  42.3237920   5.3855000
  83.0718720  43.3549390   6.1188440  74.5005530  33.8702500   7.8722490
  74.3208370  32.9728250   8.1525250  74.0985610  34.4174370   8.5469440
  83.3404030  36.0718360   5.7734800  83.7168850  35.1990240   5.6608470
  83.2423540  36.4077060   4.8825240  87.1228150  33.5668800   2.7063140
  87.9437770  33.0765370   2.7488620  87.1562230  34.1566460   3.4594980
  75.1192200  36.3663000   6.4804830  75.8002310  36.6301370   7.0992230
  74.8040250  35.5263870   6.8142840  79.3116770  37.4130360   5.5677420
  79.8194990  37.9111330   6.2082440  79.8430010  36.6365560   5.3916780
  91.4127700  35.5835550   9.2706770  90.7079870  35.9717260   8.7521880
  91.6785620  36.2785840   9.8727700  77.5952870  32.0528920   9.8340840
  77.5971310  32.5701310   9.0286740  76.7657180  31.5759100   9.8110770
  78.8455720  41.6924100   8.0114340  78.5125100  42.3193020   8.6535410
  79.0222400  42.2185980   7.2316010  87.3589630  35.5069180   5.4790680
  86.6545200  35.7954070   6.0593790  87.7201790  36.3169290   5.1190240
  77.2768200  33.7638880   7.8411290  77.6185010  34.6080930   7.5465160
  76.3384010  33.9122620   7.9576630  78.0574820  43.6604900   9.8263520
  78.6748820  44.3355980   9.5447970  77.1967940  44.0692880   9.7351020
  88.9752410  45.1244310   7.7418160  88.2915930  45.7943420   7.7334830
  89.5146700  45.3224960   6.9763020  90.4276550  34.9523970   5.8699890
  89.4801460  34.9862950   6.0015320  90.7526540  35.7662920   6.2549250
  80.9596090  31.2521150   4.1655880  81.2671070  30.6968040   3.4491380
  80.0296790  31.3865610   3.9828870  86.5111150  46.9688440   6.4563340
  86.5238310  46.5650730   5.5885600  85.9586370  47.7435730   6.3524770
  85.9096590  41.8718280   7.7845950  86.3265380  41.6578390   6.9499410
  86.6336410  42.1291070   8.3554570  89.8558690  40.2705500   7.8762190
  89.0277320  40.3398590   7.4012320  90.4509170  40.8559810   7.4078020
  86.8200700  37.0574820   8.8217060  86.4071880  37.8828530   9.0757050
  86.0876650  36.4719860   8.6293420  78.9533490  39.8434720   3.6835730
  78.5490490  39.1311970   3.1881630  79.0396610  39.4987960   4.5723770
  79.4215190  43.5302280   5.8474940  79.1243480  42.9247750   5.1682720
  80.3715010  43.5679590   5.7364300  77.6662110  36.6177930   7.4634770
  78.2176700  36.7273270   6.6888020  78.1805620  36.9915530   8.1790000
  87.5100800  47.1034150   9.5098040  87.0331360  47.9106340   9.3170650
  86.8262590  46.4512480   9.6624250  78.5133620  43.2683970  12.4982740
  77.6162150  43.4923940  12.7456140  78.5386490  43.3918910  11.5494140
  77.3404840  40.1397290  11.0740110  77.2012610  41.0120090  11.4427510
  76.4586200  39.7970100  10.9288050  83.6634220  45.0573160   2.3805240
  84.1030130  45.7997490   1.9660630  83.6021110  45.2999730   3.3044200
  79.1385190  46.0818990  13.2825260  79.1100620  46.4861940  12.4153690
  78.9750160  45.1529350  13.1196860  91.0900010  46.8646090  14.5789430
  91.5659730  47.3428980  15.2578510  91.7107170  46.7963580  13.8534930
  73.2923490  41.9094840   6.9911020  73.3703910  42.0443610   6.0466740
  73.9065170  41.2010730   7.1839140  74.5371120  43.6095030   3.4017200
  74.1299200  43.7509620   2.5470800  75.4284130  43.3255190   3.1988410
  90.4933260  44.0558940  11.7389440  90.6196320  43.8170820  10.8206620
  90.5354640  43.2243480  12.2111520  84.3550000  47.7586940  10.3084250
  84.8694670  47.6694950  11.1106680  83.5119080  48.1046640  10.6012160
  85.5980460  47.1792550   2.3714740  86.0537410  46.3981930   2.6853360
  85.9372980  47.8899370   2.9155920  90.3457270  36.1091400  12.7039180
  89.7301540  36.6171070  12.1754640  90.0253690  35.2089730  12.6465120
  73.3483010  42.9509010   9.5305480  73.5114050  42.4814370   8.7124850
  73.8135460  42.4432570  10.1954320  78.1201780  32.0814770   4.5666050
  77.6769930  32.8624310   4.2350570  78.6786770  32.4044660   5.2736990
  82.4071590  34.9483290  10.1701370  81.9450960  35.1566310  10.9821310
  82.0049700  34.1342640   9.8672040  87.4076100  36.1692240  11.2998030
  86.5569690  35.8697990  11.6207100  87.2477890  36.4134250  10.3881850
  84.5025810  37.6693990  13.3996820  84.8279220  36.8357740  13.0599050
  85.2906140  38.1922510  13.5475150  80.1577680  32.6262100   6.4255650
  80.4550010  33.5324930   6.3447670  80.7063240  32.1380880   5.8115220
  77.9116000  37.2048340   2.2947300  77.6856920  36.9885510   3.1993920
  77.1308530  37.6376800   1.9493270  80.3515210  38.1033920  12.9607570
  80.2558810  37.1628650  12.8107970  81.1947190  38.3248990  12.5655640
  83.7478630  35.8475250   2.9241230  84.1408200  36.1647450   2.1109920
  84.1095480  34.9687130   3.0385750  75.4825750  34.5147590  11.1141350
  75.0889140  35.3622800  11.3214130  74.7944150  33.8773960  11.3049990
  82.0570800  34.5982560  14.1838090  81.3669120  34.4054760  14.8184180
  82.8003100  34.8817200  14.7162390  72.7842800  32.4376050   5.1471430
  72.4955850  33.0078910   5.8596410  73.5288560  31.9580500   5.5102660
  84.3333770  38.4381000   7.0192010  83.6014890  38.9467810   7.3682110
  83.9358110  37.6210980   6.7180790  80.7711160  35.1135200   5.4244500
  80.7747220  34.6725150   4.5749040  81.6662280  35.4352530   5.5316320
  76.6213540  34.9961690   4.3838710  76.2813590  35.4736920   5.1405760
  75.8590860  34.5426810   4.0239810  84.7959680  33.8914680   6.4314950
  84.8132420  34.3423330   7.2756800  84.5475260  32.9920320   6.6448390
  88.2230430  31.3046860  12.2701330  88.5476200  30.5736520  12.7959310
  88.2586940  30.9860500  11.3682320  74.9221990  42.3260440  11.6901290
  74.5376780  41.6854110  12.2884250  75.2334180  43.0296560  12.2596020
  81.0719130  39.1736980   7.1709910  81.4389260  38.6995550   7.9171250
  80.8824190  40.0478550   7.5118250  73.9359620  33.9180670   3.3003380
  73.6506540  33.5536340   4.1382000  73.8738480  33.1861130   2.6866520
  78.8618500  38.2145620   9.4894120  78.5575570  39.0937600   9.7144480
  79.8164960  38.2745410   9.5251560  88.1488270  41.4171970   5.8787360
  88.8687390  41.9127260   5.4883470  87.9470090  40.7389860   5.2341230
  83.5307070  41.4881030  11.7656360  83.4644380  40.5676700  11.5113950
  82.9012210  41.5856470  12.4801000  77.4337690  42.0886990   3.7239780
  77.9516360  41.2855250   3.6696670  76.9821710  42.0266130   4.5656610
  74.9182230  39.0548360  10.6365480  74.5597170  39.7202210  11.2238820
  74.6236790  38.2231910  11.0078100  78.1195350  39.5132600  13.5205030
  77.8195490  39.6589780  12.6232850  78.8906590  38.9537890  13.4278420
  83.4623800  44.3101600  11.5160160  83.4768340  43.3782560  11.2979070
  82.7548900  44.3961360  12.1549930  89.6735010  40.9508940  10.8628740
  88.9483200  41.5437720  10.6658130  90.2010470  40.9432480  10.0642110
  85.2034600  42.6769110   4.3612590  85.5558420  42.0797240   3.7013960
  84.3196930  42.3513340   4.5320840  81.2897880  43.4366800   1.7683000
  81.9769010  43.9836010   2.1490590  80.5030300  43.9807530   1.8032610
  82.8957700  45.9519170   8.6100660  83.5399920  46.1578550   9.2874080
  83.2587140  45.1907570   8.1571510  84.1689780  43.9551520   7.3278110
  84.8112010  43.2544680   7.4410280  84.6939130  44.7349960   7.1475000
  85.9427400  44.7546420  10.5314170  86.2783640  45.3413110  11.2092090
  85.0227740  44.6239130  10.7611960  73.4930800  32.5441600  11.3137580
  72.7789320  32.7438520  11.9190190  73.9125840  31.7681170  11.6852380
  73.7803390  46.5321860  12.3004110  73.8894510  45.5916600  12.1599500
  73.1283950  46.7976610  11.6517840  81.7715980  44.8037750  13.7002230
  81.4512850  44.0846990  14.2447920  81.0974340  45.4792820  13.7738290
  84.9869580  35.0363910   9.0639030  85.3550400  34.2159120   9.3918600
  84.1267780  35.0965800   9.4794680  81.9471570  37.6903500   9.2877000
  82.4456820  38.1649320   9.9528850  82.0894520  36.7667020   9.4947030
  84.3531070  32.9957460   2.7280260  84.2298850  33.0143590   1.7789770
  85.3015630  33.0436400   2.8478660  89.1538430  33.9071460  10.1305390
  88.6512030  34.6476860  10.4699200  89.9695090  34.2955460   9.8142180
  87.4460440  39.1504640   3.5766750  86.5050580  39.1654870   3.7514440
  87.7604510  38.3640600   4.0227050  89.4486020  46.3213490   5.2521010
  89.5733440  47.1444660   5.7244820  90.3151580  46.1104220   4.9045160
  76.9203550  48.4144700   4.9238140  77.6566030  47.8660160   5.1946710
  77.3044470  49.2800710   4.7844130  75.9261830  47.5990770  14.1123720
  76.7274560  47.9202820  14.5259120  75.4113650  47.2386350  14.8343630
  84.7626460  43.7070640  14.0599130  84.1564620  43.7302240  13.3194880
  84.4580570  42.9753680  14.5966380  86.1926830  47.4350930  12.6708540
  87.1448580  47.3508950  12.6208780  86.0455050  48.0992640  13.3442330
  73.6459640  40.0864230  13.0559770  74.1498660  39.5071510  13.6276000
  72.9067060  40.3704460  13.5936140  80.6997580  41.4935220  12.5895290
  79.9343250  42.0620220  12.5049960  80.8813540  41.2011430  11.6963520
  87.8420930  43.2240550  13.1470310  88.5830400  43.5616310  12.6437770
  87.0793610  43.3932610  12.5940080  75.6782720  38.2293820  13.9509840
  75.7188060  37.9307690  14.8595070  76.5328220  38.6301430  13.7917360
  77.6188530  36.8085920  11.9184330  77.0884990  36.3176870  11.2907670
  78.2876600  37.2370120  11.3842260  86.5166590  41.2755380  11.6825520
  86.9307610  41.4300460  12.5315940  85.5817590  41.4010600  11.8451300
  86.9888760  38.6151540  13.6864670  87.5709530  37.8603860  13.5985150
  87.1650530  39.1458980  12.9096150  78.1060830  33.7748290  11.9981620
  78.0117700  33.1569040  11.2732490  77.5258220  34.5014580  11.7711530
  80.8722270  32.3321530   9.0309010  80.4239570  32.3545790   8.1854560
  80.2387470  31.9340550   9.6279310  81.2781820  41.2275860   9.6521450
  81.6969930  42.0708590   9.4797690  80.3590450  41.3647900   9.4228230
  83.6145720  38.9592040  11.0359290  83.7341930  38.3633180  11.7754130
  84.4739720  38.9961730  10.6160590  85.9533620  39.5129230   9.6121800
  85.4268840  40.0371850   9.0086940  86.2964960  40.1456620  10.2431530
  79.1289240  47.5328870  10.7679180  78.5910330  48.2574930  10.4487880
  79.3823200  47.0559210   9.9776520  80.3814490  35.5013390  12.2935110
  80.9714180  35.1929240  12.9812930  79.5634730  35.0293140  12.4495010
  85.2007920  35.1179200  12.5268130  84.5123440  34.4560740  12.4618120
  85.9213940  34.6717470  12.9716590  81.9851450  48.7680080  11.0265830
  81.9110150  49.6715220  11.3338200  81.0830290  48.4491980  10.9987900
  73.3878740  46.0954670   4.3299450  73.7181750  45.2275730   4.0978090
  73.8169740  46.3013190   5.1604410  73.8768950  46.9625260   7.0681080
  73.4399940  47.1426060   7.9005230  74.4446630  47.7199880   6.9262800
  89.5131130  46.4642260  11.3558390  88.9133120  46.5234820  10.6122310
  89.6425030  45.5247240  11.4855240  73.7093380  39.4745490   3.4269960
  73.0542220  39.2057130   2.7829660  74.5471330  39.3649970   2.9771940
  91.2149010  41.8057660   4.0404230  91.5857840  41.0224980   3.6340200
  91.8550940  42.4946760   3.8621530  88.1982770  43.1894240   9.4534550
  87.3842610  43.6191400   9.7160340  88.6056970  43.8012650   8.8403600
  74.7469310  39.8598060   7.9673300  75.1142350  39.7725460   8.8469320
  74.1780130  39.0964610   7.8680160  89.5473170  38.3282440  10.9803770
  89.3159260  38.0995190  10.0801720  89.8077720  39.2481990  10.9348660
  74.2985310  36.7707150  11.8731720  73.4041360  36.7373910  12.2125430
  74.8382860  36.9693940  12.6382970  87.9861240  33.5538870  13.7583470
  88.8631420  33.5622270  14.1417470  87.9982080  32.8169710  13.1475820
  89.4324510  37.4068410   4.6471490  89.9561990  36.9131060   4.0161660
  90.0183930  37.5418770   5.3919060  89.6114230  37.4908280   8.1691040
  88.6616940  37.4571820   8.2836030  89.7927240  38.4008390   7.9340810
  74.8025020  31.0455480   6.2214940  75.4501210  30.4952860   5.7810100
  75.2226860  31.2998630   7.0430750  90.3511640  35.3002710   3.1201580
  90.2410920  35.1458750   4.0583850  91.1119230  34.7723650   2.8776990
  88.6977360  31.2396840   9.5784580  89.3349580  31.8530980   9.9443770
  88.8452250  31.2757500   8.6333810  88.2558820  47.9412840   2.9802820
  88.8517890  47.6197410   2.3037240  88.5136970  47.4684660   3.7716090
  74.5557020  31.2011150   8.9640260  74.2071840  31.6574970   9.7298440
  74.2244720  30.3068280   9.0462690  76.1621390  44.3730750  13.1293450
  76.1191020  44.0023660  14.0107910  76.2932400  45.3108320  13.2695270
  79.8627420  45.9290340   8.7303170  79.6218780  46.1964900   7.8433690
  80.8030060  46.0996070   8.7854030  82.0681840  32.3923030  12.4859680
  82.0070730  32.9844860  13.2355090  83.0082220  32.2848990  12.3409940
  84.7056400  32.0493090  12.1251970  85.3196810  32.3672380  11.4633050
  85.2505960  31.5641680  12.7447830  91.1231580  47.9484720   9.5313810
  90.6289860  48.3453590   8.8140940  90.5144870  47.3233930   9.9251090
  75.2277660  30.7287350  12.2391030  75.7760650  30.5475400  11.4757140
  75.2932970  29.9381460  12.7747340  76.0009420  47.3193000  10.2491230
  75.4069740  47.1877700  10.9881270  75.9933260  46.4831140   9.7833330
  85.4464440  30.6125230   8.4521260  84.5724280  30.9460340   8.2494190
  85.3375190  30.1398410   9.2773130  86.3536420  32.8196100   9.8362980
  86.0249780  32.0047860   9.4564710  87.3018720  32.7765910   9.7128670
  88.8071030  48.5908140   6.8100550  88.3474000  49.3423950   6.4358570
  88.1783490  47.8714610   6.7515350  75.6321650  44.6851380   9.1999270
  74.9055710  44.0656670   9.1325220  75.6930800  45.0791990   8.3297350
  79.2366750  46.8996380   5.9848680  79.7531770  46.2883740   5.4596940
  79.8864130  47.4025160   6.4759690  81.9762250  47.7904870   6.8117660
  82.2640060  47.5359170   5.9350670  82.4885470  47.2382230   7.4023230
  83.1939260  31.5295070   7.3914170  82.4111050  32.0040570   7.6710930
  82.9002190  30.6249900   7.2827350  87.7460330  32.2318170   5.4363260
  88.1868420  32.1763270   4.5884860  87.4767920  33.1476180   5.5073440
  89.6098900  31.8633410   3.4472080  89.5487300  30.9194630   3.3003100
  90.3890930  31.9713500   3.9925540  73.9151650  48.0025770   2.4096030
  73.7473690  47.3696450   3.1077920  73.0486160  48.2085170   2.0590220
  81.0793480  33.9481820   2.9030200  80.2667990  33.5738710   2.5626080
  81.5835120  33.1926900   3.2051390  85.5818460  30.6124270   4.1413270
  86.1847830  31.1844480   4.6161790  84.8411450  31.1763710   3.9187170
  82.0434610  48.7120970  14.1785860  82.9701920  48.4765240  14.2221820
  82.0285040  49.5392970  13.6971890  79.2298220  31.3765720  13.9427740
  78.9482490  31.8799320  13.1788560  79.6117920  30.5787470  13.5769870
  85.8313680  30.7919300  14.5208210  85.7179130  31.1113910  15.4159730
  86.6483420  31.1931810  14.2245490  88.6112170  47.9390830  14.0026900
  89.4037490  47.4440060  13.7952860  88.9045320  48.6180970  14.6102510
  84.7371830  20.0368280  97.5303890  84.6565880  19.1222890  97.2595600
  84.3236250  20.5335350  96.8243600  82.8689870  21.8147300  99.4113160
  82.0931970  21.3347740  99.7011730  83.5202800  21.1352950  99.2369320
  76.8855700  22.1267110 100.2888920  76.0540580  21.8715820 100.6885430
  77.4936680  22.1977880 101.0246840  86.8897300  26.2207490  98.1912290
  86.4278830  25.4494730  98.5199460  87.7022850  26.2473560  98.6964740
  76.8656960  26.1607200 100.4846940  77.1685000  25.2704940 100.3057160
  77.6100550  26.7177420 100.2569190  75.2947650  17.0869000  94.0731310
  74.4064350  17.4284970  93.9711190  75.5788840  16.8869320  93.1812140
  73.2580660  19.6874650  99.9571010  73.8296770  18.9196850  99.9574650
  73.2582200  19.9863410  99.0477620  83.1160610  28.5065500  97.8116280
  82.4972050  28.9623000  97.2410720  83.9712390  28.6616960  97.4105980
  82.3098860  24.4904490  99.4183320  82.2407140  23.5494430  99.2572450
  83.0718720  24.5805900  99.9905890  74.5005530  15.0959010 101.7439940
  74.3208370  14.1984760 102.0242700  74.0985610  15.6430880 102.4186890
  83.3404030  17.2974870  99.6452250  83.7168850  16.4246750  99.5325920
  83.2423540  17.6333570  98.7542690  77.4709040  15.6700500  95.1069690
  77.5775790  16.5704230  95.4138450  76.5601400  15.6218470  94.8164340
  87.1228150  14.7925310  96.5780590  87.9437770  14.3021880  96.6206070
  87.1562230  15.3822970  97.3312430  75.1192200  17.5919510 100.3522280
  75.8002310  17.8557880 100.9709680  74.8040250  16.7520380 100.6860290
  79.3116770  18.6386870  99.4394870  79.8194990  19.1367840 100.0799890
  79.8430010  17.8622070  99.2634230  83.9823960  23.3904740  95.2048190
  83.3641230  23.8554190  94.6410910  84.4947210  24.0832220  95.6217700
  78.8455720  22.9180610 101.8831790  78.5125100  23.5449530 102.5252860
  79.0222400  23.4442490 101.1033460  87.3589630  16.7325690  99.3508130
  86.6545200  17.0210580  99.9311240  87.7201790  17.5425800  98.9907690
  77.2768200  14.9895390 101.7128740  77.6185010  15.8337440 101.4182610
  76.3384010  15.1379130 101.8294080  73.3507160  24.0761270  92.5787820
  72.9735140  24.5648370  91.8472720  73.6080230  24.7486550  93.2094350
  88.9752410  26.3500820 101.6135610  88.2915930  27.0199930 101.6052280
  89.5146700  26.5481470 100.8480470  90.4276550  16.1780480  99.7417340
  89.4801460  16.2119460  99.8732770  90.7526540  16.9919430 100.1266700
  80.9596090  12.4777660  98.0373330  81.2671070  11.9224550  97.3208830
  80.0296790  12.6122120  97.8546320  86.5111150  28.1944950 100.3280790
  86.5238310  27.7907240  99.4603050  85.9586370  28.9692240 100.2242220
  87.8056570  24.9161170  95.4170960  87.6952900  23.9735500  95.5420380
  87.8024820  25.2776810  96.3033720  85.9096590  23.0974790 101.6563400
  86.3265380  22.8834900 100.8216860  86.6336410  23.3547580 102.2272020
  83.3476850  20.5426490  94.7733450  82.4206130  20.4763870  95.0021920
  83.5001670  21.4806620  94.6588690  83.3345930  16.8143490  91.7700610
  82.3949600  16.9757450  91.8553070  83.6529190  17.5329170  91.2236600
  89.8558690  21.4962010 101.7479640  89.0277320  21.5655100 101.2729770
  90.4509170  22.0816320 101.2795470  87.3774140  22.1046790  95.2768700
  86.7586560  21.7666340  94.6295000  87.3598590  21.4606550  95.9847890
  78.9533490  21.0691230  97.5553180  78.5490490  20.3568480  97.0599080
  79.0396610  20.7244470  98.4441220  79.4215190  24.7558790  99.7192390
  79.1243480  24.1504260  99.0400170  80.3715010  24.7936100  99.6081750
  77.6662110  17.8434440 101.3352220  78.2176700  17.9529780 100.5605470
  78.1805620  18.2172040 102.0507450  85.5538840  21.3433600  92.2841450
  85.9932120  20.5056030  92.1379270  86.2667260  21.9763000  92.3705590
  83.6634220  26.2829670  96.2522690  84.1030130  27.0254000  95.8378080
  83.6021110  26.5256240  97.1761650  89.1355980  12.5976410  90.5982490
  88.8228640  12.6903240  91.4981560  89.8968450  13.1757440  90.5479920
  75.6538120  19.9636210  95.0559830  75.5335720  20.6898300  94.4441100
  75.3439010  19.1939120  94.5787740  73.2923490  23.1351350 100.8628470
  73.3703910  23.2700120  99.9184190  73.9065170  22.4267240 101.0556590
  74.5371120  24.8351540  97.2734650  74.1299200  24.9766130  96.4188250
  75.4284130  24.5511700  97.0705860  86.3304400  29.2698790  93.6085700
  86.1705540  28.9801730  94.5067530  86.1651110  28.4938920  93.0730930
  78.8092780  29.0497320  95.3857320  78.6335260  28.1332860  95.1725120
  77.9548520  29.4084610  95.6255120  86.0330530  26.7786350  92.1683700
  85.3395690  26.7763640  91.5085980  86.7753390  26.3545670  91.7377870
  85.5980460  28.4049060  96.2432190  86.0537410  27.6238440  96.5570810
  85.9372980  29.1155880  96.7873370  78.1201780  13.3071280  98.4383500
  77.6769930  14.0880820  98.1068020  78.6786770  13.6301170  99.1454440
  81.2360600  12.9281980  93.3189330  80.6114780  12.9241850  94.0442640
  81.1490720  12.0612940  92.9225300  80.1577680  13.8518610 100.2973100
  80.4550010  14.7581440 100.2165120  80.7063240  13.3637390  99.6832670
  77.9116000  18.4304850  96.1664750  77.6856920  18.2142020  97.0711370
  77.1308530  18.8633310  95.8210720  85.1413760  18.4368220  94.7655400
  84.5422650  19.1604020  94.5819020  85.6893370  18.3745000  93.9831850
  83.7478630  17.0731760  96.7958680  84.1408200  17.3903960  95.9827370
  84.1095480  16.1943640  96.9103200  72.7842800  13.6632560  99.0188880
  72.4955850  14.2335420  99.7313860  73.5288560  13.1837010  99.3820110
  72.9713030  17.6052680  90.2291600  72.8887700  18.5483440  90.3706590
  72.6196090  17.4627590  89.3503950  84.3333770  19.6637510 100.8909460
  83.6014890  20.1724320 101.2399560  83.9358110  18.8467490 100.5898240
  80.7711160  16.3391710  99.2961950  80.7747220  15.8981660  98.4466490
  81.6662280  16.6609040  99.4033770  76.6213540  16.2218200  98.2556160
  76.2813590  16.6993430  99.0123210  75.8590860  15.7683320  97.8957260
  80.8331310  17.3403790  92.2868710  80.9544130  17.2990270  93.2354530
  80.4479820  18.2027940  92.1315440  84.7959680  15.1171190 100.3032400
  84.8132420  15.5679840 101.1474250  84.5475260  14.2176830 100.5165840
  79.8452810  19.6504930  91.6852010  79.2769710  19.2023180  91.0587920
  80.5541810  20.0097710  91.1517160  81.0719130  20.3993490 101.0427360
  81.4389260  19.9252060 101.7888700  80.8824190  21.2735060 101.3835700
  73.9359620  15.1437180  97.1720830  73.6506540  14.7792850  98.0099450
  73.8738480  14.4117640  96.5583970  77.3900290  23.6463120  93.9578420
  76.6162550  23.1060740  93.7977140  78.1194920  23.1269730  93.6196180
  88.1488270  22.6428480  99.7504810  88.8687390  23.1383770  99.3600920
  87.9470090  21.9646370  99.1058680  83.6098210  14.0366440  93.8934200
  82.7962820  13.5379610  93.8179510  83.4160160  14.8764690  93.4770550
  86.3246600  18.4086090  92.1896360  87.2126220  18.7203320  92.0147700
  86.2951690  17.5358340  91.7976940  77.4337690  23.3143500  97.5957230
  77.9516360  22.5111760  97.5414120  76.9821710  23.2522640  98.4374060
  82.3207190  24.5809780  92.8684530  82.6622890  25.3252010  92.3727850
  81.4919900  24.8940900  93.2309360  88.5960870  19.7197930  91.6576220
  88.5124590  20.1512150  90.8072660  89.3155060  20.1796280  92.0903040
  89.6248120  26.5740190  94.3858350  88.9824280  25.9195810  94.6602070
  89.2378780  26.9795280  93.6099020  85.2034600  23.9025620  98.2330040
  85.5558420  23.3053750  97.5731410  84.3196930  23.5769850  98.4038290
  81.2897880  24.6623310  95.6400450  81.9769010  25.2092520  96.0208040
  80.5030300  25.2064040  95.6750060  73.4290280  20.2796130  91.1317530
  74.2985130  20.5620930  91.4153450  72.9380600  21.0932000  91.0166340
  80.5925090  21.6669340  95.2525810  81.0487870  22.4774590  95.4786000
  80.2413300  21.3492480  96.0844300  76.4936870  12.0106990  95.7248330
  76.3651500  12.0024890  96.6733250  75.6698890  12.3490080  95.3739340
  84.1689780  25.1808030 101.1995560  84.8112010  24.4801190 101.3127730
  84.6939130  25.9606470 101.0192450  88.0145500  25.4656650  90.9234700
  87.7883080  24.7487090  91.5159340  87.6241700  25.2169090  90.0856450
  73.7961530  29.4923510  91.6979160  74.1559170  30.0912850  91.0436430
  73.6553870  30.0383400  92.4714190  87.5961750  23.3828590  92.5848860
  87.3083450  23.8441280  93.3726740  88.3913920  22.9226360  92.8533080
  79.8130150  26.8754710  92.5152830  79.8040250  27.6084400  91.8997340
  78.8928510  26.6286290  92.6079790  75.4136790  22.0969600  93.2599590
  74.8064740  22.8368500  93.2694890  75.8886140  22.1868960  92.4337790
  88.3531610  15.2177360  93.7444040  87.7244770  15.3223030  93.0302270
  87.8583530  15.4374140  94.5337920  82.7989750  26.9382950  91.1778020
  82.9001730  26.7346940  90.2480000  81.8991490  26.6841230  91.3825800
  80.3215640  17.4963310  95.1601920  79.6131790  17.9649650  95.6015530
  80.6060120  16.8385320  95.7947110  84.3531070  14.2213970  96.5997710
  84.2298850  14.2400100  95.6507220  85.3015630  14.2692910  96.7196110
  81.4407860  29.4569270  95.8725690  81.6949360  29.4190660  94.9505060
  80.4920340  29.3302600  95.8653940  78.5250660  15.8048390  92.5352630
  79.3741190  16.2418540  92.4692820  78.1581930  16.1168650  93.3624690
  87.4460440  20.3761150  97.4484200  86.5050580  20.3911380  97.6231890
  87.7604510  19.5897110  97.8944500  77.4242080  22.0580750  91.0088160
  78.1905350  21.9462110  91.5713590  77.5016770  21.3618720  90.3564930
  76.1188840  19.4905820  91.6921050  76.1992430  18.5433330  91.8038450
  77.0108590  19.8212700  91.7981710  89.4486020  27.5470000  99.1238460
  89.5733440  28.3701170  99.5962270  90.3151580  27.3360730  98.7762610
  76.9203550  29.6401210  98.7955590  77.6566030  29.0916670  99.0664160
  77.3044470  30.5057220  98.6561580  73.8049030  25.7074780  94.6697100
  72.8788810  25.9495920  94.6602510  74.2705460  26.5349040  94.5481850
  80.0305860  28.8131520  90.6181160  80.8234470  29.1020350  90.1662950
  79.5110210  28.3823690  89.9393640  89.0836030  28.0401650  92.0417900
  88.7977540  27.6266790  91.2272080  88.8855580  28.9689360  91.9218420
  80.5483260  24.0334930  90.4823510  80.4433900  23.4187280  91.2084890
  80.3807480  23.5100820  89.6986520  83.7885990  23.0954960  91.0865500
  83.2396090  23.5424260  91.7308240  84.4105250  22.5904210  91.6103170
  79.4561110  22.0545880  92.9830800  79.8777530  21.8885750  93.8262190
  79.5811950  21.2446110  92.4885940  81.9688750  21.0783490  90.2307900
  82.4894410  20.3632510  89.8649050  82.6157150  21.7169360  90.5308410
  78.3520010  18.1279110  89.9288960  78.1509070  17.2646470  90.2902300
  78.1812060  18.0412470  88.9910560  85.8308320  12.9387340  92.4575840
  86.1110610  12.0955240  92.8135260  85.0574050  13.1710450  92.9714590
  77.1502810  15.2279730  89.9166840  77.4528710  15.2347160  89.0085990
  77.8897400  14.8777590  90.4134500  80.3687740  14.1714350  90.9023040
  80.0209740  13.4938340  90.3225490  80.5700510  13.7103860  91.7166430
  82.5336780  29.1595100  92.5209640  83.4287570  29.4980070  92.5428400
  82.5654410  28.4374510  91.8933920  76.1732940  24.5322150  90.7496640
  76.6107810  25.0751820  91.4054220  76.6580670  23.7069100  90.7592980
  73.3878740  27.3211180  98.2016900  73.7181750  26.4532240  97.9695540
  73.8169740  27.5269700  99.0321860  77.9840660  25.6520190  95.8618870
  77.6836200  25.5285160  96.7622780  77.8778150  24.7928780  95.4534600
  73.8768950  28.1881770 100.9398530  73.4399940  28.3682570 101.7722680
  74.4446630  28.9456390 100.7980250  90.7532580  25.4316590  90.5645550
  89.9225540  25.4993240  91.0352780  90.9304410  26.3220710  90.2612410
  90.2089040  22.1764070  93.0679750  90.9707950  22.7460720  93.1739440
  90.2243410  21.6091270  93.8388060  73.7093380  20.7002000  97.2987410
  73.0542220  20.4313640  96.6547110  74.5471330  20.5906480  96.8489390
  91.2149010  23.0314170  97.9121680  91.5857840  22.2481490  97.5057650
  91.8550940  23.7203270  97.7338980  90.2608210  22.4698440  90.2252270
  90.5357050  23.3777320  90.0971490  90.0718950  22.4060970  91.1614260
  86.6583820  15.4943290  91.5205900  87.0768700  15.3074270  90.6802560
  86.3519880  14.6422340  91.8308830  90.1573550  20.4067430  95.2181700
  89.7817150  19.6395360  94.7862990  89.4276670  20.7890130  95.7056630
  74.7469310  21.0854570 101.8390750  75.1142350  20.9981970 102.7186770
  74.1780130  20.3221120 101.7397610  72.9231460  17.9100930  93.2412740
  72.0195540  18.1731130  93.0664400  73.4072080  18.1812100  92.4612700
  89.4324510  18.6324920  98.5188940  89.9561990  18.1387570  97.8879110
  90.0183930  18.7675280  99.2636510  89.6114230  18.7164790 102.0408490
  88.6616940  18.6828330 102.1553480  89.7927240  19.6264900 101.8058260
  75.4658670  16.9666470  91.1507120  76.1750370  16.5449690  90.6654400
  74.7498610  17.0341700  90.5190470  75.1132830  13.0205800  90.1909770
  75.8360960  13.5614740  90.5090990  75.3857350  12.7469220  89.3151310
  88.9224480  17.8898270  94.4581350  89.4183600  17.6569140  95.2430230
  88.7240550  17.0510110  94.0418990  74.8025020  12.2711990 100.0932390
  75.4501210  11.7209370  99.6527550  75.2226860  12.5255140 100.9148200
  90.3511640  16.5259220  96.9919030  90.2410920  16.3715260  97.9301300
  91.1119230  15.9980160  96.7494440  91.2401910  14.3567140  90.2325170
  92.1651220  14.2248320  90.0243460  91.2177700  14.4359960  91.1861620
  91.3140400  15.1277800  92.8581880  90.5191900  15.0622920  93.3874790
  91.5183680  16.0628440  92.8467230  88.2558820  29.1669350  96.8520270
  88.8517890  28.8453920  96.1754690  88.5136970  28.6941170  97.6433540
  79.8627420  27.1546850 102.6020620  79.6218780  27.4221410 101.7151140
  80.8030060  27.3252580 102.6571480  88.8071030  29.8164650 100.6818000
  88.3474000  30.5680460 100.3076020  88.1783490  29.0971120 100.6232800
  79.2366750  28.1252890  99.8566130  79.7531770  27.5140250  99.3314390
  79.8864130  28.6281670 100.3477140  81.9762250  29.0161380 100.6835110
  82.2640060  28.7615680  99.8068120  82.4885470  28.4638740 101.2740680
  83.1939260  12.7551580 101.2631620  82.4111050  13.2297080 101.5428380
  82.9002190  11.8506410 101.1544800  87.7460330  13.4574680  99.3080710
  88.1868420  13.4019780  98.4602310  87.4767920  14.3732690  99.3790890
  89.6098900  13.0889920  97.3189530  89.5487300  12.1451140  97.1720550
  90.3890930  13.1970010  97.8642990  73.9151650  29.2282280  96.2813480
  73.7473690  28.5952960  96.9795370  73.0486160  29.4341680  95.9307670
  74.5379670  13.0599060  93.7845340  75.2959030  13.1727940  93.2109370
  74.0756840  13.8968260  93.7388770  81.0793480  15.1738330  96.7747650
  80.2667990  14.7995220  96.4343530  81.5835120  14.4183410  97.0768840
  85.5818460  11.8380780  98.0130720  86.1847830  12.4100990  98.4879240
  84.8411450  12.4020220  97.7904620  88.7253060  12.2402340  93.2871000
  88.9203690  13.1385790  93.5538430  87.9382930  12.0089420  93.7803950
  75.5214350  27.9215510  93.7263620  74.9961970  28.3023540  93.0225580
  75.4458930  28.5466280  94.4473330  76.9104820  13.5863110  92.3247310
  77.4397580  12.7992910  92.1955260  77.5433140  14.2654300  92.5582840
  79.1042660  13.3238250  95.3792700  78.4745400  12.6225560  95.5462830
  78.5647800  14.0842380  95.1625860  90.2779670  29.4803050  95.0477560
  90.4531860  28.7940790  94.4038480  89.5801240  30.0050100  94.6554230
  78.1207320  29.8697890  92.6012870  78.8526140  29.5857170  92.0536760
  78.3800990  29.6311170  93.4912250  77.2822110  25.9862620  92.6059200
  76.6530990  26.4547720  93.1545030  77.3969940  25.1411840  93.0405390
  84.7371830  20.0368280  78.7560400  84.6565880  19.1222890  78.4852110
  84.3236250  20.5335350  78.0500110  82.8689870  21.8147300  80.6369670
  82.0931970  21.3347740  80.9268240  83.5202800  21.1352950  80.4625830
  76.8855700  22.1267110  81.5145430  76.0540580  21.8715820  81.9141940
  77.4936680  22.1977880  82.2503350  86.8897300  26.2207490  79.4168800
  86.4278830  25.4494730  79.7455970  87.7022850  26.2473560  79.9221250
  76.8656960  26.1607200  81.7103450  77.1685000  25.2704940  81.5313670
  77.6100550  26.7177420  81.4825700  75.2947650  17.0869000  75.2987820
  74.4064350  17.4284970  75.1967700  75.5788840  16.8869320  74.4068650
  83.1160610  28.5065500  79.0372790  82.4972050  28.9623000  78.4667230
  83.9712390  28.6616960  78.6362490  82.3098860  24.4904490  80.6439830
  82.2407140  23.5494430  80.4828960  83.0718720  24.5805900  81.2162400
  74.5005530  15.0959010  82.9696450  74.3208370  14.1984760  83.2499210
  74.0985610  15.6430880  83.6443400  83.3404030  17.2974870  80.8708760
  83.7168850  16.4246750  80.7582430  83.2423540  17.6333570  79.9799200
  77.4709040  15.6700500  76.3326200  77.5775790  16.5704230  76.6394960
  76.5601400  15.6218470  76.0420850  87.1228150  14.7925310  77.8037100
  87.9437770  14.3021880  77.8462580  87.1562230  15.3822970  78.5568940
  75.1192200  17.5919510  81.5778790  75.8002310  17.8557880  82.1966190
  74.8040250  16.7520380  81.9116800  79.3116770  18.6386870  80.6651380
  79.8194990  19.1367840  81.3056400  79.8430010  17.8622070  80.4890740
  91.4127700  16.8092060  84.3680730  90.7079870  17.1973770  83.8495840
  91.6785620  17.5042350  84.9701660  77.5952870  13.2785430  84.9314800
  77.5971310  13.7957820  84.1260700  76.7657180  12.8015610  84.9084730
  83.9823960  23.3904740  76.4304700  83.3641230  23.8554190  75.8667420
  84.4947210  24.0832220  76.8474210  78.8455720  22.9180610  83.1088300
  78.5125100  23.5449530  83.7509370  79.0222400  23.4442490  82.3289970
  87.3589630  16.7325690  80.5764640  86.6545200  17.0210580  81.1567750
  87.7201790  17.5425800  80.2164200  77.2768200  14.9895390  82.9385250
  77.6185010  15.8337440  82.6439120  76.3384010  15.1379130  83.0550590
  78.0574820  24.8861410  84.9237480  78.6748820  25.5612490  84.6421930
  77.1967940  25.2949390  84.8324980  73.3507160  24.0761270  73.8044330
  72.9735140  24.5648370  73.0729230  73.6080230  24.7486550  74.4350860
  90.4276550  16.1780480  80.9673850  89.4801460  16.2119460  81.0989280
  90.7526540  16.9919430  81.3523210  80.9596090  12.4777660  79.2629840
  81.2671070  11.9224550  78.5465340  80.0296790  12.6122120  79.0802830
  86.5111150  28.1944950  81.5537300  86.5238310  27.7907240  80.6859560
  85.9586370  28.9692240  81.4498730  87.8056570  24.9161170  76.6427470
  87.6952900  23.9735500  76.7676890  87.8024820  25.2776810  77.5290230
  85.9096590  23.0974790  82.8819910  86.3265380  22.8834900  82.0473370
  86.6336410  23.3547580  83.4528530  83.3476850  20.5426490  75.9989960
  82.4206130  20.4763870  76.2278430  83.5001670  21.4806620  75.8845200
  83.3345930  16.8143490  72.9957120  82.3949600  16.9757450  73.0809580
  83.6529190  17.5329170  72.4493110  89.8558690  21.4962010  82.9736150
  89.0277320  21.5655100  82.4986280  90.4509170  22.0816320  82.5051980
  87.3774140  22.1046790  76.5025210  86.7586560  21.7666340  75.8551510
  87.3598590  21.4606550  77.2104400  86.8200700  18.2831330  83.9191020
  86.4071880  19.1085040  84.1731010  86.0876650  17.6976370  83.7267380
  78.9533490  21.0691230  78.7809690  78.5490490  20.3568480  78.2855590
  79.0396610  20.7244470  79.6697730  79.4215190  24.7558790  80.9448900
  79.1243480  24.1504260  80.2656680  80.3715010  24.7936100  80.8338260
  77.6662110  17.8434440  82.5608730  78.2176700  17.9529780  81.7861980
  78.1805620  18.2172040  83.2763960  78.5133620  24.4940480  87.5956700
  77.6162150  24.7180450  87.8430100  78.5386490  24.6175420  86.6468100
  85.5538840  21.3433600  73.5097960  85.9932120  20.5056030  73.3635780
  86.2667260  21.9763000  73.5962100  77.3404840  21.3653800  86.1714070
  77.2012610  22.2376600  86.5401470  76.4586200  21.0226610  86.0262010
  83.6634220  26.2829670  77.4779200  84.1030130  27.0254000  77.0634590
  83.6021110  26.5256240  78.4018160  79.1385190  27.3075500  88.3799220
  79.1100620  27.7118450  87.5127650  78.9750160  26.3785860  88.2170820
  89.1355980  12.5976410  71.8239000  88.8228640  12.6903240  72.7238070
  89.8968450  13.1757440  71.7736430  91.0900010  28.0902600  89.6763390
  91.5659730  28.5685490  90.3552470  91.7107170  28.0220090  88.9508890
  73.2923490  23.1351350  82.0884980  73.3703910  23.2700120  81.1440700
  73.9065170  22.4267240  82.2813100  74.5371120  24.8351540  78.4991160
  74.1299200  24.9766130  77.6444760  75.4284130  24.5511700  78.2962370
  84.3550000  28.9843450  85.4058210  84.8694670  28.8951460  86.2080640
  83.5119080  29.3303150  85.6986120  86.3304400  29.2698790  74.8342210
  86.1705540  28.9801730  75.7324040  86.1651110  28.4938920  74.2987440
  78.8092780  29.0497320  76.6113830  78.6335260  28.1332860  76.3981630
  77.9548520  29.4084610  76.8511630  86.0330530  26.7786350  73.3940210
  85.3395690  26.7763640  72.7342490  86.7753390  26.3545670  72.9634380
  85.5980460  28.4049060  77.4688700  86.0537410  27.6238440  77.7827320
  85.9372980  29.1155880  78.0129880  90.3457270  17.3347910  87.8013140
  89.7301540  17.8427580  87.2728600  90.0253690  16.4346240  87.7439080
  73.3483010  24.1765520  84.6279440  73.5114050  23.7070880  83.8098810
  73.8135460  23.6689080  85.2928280  78.1201780  13.3071280  79.6640010
  77.6769930  14.0880820  79.3324530  78.6786770  13.6301170  80.3710950
  82.4071590  16.1739800  85.2675330  81.9450960  16.3822820  86.0795270
  82.0049700  15.3599150  84.9646000  87.4076100  17.3948750  86.3971990
  86.5569690  17.0954500  86.7181060  87.2477890  17.6390760  85.4855810
  84.5025810  18.8950500  88.4970780  84.8279220  18.0614250  88.1573010
  85.2906140  19.4179020  88.6449110  81.2360600  12.9281980  74.5445840
  80.6114780  12.9241850  75.2699150  81.1490720  12.0612940  74.1481810
  80.1577680  13.8518610  81.5229610  80.4550010  14.7581440  81.4421630
  80.7063240  13.3637390  80.9089180  77.9116000  18.4304850  77.3921260
  77.6856920  18.2142020  78.2967880  77.1308530  18.8633310  77.0467230
  85.1413760  18.4368220  75.9911910  84.5422650  19.1604020  75.8075530
  85.6893370  18.3745000  75.2088360  80.3515210  19.3290430  88.0581530
  80.2558810  18.3885160  87.9081930  81.1947190  19.5505500  87.6629600
  83.7478630  17.0731760  78.0215190  84.1408200  17.3903960  77.2083880
  84.1095480  16.1943640  78.1359710  75.4825750  15.7404100  86.2115310
  75.0889140  16.5879310  86.4188090  74.7944150  15.1030470  86.4023950
  82.0570800  15.8239070  89.2812050  81.3669120  15.6311270  89.9158140
  82.8003100  16.1073710  89.8136350  72.7842800  13.6632560  80.2445390
  72.4955850  14.2335420  80.9570370  73.5288560  13.1837010  80.6076620
  72.9713030  17.6052680  71.4548110  72.8887700  18.5483440  71.5963100
  72.6196090  17.4627590  70.5760460  84.3333770  19.6637510  82.1165970
  83.6014890  20.1724320  82.4656070  83.9358110  18.8467490  81.8154750
  80.7711160  16.3391710  80.5218460  80.7747220  15.8981660  79.6723000
  81.6662280  16.6609040  80.6290280  76.6213540  16.2218200  79.4812670
  76.2813590  16.6993430  80.2379720  75.8590860  15.7683320  79.1213770
  80.8331310  17.3403790  73.5125220  80.9544130  17.2990270  74.4611040
  80.4479820  18.2027940  73.3571950  84.7959680  15.1171190  81.5288910
  84.8132420  15.5679840  82.3730760  84.5475260  14.2176830  81.7422350
  79.8452810  19.6504930  72.9108520  79.2769710  19.2023180  72.2844430
  80.5541810  20.0097710  72.3773670  88.2230430  12.5303370  87.3675290
  88.5476200  11.7993030  87.8933270  88.2586940  12.2117010  86.4656280
  74.9221990  23.5516950  86.7875250  74.5376780  22.9110620  87.3858210
  75.2334180  24.2553070  87.3569980  81.0719130  20.3993490  82.2683870
  81.4389260  19.9252060  83.0145210  80.8824190  21.2735060  82.6092210
  73.9359620  15.1437180  78.3977340  73.6506540  14.7792850  79.2355960
  73.8738480  14.4117640  77.7840480  78.8618500  19.4402130  84.5868080
  78.5575570  20.3194110  84.8118440  79.8164960  19.5001920  84.6225520
  77.3900290  23.6463120  75.1834930  76.6162550  23.1060740  75.0233650
  78.1194920  23.1269730  74.8452690  88.1488270  22.6428480  80.9761320
  88.8687390  23.1383770  80.5857430  87.9470090  21.9646370  80.3315190
  83.6098210  14.0366440  75.1190710  82.7962820  13.5379610  75.0436020
  83.4160160  14.8764690  74.7027060  83.5307070  22.7137540  86.8630320
  83.4644380  21.7933210  86.6087910  82.9012210  22.8112980  87.5774960
  86.3246600  18.4086090  73.4152870  87.2126220  18.7203320  73.2404210
  86.2951690  17.5358340  73.0233450  77.4337690  23.3143500  78.8213740
  77.9516360  22.5111760  78.7670630  76.9821710  23.2522640  79.6630570
  82.3207190  24.5809780  74.0941040  82.6622890  25.3252010  73.5984360
  81.4919900  24.8940900  74.4565870  74.9182230  20.2804870  85.7339440
  74.5597170  20.9458720  86.3212780  74.6236790  19.4488420  86.1052060
  78.1195350  20.7389110  88.6178990  77.8195490  20.8846290  87.7206810
  78.8906590  20.1794400  88.5252380  83.4623800  25.5358110  86.6134120
  83.4768340  24.6039070  86.3953030  82.7548900  25.6217870  87.2523890
  88.5960870  19.7197930  72.8832730  88.5124590  20.1512150  72.0329170
  89.3155060  20.1796280  73.3159550  89.6735010  22.1765450  85.9602700
  88.9483200  22.7694230  85.7632090  90.2010470  22.1688990  85.1616070
  89.6248120  26.5740190  75.6114860  88.9824280  25.9195810  75.8858580
  89.2378780  26.9795280  74.8355530  85.2034600  23.9025620  79.4586550
  85.5558420  23.3053750  78.7987920  84.3196930  23.5769850  79.6294800
  81.2897880  24.6623310  76.8656960  81.9769010  25.2092520  77.2464550
  80.5030300  25.2064040  76.9006570  73.4290280  20.2796130  72.3574040
  74.2985130  20.5620930  72.6409960  72.9380600  21.0932000  72.2422850
  80.5925090  21.6669340  76.4782320  81.0487870  22.4774590  76.7042510
  80.2413300  21.3492480  77.3100810  82.8957700  27.1775680  83.7074620
  83.5399920  27.3835060  84.3848040  83.2587140  26.4164080  83.2545470
  76.4936870  12.0106990  76.9504840  76.3651500  12.0024890  77.8989760
  75.6698890  12.3490080  76.5995850  84.1689780  25.1808030  82.4252070
  84.8112010  24.4801190  82.5384240  84.6939130  25.9606470  82.2448960
  88.0145500  25.4656650  72.1491210  87.7883080  24.7487090  72.7415850
  87.6241700  25.2169090  71.3112960  85.9427400  25.9802930  85.6288130
  86.2783640  26.5669620  86.3066050  85.0227740  25.8495640  85.8585920
  73.4930800  13.7698110  86.4111540  72.7789320  13.9695030  87.0164150
  73.9125840  12.9937680  86.7826340  87.5961750  23.3828590  73.8105370
  87.3083450  23.8441280  74.5983250  88.3913920  22.9226360  74.0789590
  73.7803390  27.7578370  87.3978070  73.8894510  26.8173110  87.2573460
  73.1283950  28.0233120  86.7491800  81.7715980  26.0294260  88.7976190
  81.4512850  25.3103500  89.3421880  81.0974340  26.7049330  88.8712250
  79.8130150  26.8754710  73.7409340  79.8040250  27.6084400  73.1253850
  78.8928510  26.6286290  73.8336300  75.4136790  22.0969600  74.4856100
  74.8064740  22.8368500  74.4951400  75.8886140  22.1868960  73.6594300
  84.9869580  16.2620420  84.1612990  85.3550400  15.4415630  84.4892560
  84.1267780  16.3222310  84.5768640  88.3531610  15.2177360  74.9700550
  87.7244770  15.3223030  74.2558780  87.8583530  15.4374140  75.7594430
  82.7989750  26.9382950  72.4034530  82.9001730  26.7346940  71.4736510
  81.8991490  26.6841230  72.6082310  80.3215640  17.4963310  76.3858430
  79.6131790  17.9649650  76.8272040  80.6060120  16.8385320  77.0203620
  81.9471570  18.9160010  84.3850960  82.4456820  19.3905830  85.0502810
  82.0894520  17.9923530  84.5920990  84.3531070  14.2213970  77.8254220
  84.2298850  14.2400100  76.8763730  85.3015630  14.2692910  77.9452620
  81.4407860  29.4569270  77.0982200  81.6949360  29.4190660  76.1761570
  80.4920340  29.3302600  77.0910450  78.5250660  15.8048390  73.7609140
  79.3741190  16.2418540  73.6949330  78.1581930  16.1168650  74.5881200
  89.1538430  15.1327970  85.2279350  88.6512030  15.8733370  85.5673160
  89.9695090  15.5211970  84.9116140  87.4460440  20.3761150  78.6740710
  86.5050580  20.3911380  78.8488400  87.7604510  19.5897110  79.1201010
  77.4242080  22.0580750  72.2344670  78.1905350  21.9462110  72.7970100
  77.5016770  21.3618720  71.5821440  76.1188840  19.4905820  72.9177560
  76.1992430  18.5433330  73.0294960  77.0108590  19.8212700  73.0238220
  89.4486020  27.5470000  80.3494970  89.5733440  28.3701170  80.8218780
  90.3151580  27.3360730  80.0019120  76.9203550  29.6401210  80.0212100
  77.6566030  29.0916670  80.2920670  77.3044470  30.5057220  79.8818090
  73.8049030  25.7074780  75.8953610  72.8788810  25.9495920  75.8859020
  74.2705460  26.5349040  75.7738360  75.9261830  28.8247280  89.2097680
  76.7274560  29.1459330  89.6233080  75.4113650  28.4642860  89.9317590
  80.0305860  28.8131520  71.8437670  80.8234470  29.1020350  71.3919460
  79.5110210  28.3823690  71.1650150  84.7626460  24.9327150  89.1573090
  84.1564620  24.9558750  88.4168840  84.4580570  24.2010190  89.6940340
  86.1926830  28.6607440  87.7682500  87.1448580  28.5765460  87.7182740
  86.0455050  29.3249150  88.4416290  89.0836030  28.0401650  73.2674410
  88.7977540  27.6266790  72.4528590  88.8855580  28.9689360  73.1474930
  73.6459640  21.3120740  88.1533730  74.1498660  20.7328020  88.7249960
  72.9067060  21.5960970  88.6910100  80.5483260  24.0334930  71.7080020
  80.4433900  23.4187280  72.4341400  80.3807480  23.5100820  70.9243030
  80.6997580  22.7191730  87.6869250  79.9343250  23.2876730  87.6023920
  80.8813540  22.4267940  86.7937480  83.7885990  23.0954960  72.3122010
  83.2396090  23.5424260  72.9564750  84.4105250  22.5904210  72.8359680
  87.8420930  24.4497060  88.2444270  88.5830400  24.7872820  87.7411730
  87.0793610  24.6189120  87.6914040  75.6782720  19.4550330  89.0483800
  75.7188060  19.1564200  89.9569030  76.5328220  19.8557940  88.8891320
  79.4561110  22.0545880  74.2087310  79.8777530  21.8885750  75.0518700
  79.5811950  21.2446110  73.7142450  77.6188530  18.0342430  87.0158290
  77.0884990  17.5433380  86.3881630  78.2876600  18.4626630  86.4816220
  81.9688750  21.0783490  71.4564410  82.4894410  20.3632510  71.0905560
  82.6157150  21.7169360  71.7564920  86.5166590  22.5011890  86.7799480
  86.9307610  22.6556970  87.6289900  85.5817590  22.6267110  86.9425260
  86.9888760  19.8408050  88.7838630  87.5709530  19.0860370  88.6959110
  87.1650530  20.3715490  88.0070110  78.1060830  15.0004800  87.0955580
  78.0117700  14.3825550  86.3706450  77.5258220  15.7271090  86.8685490
  80.8722270  13.5578040  84.1282970  80.4239570  13.5802300  83.2828520
  80.2387470  13.1597060  84.7253270  81.2781820  22.4532370  84.7495410
  81.6969930  23.2965100  84.5771650  80.3590450  22.5904410  84.5202190
  83.6145720  20.1848550  86.1333250  83.7341930  19.5889690  86.8728090
  84.4739720  20.2218240  85.7134550  85.9533620  20.7385740  84.7095760
  85.4268840  21.2628360  84.1060900  86.2964960  21.3713130  85.3405490
  78.3520010  18.1279110  71.1545470  78.1509070  17.2646470  71.5158810
  78.1812060  18.0412470  70.2167070  79.1289240  28.7585380  85.8653140
  78.5910330  29.4831440  85.5461840  79.3823200  28.2815720  85.0750480
  80.3814490  16.7269900  87.3909070  80.9714180  16.4185750  88.0786890
  79.5634730  16.2549650  87.5468970  85.2007920  16.3435710  87.6242090
  84.5123440  15.6817250  87.5592080  85.9213940  15.8973980  88.0690550
  85.8308320  12.9387340  73.6832350  86.1110610  12.0955240  74.0391770
  85.0574050  13.1710450  74.1971100  77.1502810  15.2279730  71.1423350
  77.4528710  15.2347160  70.2342500  77.8897400  14.8777590  71.6391010
  81.9851450  29.9936590  86.1239790  81.9110150  30.8971730  86.4312160
  81.0830290  29.6748490  86.0961860  80.3687740  14.1714350  72.1279550
  80.0209740  13.4938340  71.5482000  80.5700510  13.7103860  72.9422940
  82.5336780  29.1595100  73.7466150  83.4287570  29.4980070  73.7684910
  82.5654410  28.4374510  73.1190430  76.1732940  24.5322150  71.9753150
  76.6107810  25.0751820  72.6310730  76.6580670  23.7069100  71.9849490
  73.3878740  27.3211180  79.4273410  73.7181750  26.4532240  79.1952050
  73.8169740  27.5269700  80.2578370  77.9840660  25.6520190  77.0875380
  77.6836200  25.5285160  77.9879290  77.8778150  24.7928780  76.6791110
  73.8768950  28.1881770  82.1655040  73.4399940  28.3682570  82.9979190
  74.4446630  28.9456390  82.0236760  90.7532580  25.4316590  71.7902060
  89.9225540  25.4993240  72.2609290  90.9304410  26.3220710  71.4868920
  90.2089040  22.1764070  74.2936260  90.9707950  22.7460720  74.3995950
  90.2243410  21.6091270  75.0644570  91.2149010  23.0314170  79.1378190
  91.5857840  22.2481490  78.7314160  91.8550940  23.7203270  78.9595490
  90.2608210  22.4698440  71.4508780  90.5357050  23.3777320  71.3228000
  90.0718950  22.4060970  72.3870770  86.6583820  15.4943290  72.7462410
  87.0768700  15.3074270  71.9059070  86.3519880  14.6422340  73.0565340
  90.1573550  20.4067430  76.4438210  89.7817150  19.6395360  76.0119500
  89.4276670  20.7890130  76.9313140  74.7469310  21.0854570  83.0647260
  75.1142350  20.9981970  83.9443280  74.1780130  20.3221120  82.9654120
  89.5473170  19.5538950  86.0777730  89.3159260  19.3251700  85.1775680
  89.8077720  20.4738500  86.0322620  74.2985310  17.9963660  86.9705680
  73.4041360  17.9630420  87.3099390  74.8382860  18.1950450  87.7356930
  87.9861240  14.7795380  88.8557430  88.8631420  14.7878780  89.2391430
  87.9982080  14.0426220  88.2449780  89.4324510  18.6324920  79.7445450
  89.9561990  18.1387570  79.1135620  90.0183930  18.7675280  80.4893020
  89.6114230  18.7164790  83.2665000  88.6616940  18.6828330  83.3809990
  89.7927240  19.6264900  83.0314770  75.4658670  16.9666470  72.3763630
  76.1750370  16.5449690  71.8910910  74.7498610  17.0341700  71.7446980
  75.1132830  13.0205800  71.4166280  75.8360960  13.5614740  71.7347500
  75.3857350  12.7469220  70.5407820  88.9224480  17.8898270  75.6837860
  89.4183600  17.6569140  76.4686740  88.7240550  17.0510110  75.2675500
  74.8025020  12.2711990  81.3188900  75.4501210  11.7209370  80.8784060
  75.2226860  12.5255140  82.1404710  90.3511640  16.5259220  78.2175540
  90.2410920  16.3715260  79.1557810  91.1119230  15.9980160  77.9750950
  88.6977360  12.4653350  84.6758540  89.3349580  13.0787490  85.0417730
  88.8452250  12.5014010  83.7307770  91.2401910  14.3567140  71.4581680
  92.1651220  14.2248320  71.2499970  91.2177700  14.4359960  72.4118130
  91.3140400  15.1277800  74.0838390  90.5191900  15.0622920  74.6131300
  91.5183680  16.0628440  74.0723740  88.2558820  29.1669350  78.0776780
  88.8517890  28.8453920  77.4011200  88.5136970  28.6941170  78.8690050
  74.5557020  12.4267660  84.0614220  74.2071840  12.8831480  84.8272400
  74.2244720  11.5324790  84.1436650  76.1621390  25.5987260  88.2267410
  76.1191020  25.2280170  89.1081870  76.2932400  26.5364830  88.3669230
  79.8627420  27.1546850  83.8277130  79.6218780  27.4221410  82.9407650
  80.8030060  27.3252580  83.8827990  82.0681840  13.6179540  87.5833640
  82.0070730  14.2101370  88.3329050  83.0082220  13.5105500  87.4383900
  84.7056400  13.2749600  87.2225930  85.3196810  13.5928890  86.5607010
  85.2505960  12.7898190  87.8421790  75.2277660  11.9543860  87.3364990
  75.7760650  11.7731910  86.5731100  75.2932970  11.1637970  87.8721300
  76.0009420  28.5449510  85.3465190  75.4069740  28.4134210  86.0855230
  75.9933260  27.7087650  84.8807290  85.4464440  11.8381740  83.5495220
  84.5724280  12.1716850  83.3468150  85.3375190  11.3654920  84.3747090
  86.3536420  14.0452610  84.9336940  86.0249780  13.2304370  84.5538670
  87.3018720  14.0022420  84.8102630  75.6321650  25.9107890  84.2973230
  74.9055710  25.2913180  84.2299180  75.6930800  26.3048500  83.4271310
  79.2366750  28.1252890  81.0822640  79.7531770  27.5140250  80.5570900
  79.8864130  28.6281670  81.5733650  81.9762250  29.0161380  81.9091620
  82.2640060  28.7615680  81.0324630  82.4885470  28.4638740  82.4997190
  83.1939260  12.7551580  82.4888130  82.4111050  13.2297080  82.7684890
  82.9002190  11.8506410  82.3801310  87.7460330  13.4574680  80.5337220
  88.1868420  13.4019780  79.6858820  87.4767920  14.3732690  80.6047400
  89.6098900  13.0889920  78.5446040  89.5487300  12.1451140  78.3977060
  90.3890930  13.1970010  79.0899500  73.9151650  29.2282280  77.5069990
  73.7473690  28.5952960  78.2051880  73.0486160  29.4341680  77.1564180
  74.5379670  13.0599060  75.0101850  75.2959030  13.1727940  74.4365880
  74.0756840  13.8968260  74.9645280  81.0793480  15.1738330  78.0004160
  80.2667990  14.7995220  77.6600040  81.5835120  14.4183410  78.3025350
  85.5818460  11.8380780  79.2387230  86.1847830  12.4100990  79.7135750
  84.8411450  12.4020220  79.0161130  88.7253060  12.2402340  74.5127510
  88.9203690  13.1385790  74.7794940  87.9382930  12.0089420  75.0060460
  75.5214350  27.9215510  74.9520130  74.9961970  28.3023540  74.2482090
  75.4458930  28.5466280  75.6729840  76.9104820  13.5863110  73.5503820
  77.4397580  12.7992910  73.4211770  77.5433140  14.2654300  73.7839350
  79.1042660  13.3238250  76.6049210  78.4745400  12.6225560  76.7719340
  78.5647800  14.0842380  76.3882370  82.0434610  29.9377480  89.2759820
  82.9701920  29.7021750  89.3195780  82.0285040  30.7649480  88.7945850
  90.2779670  29.4803050  76.2734070  90.4531860  28.7940790  75.6294990
  89.5801240  30.0050100  75.8810740  79.2298220  12.6022230  89.0401700
  78.9482490  13.1055830  88.2762520  79.6117920  11.8043980  88.6743830
  78.1207320  29.8697890  73.8269380  78.8526140  29.5857170  73.2793270
  78.3800990  29.6311170  74.7168760  77.2822110  25.9862620  73.8315710
  76.6530990  26.4547720  74.3801540  77.3969940  25.1411840  74.2661900
  85.8313680  12.0175810  89.6182170  85.7179130  12.3370420  90.5133690
  86.6483420  12.4188320  89.3219450  84.7371830  20.0368280  59.9816910
  84.6565880  19.1222890  59.7108620  84.3236250  20.5335350  59.2756620
  82.8689870  21.8147300  61.8626180  82.0931970  21.3347740  62.1524750
  83.5202800  21.1352950  61.6882340  76.8855700  22.1267110  62.7401940
  76.0540580  21.8715820  63.1398450  77.4936680  22.1977880  63.4759860
  86.8897300  26.2207490  60.6425310  86.4278830  25.4494730  60.9712480
  87.7022850  26.2473560  61.1477760  76.8656960  26.1607200  62.9359960
  77.1685000  25.2704940  62.7570180  77.6100550  26.7177420  62.7082210
  75.2947650  17.0869000  56.5244330  74.4064350  17.4284970  56.4224210
  75.5788840  16.8869320  55.6325160  73.2580660  19.6874650  62.4084030
  73.8296770  18.9196850  62.4087670  73.2582200  19.9863410  61.4990640
  83.1160610  28.5065500  60.2629300  82.4972050  28.9623000  59.6923740
  83.9712390  28.6616960  59.8619000  82.3098860  24.4904490  61.8696340
  82.2407140  23.5494430  61.7085470  83.0718720  24.5805900  62.4418910
  74.5005530  15.0959010  64.1952960  74.3208370  14.1984760  64.4755720
  74.0985610  15.6430880  64.8699910  83.3404030  17.2974870  62.0965270
  83.7168850  16.4246750  61.9838940  83.2423540  17.6333570  61.2055710
  77.4709040  15.6700500  57.5582710  77.5775790  16.5704230  57.8651470
  76.5601400  15.6218470  57.2677360  87.1228150  14.7925310  59.0293610
  87.9437770  14.3021880  59.0719090  87.1562230  15.3822970  59.7825450
  75.1192200  17.5919510  62.8035300  75.8002310  17.8557880  63.4222700
  74.8040250  16.7520380  63.1373310  79.3116770  18.6386870  61.8907890
  79.8194990  19.1367840  62.5312910  79.8430010  17.8622070  61.7147250
  91.4127700  16.8092060  65.5937240  90.7079870  17.1973770  65.0752350
  91.6785620  17.5042350  66.1958170  77.5952870  13.2785430  66.1571310
  77.5971310  13.7957820  65.3517210  76.7657180  12.8015610  66.1341240
  83.9823960  23.3904740  57.6561210  83.3641230  23.8554190  57.0923930
  84.4947210  24.0832220  58.0730720  78.8455720  22.9180610  64.3344810
  78.5125100  23.5449530  64.9765880  79.0222400  23.4442490  63.5546480
  87.3589630  16.7325690  61.8021150  86.6545200  17.0210580  62.3824260
  87.7201790  17.5425800  61.4420710  77.2768200  14.9895390  64.1641760
  77.6185010  15.8337440  63.8695630  76.3384010  15.1379130  64.2807100
  78.0574820  24.8861410  66.1493990  78.6748820  25.5612490  65.8678440
  77.1967940  25.2949390  66.0581490  73.3507160  24.0761270  55.0300840
  72.9735140  24.5648370  54.2985740  73.6080230  24.7486550  55.6607370
  88.9752410  26.3500820  64.0648630  88.2915930  27.0199930  64.0565300
  89.5146700  26.5481470  63.2993490  90.4276550  16.1780480  62.1930360
  89.4801460  16.2119460  62.3245790  90.7526540  16.9919430  62.5779720
  80.9596090  12.4777660  60.4886350  81.2671070  11.9224550  59.7721850
  80.0296790  12.6122120  60.3059340  86.5111150  28.1944950  62.7793810
  86.5238310  27.7907240  61.9116070  85.9586370  28.9692240  62.6755240
  87.8056570  24.9161170  57.8683980  87.6952900  23.9735500  57.9933400
  87.8024820  25.2776810  58.7546740  85.9096590  23.0974790  64.1076420
  86.3265380  22.8834900  63.2729880  86.6336410  23.3547580  64.6785040
  83.3476850  20.5426490  57.2246470  82.4206130  20.4763870  57.4534940
  83.5001670  21.4806620  57.1101710  83.3345930  16.8143490  54.2213630
  82.3949600  16.9757450  54.3066090  83.6529190  17.5329170  53.6749620
  89.8558690  21.4962010  64.1992660  89.0277320  21.5655100  63.7242790
  90.4509170  22.0816320  63.7308490  87.3774140  22.1046790  57.7281720
  86.7586560  21.7666340  57.0808020  87.3598590  21.4606550  58.4360910
  86.8200700  18.2831330  65.1447530  86.4071880  19.1085040  65.3987520
  86.0876650  17.6976370  64.9523890  78.9533490  21.0691230  60.0066200
  78.5490490  20.3568480  59.5112100  79.0396610  20.7244470  60.8954240
  79.4215190  24.7558790  62.1705410  79.1243480  24.1504260  61.4913190
  80.3715010  24.7936100  62.0594770  77.6662110  17.8434440  63.7865240
  78.2176700  17.9529780  63.0118490  78.1805620  18.2172040  64.5020470
  87.5100800  28.3290660  65.8328510  87.0331360  29.1362850  65.6401120
  86.8262590  27.6768990  65.9854720  78.5133620  24.4940480  68.8213210
  77.6162150  24.7180450  69.0686610  78.5386490  24.6175420  67.8724610
  85.5538840  21.3433600  54.7354470  85.9932120  20.5056030  54.5892290
  86.2667260  21.9763000  54.8218610  77.3404840  21.3653800  67.3970580
  77.2012610  22.2376600  67.7657980  76.4586200  21.0226610  67.2518520
  83.6634220  26.2829670  58.7035710  84.1030130  27.0254000  58.2891100
  83.6021110  26.5256240  59.6274670  79.1385190  27.3075500  69.6055730
  79.1100620  27.7118450  68.7384160  78.9750160  26.3785860  69.4427330
  89.1355980  12.5976410  53.0495510  88.8228640  12.6903240  53.9494580
  89.8968450  13.1757440  52.9992940  75.6538120  19.9636210  57.5072850
  75.5335720  20.6898300  56.8954120  75.3439010  19.1939120  57.0300760
  91.0900010  28.0902600  70.9019900  91.5659730  28.5685490  71.5808980
  91.7107170  28.0220090  70.1765400  73.2923490  23.1351350  63.3141490
  73.3703910  23.2700120  62.3697210  73.9065170  22.4267240  63.5069610
  74.5371120  24.8351540  59.7247670  74.1299200  24.9766130  58.8701270
  75.4284130  24.5511700  59.5218880  90.4933260  25.2815450  68.0619910
  90.6196320  25.0427330  67.1437090  90.5354640  24.4499990  68.5341990
  84.3550000  28.9843450  66.6314720  84.8694670  28.8951460  67.4337150
  83.5119080  29.3303150  66.9242630  86.3304400  29.2698790  56.0598720
  86.1705540  28.9801730  56.9580550  86.1651110  28.4938920  55.5243950
  78.8092780  29.0497320  57.8370340  78.6335260  28.1332860  57.6238140
  77.9548520  29.4084610  58.0768140  86.0330530  26.7786350  54.6196720
  85.3395690  26.7763640  53.9599000  86.7753390  26.3545670  54.1890890
  85.5980460  28.4049060  58.6945210  86.0537410  27.6238440  59.0083830
  85.9372980  29.1155880  59.2386390  90.3457270  17.3347910  69.0269650
  89.7301540  17.8427580  68.4985110  90.0253690  16.4346240  68.9695590
  73.3483010  24.1765520  65.8535950  73.5114050  23.7070880  65.0355320
  73.8135460  23.6689080  66.5184790  78.1201780  13.3071280  60.8896520
  77.6769930  14.0880820  60.5581040  78.6786770  13.6301170  61.5967460
  82.4071590  16.1739800  66.4931840  81.9450960  16.3822820  67.3051780
  82.0049700  15.3599150  66.1902510  87.4076100  17.3948750  67.6228500
  86.5569690  17.0954500  67.9437570  87.2477890  17.6390760  66.7112320
  84.5025810  18.8950500  69.7227290  84.8279220  18.0614250  69.3829520
  85.2906140  19.4179020  69.8705620  81.2360600  12.9281980  55.7702350
  80.6114780  12.9241850  56.4955660  81.1490720  12.0612940  55.3738320
  80.1577680  13.8518610  62.7486120  80.4550010  14.7581440  62.6678140
  80.7063240  13.3637390  62.1345690  77.9116000  18.4304850  58.6177770
  77.6856920  18.2142020  59.5224390  77.1308530  18.8633310  58.2723740
  85.1413760  18.4368220  57.2168420  84.5422650  19.1604020  57.0332040
  85.6893370  18.3745000  56.4344870  80.3515210  19.3290430  69.2838040
  80.2558810  18.3885160  69.1338440  81.1947190  19.5505500  68.8886110
  83.7478630  17.0731760  59.2471700  84.1408200  17.3903960  58.4340390
  84.1095480  16.1943640  59.3616220  75.4825750  15.7404100  67.4371820
  75.0889140  16.5879310  67.6444600  74.7944150  15.1030470  67.6280460
  82.0570800  15.8239070  70.5068560  81.3669120  15.6311270  71.1414650
  82.8003100  16.1073710  71.0392860  72.7842800  13.6632560  61.4701900
  72.4955850  14.2335420  62.1826880  73.5288560  13.1837010  61.8333130
  72.9713030  17.6052680  52.6804620  72.8887700  18.5483440  52.8219610
  72.6196090  17.4627590  51.8016970  84.3333770  19.6637510  63.3422480
  83.6014890  20.1724320  63.6912580  83.9358110  18.8467490  63.0411260
  80.7711160  16.3391710  61.7474970  80.7747220  15.8981660  60.8979510
  81.6662280  16.6609040  61.8546790  76.6213540  16.2218200  60.7069180
  76.2813590  16.6993430  61.4636230  75.8590860  15.7683320  60.3470280
  80.8331310  17.3403790  54.7381730  80.9544130  17.2990270  55.6867550
  80.4479820  18.2027940  54.5828460  84.7959680  15.1171190  62.7545420
  84.8132420  15.5679840  63.5987270  84.5475260  14.2176830  62.9678860
  79.8452810  19.6504930  54.1365030  79.2769710  19.2023180  53.5100940
  80.5541810  20.0097710  53.6030180  88.2230430  12.5303370  68.5931800
  88.5476200  11.7993030  69.1189780  88.2586940  12.2117010  67.6912790
  74.9221990  23.5516950  68.0131760  74.5376780  22.9110620  68.6114720
  75.2334180  24.2553070  68.5826490  81.0719130  20.3993490  63.4940380
  81.4389260  19.9252060  64.2401720  80.8824190  21.2735060  63.8348720
  73.9359620  15.1437180  59.6233850  73.6506540  14.7792850  60.4612470
  73.8738480  14.4117640  59.0096990  78.8618500  19.4402130  65.8124590
  78.5575570  20.3194110  66.0374950  79.8164960  19.5001920  65.8482030
  77.3900290  23.6463120  56.4091440  76.6162550  23.1060740  56.2490160
  78.1194920  23.1269730  56.0709200  88.1488270  22.6428480  62.2017830
  88.8687390  23.1383770  61.8113940  87.9470090  21.9646370  61.5571700
  83.6098210  14.0366440  56.3447220  82.7962820  13.5379610  56.2692530
  83.4160160  14.8764690  55.9283570  83.5307070  22.7137540  68.0886830
  83.4644380  21.7933210  67.8344420  82.9012210  22.8112980  68.8031470
  86.3246600  18.4086090  54.6409380  87.2126220  18.7203320  54.4660720
  86.2951690  17.5358340  54.2489960  77.4337690  23.3143500  60.0470250
  77.9516360  22.5111760  59.9927140  76.9821710  23.2522640  60.8887080
  82.3207190  24.5809780  55.3197550  82.6622890  25.3252010  54.8240870
  81.4919900  24.8940900  55.6822380  74.9182230  20.2804870  66.9595950
  74.5597170  20.9458720  67.5469290  74.6236790  19.4488420  67.3308570
  78.1195350  20.7389110  69.8435500  77.8195490  20.8846290  68.9463320
  78.8906590  20.1794400  69.7508890  83.4623800  25.5358110  67.8390630
  83.4768340  24.6039070  67.6209540  82.7548900  25.6217870  68.4780400
  88.5960870  19.7197930  54.1089240  88.5124590  20.1512150  53.2585680
  89.3155060  20.1796280  54.5416060  89.6735010  22.1765450  67.1859210
  88.9483200  22.7694230  66.9888600  90.2010470  22.1688990  66.3872580
  89.6248120  26.5740190  56.8371370  88.9824280  25.9195810  57.1115090
  89.2378780  26.9795280  56.0612040  85.2034600  23.9025620  60.6843060
  85.5558420  23.3053750  60.0244430  84.3196930  23.5769850  60.8551310
  81.2897880  24.6623310  58.0913470  81.9769010  25.2092520  58.4721060
  80.5030300  25.2064040  58.1263080  73.4290280  20.2796130  53.5830550
  74.2985130  20.5620930  53.8666470  72.9380600  21.0932000  53.4679360
  80.5925090  21.6669340  57.7038830  81.0487870  22.4774590  57.9299020
  80.2413300  21.3492480  58.5357320  82.8957700  27.1775680  64.9331130
  83.5399920  27.3835060  65.6104550  83.2587140  26.4164080  64.4801980
  76.4936870  12.0106990  58.1761350  76.3651500  12.0024890  59.1246270
  75.6698890  12.3490080  57.8252360  84.1689780  25.1808030  63.6508580
  84.8112010  24.4801190  63.7640750  84.6939130  25.9606470  63.4705470
  88.0145500  25.4656650  53.3747720  87.7883080  24.7487090  53.9672360
  87.6241700  25.2169090  52.5369470  85.9427400  25.9802930  66.8544640
  86.2783640  26.5669620  67.5322560  85.0227740  25.8495640  67.0842430
  73.4930800  13.7698110  67.6368050  72.7789320  13.9695030  68.2420660
  73.9125840  12.9937680  68.0082850  87.5961750  23.3828590  55.0361880
  87.3083450  23.8441280  55.8239760  88.3913920  22.9226360  55.3046100
  81.7715980  26.0294260  70.0232700  81.4512850  25.3103500  70.5678390
  81.0974340  26.7049330  70.0968760  79.8130150  26.8754710  54.9665850
  79.8040250  27.6084400  54.3510360  78.8928510  26.6286290  55.0592810
  75.4136790  22.0969600  55.7112610  74.8064740  22.8368500  55.7207910
  75.8886140  22.1868960  54.8850810  84.9869580  16.2620420  65.3869500
  85.3550400  15.4415630  65.7149070  84.1267780  16.3222310  65.8025150
  88.3531610  15.2177360  56.1957060  87.7244770  15.3223030  55.4815290
  87.8583530  15.4374140  56.9850940  82.7989750  26.9382950  53.6291040
  82.9001730  26.7346940  52.6993020  81.8991490  26.6841230  53.8338820
  80.3215640  17.4963310  57.6114940  79.6131790  17.9649650  58.0528550
  80.6060120  16.8385320  58.2460130  81.9471570  18.9160010  65.6107470
  82.4456820  19.3905830  66.2759320  82.0894520  17.9923530  65.8177500
  84.3531070  14.2213970  59.0510730  84.2298850  14.2400100  58.1020240
  85.3015630  14.2692910  59.1709130  81.4407860  29.4569270  58.3238710
  81.6949360  29.4190660  57.4018080  80.4920340  29.3302600  58.3166960
  78.5250660  15.8048390  54.9865650  79.3741190  16.2418540  54.9205840
  78.1581930  16.1168650  55.8137710  89.1538430  15.1327970  66.4535860
  88.6512030  15.8733370  66.7929670  89.9695090  15.5211970  66.1372650
  87.4460440  20.3761150  59.8997220  86.5050580  20.3911380  60.0744910
  87.7604510  19.5897110  60.3457520  77.4242080  22.0580750  53.4601180
  78.1905350  21.9462110  54.0226610  77.5016770  21.3618720  52.8077950
  76.1188840  19.4905820  54.1434070  76.1992430  18.5433330  54.2551470
  77.0108590  19.8212700  54.2494730  89.4486020  27.5470000  61.5751480
  89.5733440  28.3701170  62.0475290  90.3151580  27.3360730  61.2275630
  76.9203550  29.6401210  61.2468610  77.6566030  29.0916670  61.5177180
  77.3044470  30.5057220  61.1074600  73.8049030  25.7074780  57.1210120
  72.8788810  25.9495920  57.1115530  74.2705460  26.5349040  56.9994870
  75.9261830  28.8247280  70.4354190  76.7274560  29.1459330  70.8489590
  75.4113650  28.4642860  71.1574100  80.0305860  28.8131520  53.0694180
  80.8234470  29.1020350  52.6175970  79.5110210  28.3823690  52.3906660
  84.7626460  24.9327150  70.3829600  84.1564620  24.9558750  69.6425350
  84.4580570  24.2010190  70.9196850  86.1926830  28.6607440  68.9939010
  87.1448580  28.5765460  68.9439250  86.0455050  29.3249150  69.6672800
  89.0836030  28.0401650  54.4930920  88.7977540  27.6266790  53.6785100
  88.8855580  28.9689360  54.3731440  73.6459640  21.3120740  69.3790240
  74.1498660  20.7328020  69.9506470  72.9067060  21.5960970  69.9166610
  80.5483260  24.0334930  52.9336530  80.4433900  23.4187280  53.6597910
  80.3807480  23.5100820  52.1499540  80.6997580  22.7191730  68.9125760
  79.9343250  23.2876730  68.8280430  80.8813540  22.4267940  68.0193990
  83.7885990  23.0954960  53.5378520  83.2396090  23.5424260  54.1821260
  84.4105250  22.5904210  54.0616190  87.8420930  24.4497060  69.4700780
  88.5830400  24.7872820  68.9668240  87.0793610  24.6189120  68.9170550
  75.6782720  19.4550330  70.2740310  75.7188060  19.1564200  71.1825540
  76.5328220  19.8557940  70.1147830  79.4561110  22.0545880  55.4343820
  79.8777530  21.8885750  56.2775210  79.5811950  21.2446110  54.9398960
  77.6188530  18.0342430  68.2414800  77.0884990  17.5433380  67.6138140
  78.2876600  18.4626630  67.7072730  81.9688750  21.0783490  52.6820920
  82.4894410  20.3632510  52.3162070  82.6157150  21.7169360  52.9821430
  86.5166590  22.5011890  68.0055990  86.9307610  22.6556970  68.8546410
  85.5817590  22.6267110  68.1681770  86.9888760  19.8408050  70.0095140
  87.5709530  19.0860370  69.9215620  87.1650530  20.3715490  69.2326620
  78.1060830  15.0004800  68.3212090  78.0117700  14.3825550  67.5962960
  77.5258220  15.7271090  68.0942000  80.8722270  13.5578040  65.3539480
  80.4239570  13.5802300  64.5085030  80.2387470  13.1597060  65.9509780
  81.2781820  22.4532370  65.9751920  81.6969930  23.2965100  65.8028160
  80.3590450  22.5904410  65.7458700  83.6145720  20.1848550  67.3589760
  83.7341930  19.5889690  68.0984600  84.4739720  20.2218240  66.9391060
  85.9533620  20.7385740  65.9352270  85.4268840  21.2628360  65.3317410
  86.2964960  21.3713130  66.5662000  78.3520010  18.1279110  52.3801980
  78.1509070  17.2646470  52.7415320  78.1812060  18.0412470  51.4423580
  79.1289240  28.7585380  67.0909650  78.5910330  29.4831440  66.7718350
  79.3823200  28.2815720  66.3006990  80.3814490  16.7269900  68.6165580
  80.9714180  16.4185750  69.3043400  79.5634730  16.2549650  68.7725480
  85.2007920  16.3435710  68.8498600  84.5123440  15.6817250  68.7848590
  85.9213940  15.8973980  69.2947060  85.8308320  12.9387340  54.9088860
  86.1110610  12.0955240  55.2648280  85.0574050  13.1710450  55.4227610
  77.1502810  15.2279730  52.3679860  77.4528710  15.2347160  51.4599010
  77.8897400  14.8777590  52.8647520  81.9851450  29.9936590  67.3496300
  81.9110150  30.8971730  67.6568670  81.0830290  29.6748490  67.3218370
  80.3687740  14.1714350  53.3536060  80.0209740  13.4938340  52.7738510
  80.5700510  13.7103860  54.1679450  82.5336780  29.1595100  54.9722660
  83.4287570  29.4980070  54.9941420  82.5654410  28.4374510  54.3446940
  76.1732940  24.5322150  53.2009660  76.6107810  25.0751820  53.8567240
  76.6580670  23.7069100  53.2106000  73.3878740  27.3211180  60.6529920
  73.7181750  26.4532240  60.4208560  73.8169740  27.5269700  61.4834880
  77.9840660  25.6520190  58.3131890  77.6836200  25.5285160  59.2135800
  77.8778150  24.7928780  57.9047620  73.8768950  28.1881770  63.3911550
  73.4399940  28.3682570  64.2235700  74.4446630  28.9456390  63.2493270
  89.5131130  27.6898770  67.6788860  88.9133120  27.7491330  66.9352780
  89.6425030  26.7503750  67.8085710  90.7532580  25.4316590  53.0158570
  89.9225540  25.4993240  53.4865800  90.9304410  26.3220710  52.7125430
  90.2089040  22.1764070  55.5192770  90.9707950  22.7460720  55.6252460
  90.2243410  21.6091270  56.2901080  73.7093380  20.7002000  59.7500430
  73.0542220  20.4313640  59.1060130  74.5471330  20.5906480  59.3002410
  91.2149010  23.0314170  60.3634700  91.5857840  22.2481490  59.9570670
  91.8550940  23.7203270  60.1852000  88.1982770  24.4150750  65.7765020
  87.3842610  24.8447910  66.0390810  88.6056970  25.0269160  65.1634070
  90.2608210  22.4698440  52.6765290  90.5357050  23.3777320  52.5484510
  90.0718950  22.4060970  53.6127280  86.6583820  15.4943290  53.9718920
  87.0768700  15.3074270  53.1315580  86.3519880  14.6422340  54.2821850
  90.1573550  20.4067430  57.6694720  89.7817150  19.6395360  57.2376010
  89.4276670  20.7890130  58.1569650  74.7469310  21.0854570  64.2903770
  75.1142350  20.9981970  65.1699790  74.1780130  20.3221120  64.1910630
  89.5473170  19.5538950  67.3034240  89.3159260  19.3251700  66.4032190
  89.8077720  20.4738500  67.2579130  74.2985310  17.9963660  68.1962190
  73.4041360  17.9630420  68.5355900  74.8382860  18.1950450  68.9613440
  87.9861240  14.7795380  70.0813940  88.8631420  14.7878780  70.4647940
  87.9982080  14.0426220  69.4706290  72.9231460  17.9100930  55.6925760
  72.0195540  18.1731130  55.5177420  73.4072080  18.1812100  54.9125720
  89.4324510  18.6324920  60.9701960  89.9561990  18.1387570  60.3392130
  90.0183930  18.7675280  61.7149530  89.6114230  18.7164790  64.4921510
  88.6616940  18.6828330  64.6066500  89.7927240  19.6264900  64.2571280
  75.4658670  16.9666470  53.6020140  76.1750370  16.5449690  53.1167420
  74.7498610  17.0341700  52.9703490  75.1132830  13.0205800  52.6422790
  75.8360960  13.5614740  52.9604010  75.3857350  12.7469220  51.7664330
  88.9224480  17.8898270  56.9094370  89.4183600  17.6569140  57.6943250
  88.7240550  17.0510110  56.4932010  74.8025020  12.2711990  62.5445410
  75.4501210  11.7209370  62.1040570  75.2226860  12.5255140  63.3661220
  90.3511640  16.5259220  59.4432050  90.2410920  16.3715260  60.3814320
  91.1119230  15.9980160  59.2007460  88.6977360  12.4653350  65.9015050
  89.3349580  13.0787490  66.2674240  88.8452250  12.5014010  64.9564280
  91.2401910  14.3567140  52.6838190  92.1651220  14.2248320  52.4756480
  91.2177700  14.4359960  53.6374640  91.3140400  15.1277800  55.3094900
  90.5191900  15.0622920  55.8387810  91.5183680  16.0628440  55.2980250
  88.2558820  29.1669350  59.3033290  88.8517890  28.8453920  58.6267710
  88.5136970  28.6941170  60.0946560  74.5557020  12.4267660  65.2870730
  74.2071840  12.8831480  66.0528910  74.2244720  11.5324790  65.3693160
  76.1621390  25.5987260  69.4523920  76.1191020  25.2280170  70.3338380
  76.2932400  26.5364830  69.5925740  79.8627420  27.1546850  65.0533640
  79.6218780  27.4221410  64.1664160  80.8030060  27.3252580  65.1084500
  82.0681840  13.6179540  68.8090150  82.0070730  14.2101370  69.5585560
  83.0082220  13.5105500  68.6640410  84.7056400  13.2749600  68.4482440
  85.3196810  13.5928890  67.7863520  85.2505960  12.7898190  69.0678300
  91.1231580  29.1741230  65.8544280  90.6289860  29.5710100  65.1371410
  90.5144870  28.5490440  66.2481560  75.2277660  11.9543860  68.5621500
  75.7760650  11.7731910  67.7987610  75.2932970  11.1637970  69.0977810
  76.0009420  28.5449510  66.5721700  75.4069740  28.4134210  67.3111740
  75.9933260  27.7087650  66.1063800  85.4464440  11.8381740  64.7751730
  84.5724280  12.1716850  64.5724660  85.3375190  11.3654920  65.6003600
  86.3536420  14.0452610  66.1593450  86.0249780  13.2304370  65.7795180
  87.3018720  14.0022420  66.0359140  88.8071030  29.8164650  63.1331020
  88.3474000  30.5680460  62.7589040  88.1783490  29.0971120  63.0745820
  75.6321650  25.9107890  65.5229740  74.9055710  25.2913180  65.4555690
  75.6930800  26.3048500  64.6527820  79.2366750  28.1252890  62.3079150
  79.7531770  27.5140250  61.7827410  79.8864130  28.6281670  62.7990160
  81.9762250  29.0161380  63.1348130  82.2640060  28.7615680  62.2581140
  82.4885470  28.4638740  63.7253700  83.1939260  12.7551580  63.7144640
  82.4111050  13.2297080  63.9941400  82.9002190  11.8506410  63.6057820
  87.7460330  13.4574680  61.7593730  88.1868420  13.4019780  60.9115330
  87.4767920  14.3732690  61.8303910  89.6098900  13.0889920  59.7702550
  89.5487300  12.1451140  59.6233570  90.3890930  13.1970010  60.3156010
  73.9151650  29.2282280  58.7326500  73.7473690  28.5952960  59.4308390
  73.0486160  29.4341680  58.3820690  74.5379670  13.0599060  56.2358360
  75.2959030  13.1727940  55.6622390  74.0756840  13.8968260  56.1901790
  81.0793480  15.1738330  59.2260670  80.2667990  14.7995220  58.8856550
  81.5835120  14.4183410  59.5281860  85.5818460  11.8380780  60.4643740
  86.1847830  12.4100990  60.9392260  84.8411450  12.4020220  60.2417640
  88.7253060  12.2402340  55.7384020  88.9203690  13.1385790  56.0051450
  87.9382930  12.0089420  56.2316970  75.5214350  27.9215510  56.1776640
  74.9961970  28.3023540  55.4738600  75.4458930  28.5466280  56.8986350
  76.9104820  13.5863110  54.7760330  77.4397580  12.7992910  54.6468280
  77.5433140  14.2654300  55.0095860  79.1042660  13.3238250  57.8305720
  78.4745400  12.6225560  57.9975850  78.5647800  14.0842380  57.6138880
  82.0434610  29.9377480  70.5016330  82.9701920  29.7021750  70.5452290
  82.0285040  30.7649480  70.0202360  90.2779670  29.4803050  57.4990580
  90.4531860  28.7940790  56.8551500  89.5801240  30.0050100  57.1067250
  79.2298220  12.6022230  70.2658210  78.9482490  13.1055830  69.5019030
  79.6117920  11.8043980  69.9000340  78.1207320  29.8697890  55.0525890
  78.8526140  29.5857170  54.5049780  78.3800990  29.6311170  55.9425270
  77.2822110  25.9862620  55.0572220  76.6530990  26.4547720  55.6058050
  77.3969940  25.1411840  55.4918410  85.8313680  12.0175810  70.8438680
  85.7179130  12.3370420  71.7390200  86.6483420  12.4188320  70.5475960
  88.6112170  29.1647340  70.3257370  89.4037490  28.6696570  70.1183330
  88.9045320  29.8437480  70.9332980  84.7371830  20.0368280  41.2073420
  84.6565880  19.1222890  40.9365130  84.3236250  20.5335350  40.5013130
  82.8689870  21.8147300  43.0882690  82.0931970  21.3347740  43.3781260
  83.5202800  21.1352950  42.9138850  76.8855700  22.1267110  43.9658450
  76.0540580  21.8715820  44.3654960  77.4936680  22.1977880  44.7016370
  86.8897300  26.2207490  41.8681820  86.4278830  25.4494730  42.1968990
  87.7022850  26.2473560  42.3734270  76.8656960  26.1607200  44.1616470
  77.1685000  25.2704940  43.9826690  77.6100550  26.7177420  43.9338720
  75.2947650  17.0869000  37.7500840  74.4064350  17.4284970  37.6480720
  75.5788840  16.8869320  36.8581670  73.2580660  19.6874650  43.6340540
  73.8296770  18.9196850  43.6344180  73.2582200  19.9863410  42.7247150
  83.1160610  28.5065500  41.4885810  82.4972050  28.9623000  40.9180250
  83.9712390  28.6616960  41.0875510  82.3098860  24.4904490  43.0952850
  82.2407140  23.5494430  42.9341980  83.0718720  24.5805900  43.6675420
  74.5005530  15.0959010  45.4209470  74.3208370  14.1984760  45.7012230
  74.0985610  15.6430880  46.0956420  83.3404030  17.2974870  43.3221780
  83.7168850  16.4246750  43.2095450  83.2423540  17.6333570  42.4312220
  77.4709040  15.6700500  38.7839220  77.5775790  16.5704230  39.0907980
  76.5601400  15.6218470  38.4933870  87.1228150  14.7925310  40.2550120
  87.9437770  14.3021880  40.2975600  87.1562230  15.3822970  41.0081960
  75.1192200  17.5919510  44.0291810  75.8002310  17.8557880  44.6479210
  74.8040250  16.7520380  44.3629820  79.3116770  18.6386870  43.1164400
  79.8194990  19.1367840  43.7569420  79.8430010  17.8622070  42.9403760
  91.4127700  16.8092060  46.8193750  90.7079870  17.1973770  46.3008860
  91.6785620  17.5042350  47.4214680  77.5952870  13.2785430  47.3827820
  77.5971310  13.7957820  46.5773720  76.7657180  12.8015610  47.3597750
  83.9823960  23.3904740  38.8817720  83.3641230  23.8554190  38.3180440
  84.4947210  24.0832220  39.2987230  78.8455720  22.9180610  45.5601320
  78.5125100  23.5449530  46.2022390  79.0222400  23.4442490  44.7802990
  87.3589630  16.7325690  43.0277660  86.6545200  17.0210580  43.6080770
  87.7201790  17.5425800  42.6677220  77.2768200  14.9895390  45.3898270
  77.6185010  15.8337440  45.0952140  76.3384010  15.1379130  45.5063610
  78.0574820  24.8861410  47.3750500  78.6748820  25.5612490  47.0934950
  77.1967940  25.2949390  47.2838000  73.3507160  24.0761270  36.2557350
  72.9735140  24.5648370  35.5242250  73.6080230  24.7486550  36.8863880
  88.9752410  26.3500820  45.2905140  88.2915930  27.0199930  45.2821810
  89.5146700  26.5481470  44.5250000  90.4276550  16.1780480  43.4186870
  89.4801460  16.2119460  43.5502300  90.7526540  16.9919430  43.8036230
  80.9596090  12.4777660  41.7142860  81.2671070  11.9224550  40.9978360
  80.0296790  12.6122120  41.5315850  86.5111150  28.1944950  44.0050320
  86.5238310  27.7907240  43.1372580  85.9586370  28.9692240  43.9011750
  87.8056570  24.9161170  39.0940490  87.6952900  23.9735500  39.2189910
  87.8024820  25.2776810  39.9803250  85.9096590  23.0974790  45.3332930
  86.3265380  22.8834900  44.4986390  86.6336410  23.3547580  45.9041550
  83.3476850  20.5426490  38.4502980  82.4206130  20.4763870  38.6791450
  83.5001670  21.4806620  38.3358220  83.3345930  16.8143490  35.4470140
  82.3949600  16.9757450  35.5322600  83.6529190  17.5329170  34.9006130
  89.8558690  21.4962010  45.4249170  89.0277320  21.5655100  44.9499300
  90.4509170  22.0816320  44.9565000  87.3774140  22.1046790  38.9538230
  86.7586560  21.7666340  38.3064530  87.3598590  21.4606550  39.6617420
  86.8200700  18.2831330  46.3704040  86.4071880  19.1085040  46.6244030
  86.0876650  17.6976370  46.1780400  78.9533490  21.0691230  41.2322710
  78.5490490  20.3568480  40.7368610  79.0396610  20.7244470  42.1210750
  79.4215190  24.7558790  43.3961920  79.1243480  24.1504260  42.7169700
  80.3715010  24.7936100  43.2851280  77.6662110  17.8434440  45.0121750
  78.2176700  17.9529780  44.2375000  78.1805620  18.2172040  45.7276980
  87.5100800  28.3290660  47.0585020  87.0331360  29.1362850  46.8657630
  86.8262590  27.6768990  47.2111230  78.5133620  24.4940480  50.0469720
  77.6162150  24.7180450  50.2943120  78.5386490  24.6175420  49.0981120
  85.5538840  21.3433600  35.9610980  85.9932120  20.5056030  35.8148800
  86.2667260  21.9763000  36.0475120  77.3404840  21.3653800  48.6227090
  77.2012610  22.2376600  48.9914490  76.4586200  21.0226610  48.4775030
  83.6634220  26.2829670  39.9292220  84.1030130  27.0254000  39.5147610
  83.6021110  26.5256240  40.8531180  79.1385190  27.3075500  50.8312240
  79.1100620  27.7118450  49.9640670  78.9750160  26.3785860  50.6683840
  89.1355980  12.5976410  34.2752020  88.8228640  12.6903240  35.1751090
  89.8968450  13.1757440  34.2249450  75.6538120  19.9636210  38.7329360
  75.5335720  20.6898300  38.1210630  75.3439010  19.1939120  38.2557270
  91.0900010  28.0902600  52.1276410  91.5659730  28.5685490  52.8065490
  91.7107170  28.0220090  51.4021910  73.2923490  23.1351350  44.5398000
  73.3703910  23.2700120  43.5953720  73.9065170  22.4267240  44.7326120
  74.5371120  24.8351540  40.9504180  74.1299200  24.9766130  40.0957780
  75.4284130  24.5511700  40.7475390  90.4933260  25.2815450  49.2876420
  90.6196320  25.0427330  48.3693600  90.5354640  24.4499990  49.7598500
  84.3550000  28.9843450  47.8571230  84.8694670  28.8951460  48.6593660
  83.5119080  29.3303150  48.1499140  86.3304400  29.2698790  37.2855230
  86.1705540  28.9801730  38.1837060  86.1651110  28.4938920  36.7500460
  78.8092780  29.0497320  39.0626850  78.6335260  28.1332860  38.8494650
  77.9548520  29.4084610  39.3024650  86.0330530  26.7786350  35.8453230
  85.3395690  26.7763640  35.1855510  86.7753390  26.3545670  35.4147400
  85.5980460  28.4049060  39.9201720  86.0537410  27.6238440  40.2340340
  85.9372980  29.1155880  40.4642900  90.3457270  17.3347910  50.2526160
  89.7301540  17.8427580  49.7241620  90.0253690  16.4346240  50.1952100
  73.3483010  24.1765520  47.0792460  73.5114050  23.7070880  46.2611830
  73.8135460  23.6689080  47.7441300  78.1201780  13.3071280  42.1153030
  77.6769930  14.0880820  41.7837550  78.6786770  13.6301170  42.8223970
  82.4071590  16.1739800  47.7188350  81.9450960  16.3822820  48.5308290
  82.0049700  15.3599150  47.4159020  87.4076100  17.3948750  48.8485010
  86.5569690  17.0954500  49.1694080  87.2477890  17.6390760  47.9368830
  84.5025810  18.8950500  50.9483800  84.8279220  18.0614250  50.6086030
  85.2906140  19.4179020  51.0962130  81.2360600  12.9281980  36.9958860
  80.6114780  12.9241850  37.7212170  81.1490720  12.0612940  36.5994830
  80.1577680  13.8518610  43.9742630  80.4550010  14.7581440  43.8934650
  80.7063240  13.3637390  43.3602200  77.9116000  18.4304850  39.8434280
  77.6856920  18.2142020  40.7480900  77.1308530  18.8633310  39.4980250
  85.1413760  18.4368220  38.4424930  84.5422650  19.1604020  38.2588550
  85.6893370  18.3745000  37.6601380  80.3515210  19.3290430  50.5094550
  80.2558810  18.3885160  50.3594950  81.1947190  19.5505500  50.1142620
  83.7478630  17.0731760  40.4728210  84.1408200  17.3903960  39.6596900
  84.1095480  16.1943640  40.5872730  75.4825750  15.7404100  48.6628330
  75.0889140  16.5879310  48.8701110  74.7944150  15.1030470  48.8536970
  82.0570800  15.8239070  51.7325070  81.3669120  15.6311270  52.3671160
  82.8003100  16.1073710  52.2649370  72.7842800  13.6632560  42.6958410
  72.4955850  14.2335420  43.4083390  73.5288560  13.1837010  43.0589640
  72.9713030  17.6052680  33.9061130  72.8887700  18.5483440  34.0476120
  72.6196090  17.4627590  33.0273480  84.3333770  19.6637510  44.5678990
  83.6014890  20.1724320  44.9169090  83.9358110  18.8467490  44.2667770
  80.7711160  16.3391710  42.9731480  80.7747220  15.8981660  42.1236020
  81.6662280  16.6609040  43.0803300  76.6213540  16.2218200  41.9325690
  76.2813590  16.6993430  42.6892740  75.8590860  15.7683320  41.5726790
  80.8331310  17.3403790  35.9638240  80.9544130  17.2990270  36.9124060
  80.4479820  18.2027940  35.8084970  84.7959680  15.1171190  43.9801930
  84.8132420  15.5679840  44.8243780  84.5475260  14.2176830  44.1935370
  79.8452810  19.6504930  35.3621540  79.2769710  19.2023180  34.7357450
  80.5541810  20.0097710  34.8286690  88.2230430  12.5303370  49.8188310
  88.5476200  11.7993030  50.3446290  88.2586940  12.2117010  48.9169300
  74.9221990  23.5516950  49.2388270  74.5376780  22.9110620  49.8371230
  75.2334180  24.2553070  49.8083000  81.0719130  20.3993490  44.7196890
  81.4389260  19.9252060  45.4658230  80.8824190  21.2735060  45.0605230
  73.9359620  15.1437180  40.8490360  73.6506540  14.7792850  41.6868980
  73.8738480  14.4117640  40.2353500  78.8618500  19.4402130  47.0381100
  78.5575570  20.3194110  47.2631460  79.8164960  19.5001920  47.0738540
  77.3900290  23.6463120  37.6347950  76.6162550  23.1060740  37.4746670
  78.1194920  23.1269730  37.2965710  88.1488270  22.6428480  43.4274340
  88.8687390  23.1383770  43.0370450  87.9470090  21.9646370  42.7828210
  83.6098210  14.0366440  37.5703730  82.7962820  13.5379610  37.4949040
  83.4160160  14.8764690  37.1540080  83.5307070  22.7137540  49.3143340
  83.4644380  21.7933210  49.0600930  82.9012210  22.8112980  50.0287980
  86.3246600  18.4086090  35.8665890  87.2126220  18.7203320  35.6917230
  86.2951690  17.5358340  35.4746470  77.4337690  23.3143500  41.2726760
  77.9516360  22.5111760  41.2183650  76.9821710  23.2522640  42.1143590
  82.3207190  24.5809780  36.5454060  82.6622890  25.3252010  36.0497380
  81.4919900  24.8940900  36.9078890  74.9182230  20.2804870  48.1852460
  74.5597170  20.9458720  48.7725800  74.6236790  19.4488420  48.5565080
  78.1195350  20.7389110  51.0692010  77.8195490  20.8846290  50.1719830
  78.8906590  20.1794400  50.9765400  83.4623800  25.5358110  49.0647140
  83.4768340  24.6039070  48.8466050  82.7548900  25.6217870  49.7036910
  88.5960870  19.7197930  35.3345750  88.5124590  20.1512150  34.4842190
  89.3155060  20.1796280  35.7672570  89.6735010  22.1765450  48.4115720
  88.9483200  22.7694230  48.2145110  90.2010470  22.1688990  47.6129090
  89.6248120  26.5740190  38.0627880  88.9824280  25.9195810  38.3371600
  89.2378780  26.9795280  37.2868550  85.2034600  23.9025620  41.9099570
  85.5558420  23.3053750  41.2500940  84.3196930  23.5769850  42.0807820
  81.2897880  24.6623310  39.3169980  81.9769010  25.2092520  39.6977570
  80.5030300  25.2064040  39.3519590  73.4290280  20.2796130  34.8087060
  74.2985130  20.5620930  35.0922980  72.9380600  21.0932000  34.6935870
  80.5925090  21.6669340  38.9295340  81.0487870  22.4774590  39.1555530
  80.2413300  21.3492480  39.7613830  82.8957700  27.1775680  46.1587640
  83.5399920  27.3835060  46.8361060  83.2587140  26.4164080  45.7058490
  76.4936870  12.0106990  39.4017860  76.3651500  12.0024890  40.3502780
  75.6698890  12.3490080  39.0508870  84.1689780  25.1808030  44.8765090
  84.8112010  24.4801190  44.9897260  84.6939130  25.9606470  44.6961980
  88.0145500  25.4656650  34.6004230  87.7883080  24.7487090  35.1928870
  87.6241700  25.2169090  33.7625980  85.9427400  25.9802930  48.0801150
  86.2783640  26.5669620  48.7579070  85.0227740  25.8495640  48.3098940
  73.7961530  29.4923510  35.3748690  74.1559170  30.0912850  34.7205960
  73.6553870  30.0383400  36.1483720  73.4930800  13.7698110  48.8624560
  72.7789320  13.9695030  49.4677170  73.9125840  12.9937680  49.2339360
  87.5961750  23.3828590  36.2618390  87.3083450  23.8441280  37.0496270
  88.3913920  22.9226360  36.5302610  73.7803390  27.7578370  49.8491090
  73.8894510  26.8173110  49.7086480  73.1283950  28.0233120  49.2004820
  81.7715980  26.0294260  51.2489210  81.4512850  25.3103500  51.7934900
  81.0974340  26.7049330  51.3225270  79.8130150  26.8754710  36.1922360
  79.8040250  27.6084400  35.5766870  78.8928510  26.6286290  36.2849320
  75.4136790  22.0969600  36.9369120  74.8064740  22.8368500  36.9464420
  75.8886140  22.1868960  36.1107320  84.9869580  16.2620420  46.6126010
  85.3550400  15.4415630  46.9405580  84.1267780  16.3222310  47.0281660
  88.3531610  15.2177360  37.4213570  87.7244770  15.3223030  36.7071800
  87.8583530  15.4374140  38.2107450  82.7989750  26.9382950  34.8547550
  82.9001730  26.7346940  33.9249530  81.8991490  26.6841230  35.0595330
  80.3215640  17.4963310  38.8371450  79.6131790  17.9649650  39.2785060
  80.6060120  16.8385320  39.4716640  81.9471570  18.9160010  46.8363980
  82.4456820  19.3905830  47.5015830  82.0894520  17.9923530  47.0434010
  84.3531070  14.2213970  40.2767240  84.2298850  14.2400100  39.3276750
  85.3015630  14.2692910  40.3965640  81.4407860  29.4569270  39.5495220
  81.6949360  29.4190660  38.6274590  80.4920340  29.3302600  39.5423470
  78.5250660  15.8048390  36.2122160  79.3741190  16.2418540  36.1462350
  78.1581930  16.1168650  37.0394220  89.1538430  15.1327970  47.6792370
  88.6512030  15.8733370  48.0186180  89.9695090  15.5211970  47.3629160
  87.4460440  20.3761150  41.1253730  86.5050580  20.3911380  41.3001420
  87.7604510  19.5897110  41.5714030  77.4242080  22.0580750  34.6857690
  78.1905350  21.9462110  35.2483120  77.5016770  21.3618720  34.0334460
  76.1188840  19.4905820  35.3690580  76.1992430  18.5433330  35.4807980
  77.0108590  19.8212700  35.4751240  89.4486020  27.5470000  42.8007990
  89.5733440  28.3701170  43.2731800  90.3151580  27.3360730  42.4532140
  76.9203550  29.6401210  42.4725120  77.6566030  29.0916670  42.7433690
  77.3044470  30.5057220  42.3331110  73.8049030  25.7074780  38.3466630
  72.8788810  25.9495920  38.3372040  74.2705460  26.5349040  38.2251380
  75.9261830  28.8247280  51.6610700  76.7274560  29.1459330  52.0746100
  75.4113650  28.4642860  52.3830610  80.0305860  28.8131520  34.2950690
  80.8234470  29.1020350  33.8432480  79.5110210  28.3823690  33.6163170
  84.7626460  24.9327150  51.6086110  84.1564620  24.9558750  50.8681860
  84.4580570  24.2010190  52.1453360  86.1926830  28.6607440  50.2195520
  87.1448580  28.5765460  50.1695760  86.0455050  29.3249150  50.8929310
  89.0836030  28.0401650  35.7187430  88.7977540  27.6266790  34.9041610
  88.8855580  28.9689360  35.5987950  73.6459640  21.3120740  50.6046750
  74.1498660  20.7328020  51.1762980  72.9067060  21.5960970  51.1423120
  80.5483260  24.0334930  34.1593040  80.4433900  23.4187280  34.8854420
  80.3807480  23.5100820  33.3756050  80.6997580  22.7191730  50.1382270
  79.9343250  23.2876730  50.0536940  80.8813540  22.4267940  49.2450500
  83.7885990  23.0954960  34.7635030  83.2396090  23.5424260  35.4077770
  84.4105250  22.5904210  35.2872700  87.8420930  24.4497060  50.6957290
  88.5830400  24.7872820  50.1924750  87.0793610  24.6189120  50.1427060
  75.6782720  19.4550330  51.4996820  75.7188060  19.1564200  52.4082050
  76.5328220  19.8557940  51.3404340  79.4561110  22.0545880  36.6600330
  79.8777530  21.8885750  37.5031720  79.5811950  21.2446110  36.1655470
  77.6188530  18.0342430  49.4671310  77.0884990  17.5433380  48.8394650
  78.2876600  18.4626630  48.9329240  86.5166590  22.5011890  49.2312500
  86.9307610  22.6556970  50.0802920  85.5817590  22.6267110  49.3938280
  86.9888760  19.8408050  51.2351650  87.5709530  19.0860370  51.1472130
  87.1650530  20.3715490  50.4583130  78.1060830  15.0004800  49.5468600
  78.0117700  14.3825550  48.8219470  77.5258220  15.7271090  49.3198510
  80.8722270  13.5578040  46.5795990  80.4239570  13.5802300  45.7341540
  80.2387470  13.1597060  47.1766290  81.2781820  22.4532370  47.2008430
  81.6969930  23.2965100  47.0284670  80.3590450  22.5904410  46.9715210
  83.6145720  20.1848550  48.5846270  83.7341930  19.5889690  49.3241110
  84.4739720  20.2218240  48.1647570  85.9533620  20.7385740  47.1608780
  85.4268840  21.2628360  46.5573920  86.2964960  21.3713130  47.7918510
  78.3520010  18.1279110  33.6058490  78.1509070  17.2646470  33.9671830
  78.1812060  18.0412470  32.6680090  79.1289240  28.7585380  48.3166160
  78.5910330  29.4831440  47.9974860  79.3823200  28.2815720  47.5263500
  80.3814490  16.7269900  49.8422090  80.9714180  16.4185750  50.5299910
  79.5634730  16.2549650  49.9981990  85.2007920  16.3435710  50.0755110
  84.5123440  15.6817250  50.0105100  85.9213940  15.8973980  50.5203570
  85.8308320  12.9387340  36.1345370  86.1110610  12.0955240  36.4904790
  85.0574050  13.1710450  36.6484120  77.1502810  15.2279730  33.5936370
  77.4528710  15.2347160  32.6855520  77.8897400  14.8777590  34.0904030
  81.9851450  29.9936590  48.5752810  81.9110150  30.8971730  48.8825180
  81.0830290  29.6748490  48.5474880  80.3687740  14.1714350  34.5792570
  80.0209740  13.4938340  33.9995020  80.5700510  13.7103860  35.3935960
  82.5336780  29.1595100  36.1979170  83.4287570  29.4980070  36.2197930
  82.5654410  28.4374510  35.5703450  76.1732940  24.5322150  34.4266170
  76.6107810  25.0751820  35.0823750  76.6580670  23.7069100  34.4362510
  73.3878740  27.3211180  41.8786430  73.7181750  26.4532240  41.6465070
  73.8169740  27.5269700  42.7091390  77.9840660  25.6520190  39.5388400
  77.6836200  25.5285160  40.4392310  77.8778150  24.7928780  39.1304130
  73.8768950  28.1881770  44.6168060  73.4399940  28.3682570  45.4492210
  74.4446630  28.9456390  44.4749780  89.5131130  27.6898770  48.9045370
  88.9133120  27.7491330  48.1609290  89.6425030  26.7503750  49.0342220
  90.7532580  25.4316590  34.2415080  89.9225540  25.4993240  34.7122310
  90.9304410  26.3220710  33.9381940  90.2089040  22.1764070  36.7449280
  90.9707950  22.7460720  36.8508970  90.2243410  21.6091270  37.5157590
  73.7093380  20.7002000  40.9756940  73.0542220  20.4313640  40.3316640
  74.5471330  20.5906480  40.5258920  91.2149010  23.0314170  41.5891210
  91.5857840  22.2481490  41.1827180  91.8550940  23.7203270  41.4108510
  88.1982770  24.4150750  47.0021530  87.3842610  24.8447910  47.2647320
  88.6056970  25.0269160  46.3890580  90.2608210  22.4698440  33.9021800
  90.5357050  23.3777320  33.7741020  90.0718950  22.4060970  34.8383790
  86.6583820  15.4943290  35.1975430  87.0768700  15.3074270  34.3572090
  86.3519880  14.6422340  35.5078360  90.1573550  20.4067430  38.8951230
  89.7817150  19.6395360  38.4632520  89.4276670  20.7890130  39.3826160
  74.7469310  21.0854570  45.5160280  75.1142350  20.9981970  46.3956300
  74.1780130  20.3221120  45.4167140  89.5473170  19.5538950  48.5290750
  89.3159260  19.3251700  47.6288700  89.8077720  20.4738500  48.4835640
  74.2985310  17.9963660  49.4218700  73.4041360  17.9630420  49.7612410
  74.8382860  18.1950450  50.1869950  87.9861240  14.7795380  51.3070450
  88.8631420  14.7878780  51.6904450  87.9982080  14.0426220  50.6962800
  72.9231460  17.9100930  36.9182270  72.0195540  18.1731130  36.7433930
  73.4072080  18.1812100  36.1382230  89.4324510  18.6324920  42.1958470
  89.9561990  18.1387570  41.5648640  90.0183930  18.7675280  42.9406040
  89.6114230  18.7164790  45.7178020  88.6616940  18.6828330  45.8323010
  89.7927240  19.6264900  45.4827790  75.4658670  16.9666470  34.8276650
  76.1750370  16.5449690  34.3423930  74.7498610  17.0341700  34.1960000
  75.1132830  13.0205800  33.8679300  75.8360960  13.5614740  34.1860520
  75.3857350  12.7469220  32.9920840  88.9224480  17.8898270  38.1350880
  89.4183600  17.6569140  38.9199760  88.7240550  17.0510110  37.7188520
  74.8025020  12.2711990  43.7701920  75.4501210  11.7209370  43.3297080
  75.2226860  12.5255140  44.5917730  90.3511640  16.5259220  40.6688560
  90.2410920  16.3715260  41.6070830  91.1119230  15.9980160  40.4263970
  88.6977360  12.4653350  47.1271560  89.3349580  13.0787490  47.4930750
  88.8452250  12.5014010  46.1820790  91.2401910  14.3567140  33.9094700
  92.1651220  14.2248320  33.7012990  91.2177700  14.4359960  34.8631150
  91.3140400  15.1277800  36.5351410  90.5191900  15.0622920  37.0644320
  91.5183680  16.0628440  36.5236760  88.2558820  29.1669350  40.5289800
  88.8517890  28.8453920  39.8524220  88.5136970  28.6941170  41.3203070
  74.5557020  12.4267660  46.5127240  74.2071840  12.8831480  47.2785420
  74.2244720  11.5324790  46.5949670  76.1621390  25.5987260  50.6780430
  76.1191020  25.2280170  51.5594890  76.2932400  26.5364830  50.8182250
  79.8627420  27.1546850  46.2790150  79.6218780  27.4221410  45.3920670
  80.8030060  27.3252580  46.3341010  82.0681840  13.6179540  50.0346660
  82.0070730  14.2101370  50.7842070  83.0082220  13.5105500  49.8896920
  84.7056400  13.2749600  49.6738950  85.3196810  13.5928890  49.0120030
  85.2505960  12.7898190  50.2934810  91.1231580  29.1741230  47.0800790
  90.6289860  29.5710100  46.3627920  90.5144870  28.5490440  47.4738070
  75.2277660  11.9543860  49.7878010  75.7760650  11.7731910  49.0244120
  75.2932970  11.1637970  50.3234320  76.0009420  28.5449510  47.7978210
  75.4069740  28.4134210  48.5368250  75.9933260  27.7087650  47.3320310
  85.4464440  11.8381740  46.0008240  84.5724280  12.1716850  45.7981170
  85.3375190  11.3654920  46.8260110  86.3536420  14.0452610  47.3849960
  86.0249780  13.2304370  47.0051690  87.3018720  14.0022420  47.2615650
  88.8071030  29.8164650  44.3587530  88.3474000  30.5680460  43.9845550
  88.1783490  29.0971120  44.3002330  75.6321650  25.9107890  46.7486250
  74.9055710  25.2913180  46.6812200  75.6930800  26.3048500  45.8784330
  79.2366750  28.1252890  43.5335660  79.7531770  27.5140250  43.0083920
  79.8864130  28.6281670  44.0246670  81.9762250  29.0161380  44.3604640
  82.2640060  28.7615680  43.4837650  82.4885470  28.4638740  44.9510210
  83.1939260  12.7551580  44.9401150  82.4111050  13.2297080  45.2197910
  82.9002190  11.8506410  44.8314330  87.7460330  13.4574680  42.9850240
  88.1868420  13.4019780  42.1371840  87.4767920  14.3732690  43.0560420
  89.6098900  13.0889920  40.9959060  89.5487300  12.1451140  40.8490080
  90.3890930  13.1970010  41.5412520  73.9151650  29.2282280  39.9583010
  73.7473690  28.5952960  40.6564900  73.0486160  29.4341680  39.6077200
  74.5379670  13.0599060  37.4614870  75.2959030  13.1727940  36.8878900
  74.0756840  13.8968260  37.4158300  81.0793480  15.1738330  40.4517180
  80.2667990  14.7995220  40.1113060  81.5835120  14.4183410  40.7538370
  85.5818460  11.8380780  41.6900250  86.1847830  12.4100990  42.1648770
  84.8411450  12.4020220  41.4674150  88.7253060  12.2402340  36.9640530
  88.9203690  13.1385790  37.2307960  87.9382930  12.0089420  37.4573480
  75.5214350  27.9215510  37.4033150  74.9961970  28.3023540  36.6995110
  75.4458930  28.5466280  38.1242860  76.9104820  13.5863110  36.0016840
  77.4397580  12.7992910  35.8724790  77.5433140  14.2654300  36.2352370
  79.1042660  13.3238250  39.0562230  78.4745400  12.6225560  39.2232360
  78.5647800  14.0842380  38.8395390  82.0434610  29.9377480  51.7272840
  82.9701920  29.7021750  51.7708800  82.0285040  30.7649480  51.2458870
  90.2779670  29.4803050  38.7247090  90.4531860  28.7940790  38.0808010
  89.5801240  30.0050100  38.3323760  79.2298220  12.6022230  51.4914720
  78.9482490  13.1055830  50.7275540  79.6117920  11.8043980  51.1256850
  78.1207320  29.8697890  36.2782400  78.8526140  29.5857170  35.7306290
  78.3800990  29.6311170  37.1681780  77.2822110  25.9862620  36.2828730
  76.6530990  26.4547720  36.8314560  77.3969940  25.1411840  36.7174920
  85.8313680  12.0175810  52.0695190  85.7179130  12.3370420  52.9646710
  86.6483420  12.4188320  51.7732470  88.6112170  29.1647340  51.5513880
  89.4037490  28.6696570  51.3439840  88.9045320  29.8437480  52.1589490
  84.7371830  20.0368280  22.4329930  84.6565880  19.1222890  22.1621640
  84.3236250  20.5335350  21.7269640  82.8689870  21.8147300  24.3139200
  82.0931970  21.3347740  24.6037770  83.5202800  21.1352950  24.1395360
  76.8855700  22.1267110  25.1914960  76.0540580  21.8715820  25.5911470
  77.4936680  22.1977880  25.9272880  86.8897300  26.2207490  23.0938330
  86.4278830  25.4494730  23.4225500  87.7022850  26.2473560  23.5990780
  76.8656960  26.1607200  25.3872980  77.1685000  25.2704940  25.2083200
  77.6100550  26.7177420  25.1595230  75.2947650  17.0869000  18.9757350
  74.4064350  17.4284970  18.8737230  75.5788840  16.8869320  18.0838180
  73.2580660  19.6874650  24.8597050  73.8296770  18.9196850  24.8600690
  73.2582200  19.9863410  23.9503660  83.1160610  28.5065500  22.7142320
  82.4972050  28.9623000  22.1436760  83.9712390  28.6616960  22.3132020
  82.3098860  24.4904490  24.3209360  82.2407140  23.5494430  24.1598490
  83.0718720  24.5805900  24.8931930  74.5005530  15.0959010  26.6465980
  74.3208370  14.1984760  26.9268740  74.0985610  15.6430880  27.3212930
  83.3404030  17.2974870  24.5478290  83.7168850  16.4246750  24.4351960
  83.2423540  17.6333570  23.6568730  77.4709040  15.6700500  20.0095730
  77.5775790  16.5704230  20.3164490  76.5601400  15.6218470  19.7190380
  87.1228150  14.7925310  21.4806630  87.9437770  14.3021880  21.5232110
  87.1562230  15.3822970  22.2338470  75.1192200  17.5919510  25.2548320
  75.8002310  17.8557880  25.8735720  74.8040250  16.7520380  25.5886330
  79.3116770  18.6386870  24.3420910  79.8194990  19.1367840  24.9825930
  79.8430010  17.8622070  24.1660270  91.4127700  16.8092060  28.0450260
  90.7079870  17.1973770  27.5265370  91.6785620  17.5042350  28.6471190
  77.5952870  13.2785430  28.6084330  77.5971310  13.7957820  27.8030230
  76.7657180  12.8015610  28.5854260  83.9823960  23.3904740  20.1074230
  83.3641230  23.8554190  19.5436950  84.4947210  24.0832220  20.5243740
  78.8455720  22.9180610  26.7857830  78.5125100  23.5449530  27.4278900
  79.0222400  23.4442490  26.0059500  87.3589630  16.7325690  24.2534170
  86.6545200  17.0210580  24.8337280  87.7201790  17.5425800  23.8933730
  77.2768200  14.9895390  26.6154780  77.6185010  15.8337440  26.3208650
  76.3384010  15.1379130  26.7320120  78.0574820  24.8861410  28.6007010
  78.6748820  25.5612490  28.3191460  77.1967940  25.2949390  28.5094510
  73.3507160  24.0761270  17.4813860  72.9735140  24.5648370  16.7498760
  73.6080230  24.7486550  18.1120390  88.9752410  26.3500820  26.5161650
  88.2915930  27.0199930  26.5078320  89.5146700  26.5481470  25.7506510
  90.4276550  16.1780480  24.6443380  89.4801460  16.2119460  24.7758810
  90.7526540  16.9919430  25.0292740  80.9596090  12.4777660  22.9399370
  81.2671070  11.9224550  22.2234870  80.0296790  12.6122120  22.7572360
  86.5111150  28.1944950  25.2306830  86.5238310  27.7907240  24.3629090
  85.9586370  28.9692240  25.1268260  87.8056570  24.9161170  20.3197000
  87.6952900  23.9735500  20.4446420  87.8024820  25.2776810  21.2059760
  85.9096590  23.0974790  26.5589440  86.3265380  22.8834900  25.7242900
  86.6336410  23.3547580  27.1298060  83.3476850  20.5426490  19.6759490
  82.4206130  20.4763870  19.9047960  83.5001670  21.4806620  19.5614730
  83.3345930  16.8143490  16.6726650  82.3949600  16.9757450  16.7579110
  83.6529190  17.5329170  16.1262640  89.8558690  21.4962010  26.6505680
  89.0277320  21.5655100  26.1755810  90.4509170  22.0816320  26.1821510
  87.3774140  22.1046790  20.1794740  86.7586560  21.7666340  19.5321040
  87.3598590  21.4606550  20.8873930  86.8200700  18.2831330  27.5960550
  86.4071880  19.1085040  27.8500540  86.0876650  17.6976370  27.4036910
  78.9533490  21.0691230  22.4579220  78.5490490  20.3568480  21.9625120
  79.0396610  20.7244470  23.3467260  79.4215190  24.7558790  24.6218430
  79.1243480  24.1504260  23.9426210  80.3715010  24.7936100  24.5107790
  77.6662110  17.8434440  26.2378260  78.2176700  17.9529780  25.4631510
  78.1805620  18.2172040  26.9533490  87.5100800  28.3290660  28.2841530
  87.0331360  29.1362850  28.0914140  86.8262590  27.6768990  28.4367740
  78.5133620  24.4940480  31.2726230  77.6162150  24.7180450  31.5199630
  78.5386490  24.6175420  30.3237630  85.5538840  21.3433600  17.1867490
  85.9932120  20.5056030  17.0405310  86.2667260  21.9763000  17.2731630
  77.3404840  21.3653800  29.8483600  77.2012610  22.2376600  30.2171000
  76.4586200  21.0226610  29.7031540  83.6634220  26.2829670  21.1548730
  84.1030130  27.0254000  20.7404120  83.6021110  26.5256240  22.0787690
  79.1385190  27.3075500  32.0568750  79.1100620  27.7118450  31.1897180
  78.9750160  26.3785860  31.8940350  89.1355980  12.5976410  15.5008530
  88.8228640  12.6903240  16.4007600  89.8968450  13.1757440  15.4505960
  75.6538120  19.9636210  19.9585870  75.5335720  20.6898300  19.3467140
  75.3439010  19.1939120  19.4813780  91.0900010  28.0902600  33.3532920
  91.5659730  28.5685490  34.0322000  91.7107170  28.0220090  32.6278420
  73.2923490  23.1351350  25.7654510  73.3703910  23.2700120  24.8210230
  73.9065170  22.4267240  25.9582630  74.5371120  24.8351540  22.1760690
  74.1299200  24.9766130  21.3214290  75.4284130  24.5511700  21.9731900
  90.4933260  25.2815450  30.5132930  90.6196320  25.0427330  29.5950110
  90.5354640  24.4499990  30.9855010  84.3550000  28.9843450  29.0827740
  84.8694670  28.8951460  29.8850170  83.5119080  29.3303150  29.3755650
  86.3304400  29.2698790  18.5111740  86.1705540  28.9801730  19.4093570
  86.1651110  28.4938920  17.9756970  78.8092780  29.0497320  20.2883360
  78.6335260  28.1332860  20.0751160  77.9548520  29.4084610  20.5281160
  86.0330530  26.7786350  17.0709740  85.3395690  26.7763640  16.4112020
  86.7753390  26.3545670  16.6403910  85.5980460  28.4049060  21.1458230
  86.0537410  27.6238440  21.4596850  85.9372980  29.1155880  21.6899410
  90.3457270  17.3347910  31.4782670  89.7301540  17.8427580  30.9498130
  90.0253690  16.4346240  31.4208610  73.3483010  24.1765520  28.3048970
  73.5114050  23.7070880  27.4868340  73.8135460  23.6689080  28.9697810
  78.1201780  13.3071280  23.3409540  77.6769930  14.0880820  23.0094060
  78.6786770  13.6301170  24.0480480  87.4076100  17.3948750  30.0741520
  86.5569690  17.0954500  30.3950590  87.2477890  17.6390760  29.1625340
  81.2360600  12.9281980  18.2215370  80.6114780  12.9241850  18.9468680
  81.1490720  12.0612940  17.8251340  80.1577680  13.8518610  25.1999140
  80.4550010  14.7581440  25.1191160  80.7063240  13.3637390  24.5858710
  77.9116000  18.4304850  21.0690790  77.6856920  18.2142020  21.9737410
  77.1308530  18.8633310  20.7236760  85.1413760  18.4368220  19.6681440
  84.5422650  19.1604020  19.4845060  85.6893370  18.3745000  18.8857890
  83.7478630  17.0731760  21.6984720  84.1408200  17.3903960  20.8853410
  84.1095480  16.1943640  21.8129240  75.4825750  15.7404100  29.8884840
  75.0889140  16.5879310  30.0957620  74.7944150  15.1030470  30.0793480
  82.0570800  15.8239070  32.9581580  81.3669120  15.6311270  33.5927670
  82.8003100  16.1073710  33.4905880  72.7842800  13.6632560  23.9214920
  72.4955850  14.2335420  24.6339900  73.5288560  13.1837010  24.2846150
  72.9713030  17.6052680  15.1317640  72.8887700  18.5483440  15.2732630
  72.6196090  17.4627590  14.2529990  84.3333770  19.6637510  25.7935500
  83.6014890  20.1724320  26.1425600  83.9358110  18.8467490  25.4924280
  80.7711160  16.3391710  24.1987990  80.7747220  15.8981660  23.3492530
  81.6662280  16.6609040  24.3059810  76.6213540  16.2218200  23.1582200
  76.2813590  16.6993430  23.9149250  75.8590860  15.7683320  22.7983300
  80.8331310  17.3403790  17.1894750  80.9544130  17.2990270  18.1380570
  80.4479820  18.2027940  17.0341480  84.7959680  15.1171190  25.2058440
  84.8132420  15.5679840  26.0500290  84.5475260  14.2176830  25.4191880
  79.8452810  19.6504930  16.5878050  79.2769710  19.2023180  15.9613960
  80.5541810  20.0097710  16.0543200  88.2230430  12.5303370  31.0444820
  88.5476200  11.7993030  31.5702800  88.2586940  12.2117010  30.1425810
  74.9221990  23.5516950  30.4644780  74.5376780  22.9110620  31.0627740
  75.2334180  24.2553070  31.0339510  81.0719130  20.3993490  25.9453400
  81.4389260  19.9252060  26.6914740  80.8824190  21.2735060  26.2861740
  73.9359620  15.1437180  22.0746870  73.6506540  14.7792850  22.9125490
  73.8738480  14.4117640  21.4610010  78.8618500  19.4402130  28.2637610
  78.5575570  20.3194110  28.4887970  79.8164960  19.5001920  28.2995050
  77.3900290  23.6463120  18.8604460  76.6162550  23.1060740  18.7003180
  78.1194920  23.1269730  18.5222220  88.1488270  22.6428480  24.6530850
  88.8687390  23.1383770  24.2626960  87.9470090  21.9646370  24.0084720
  83.6098210  14.0366440  18.7960240  82.7962820  13.5379610  18.7205550
  83.4160160  14.8764690  18.3796590  86.3246600  18.4086090  17.0922400
  87.2126220  18.7203320  16.9173740  86.2951690  17.5358340  16.7002980
  77.4337690  23.3143500  22.4983270  77.9516360  22.5111760  22.4440160
  76.9821710  23.2522640  23.3400100  82.3207190  24.5809780  17.7710570
  82.6622890  25.3252010  17.2753890  81.4919900  24.8940900  18.1335400
  74.9182230  20.2804870  29.4108970  74.5597170  20.9458720  29.9982310
  74.6236790  19.4488420  29.7821590  78.1195350  20.7389110  32.2948520
  77.8195490  20.8846290  31.3976340  78.8906590  20.1794400  32.2021910
  83.4623800  25.5358110  30.2903650  83.4768340  24.6039070  30.0722560
  82.7548900  25.6217870  30.9293420  88.5960870  19.7197930  16.5602260
  88.5124590  20.1512150  15.7098700  89.3155060  20.1796280  16.9929080
  89.6735010  22.1765450  29.6372230  88.9483200  22.7694230  29.4401620
  90.2010470  22.1688990  28.8385600  89.6248120  26.5740190  19.2884390
  88.9824280  25.9195810  19.5628110  89.2378780  26.9795280  18.5125060
  85.2034600  23.9025620  23.1356080  85.5558420  23.3053750  22.4757450
  84.3196930  23.5769850  23.3064330  81.2897880  24.6623310  20.5426490
  81.9769010  25.2092520  20.9234080  80.5030300  25.2064040  20.5776100
  73.4290280  20.2796130  16.0343570  74.2985130  20.5620930  16.3179490
  72.9380600  21.0932000  15.9192380  80.5925090  21.6669340  20.1551850
  81.0487870  22.4774590  20.3812040  80.2413300  21.3492480  20.9870340
  82.8957700  27.1775680  27.3844150  83.5399920  27.3835060  28.0617570
  83.2587140  26.4164080  26.9315000  76.4936870  12.0106990  20.6274370
  76.3651500  12.0024890  21.5759290  75.6698890  12.3490080  20.2765380
  84.1689780  25.1808030  26.1021600  84.8112010  24.4801190  26.2153770
  84.6939130  25.9606470  25.9218490  88.0145500  25.4656650  15.8260740
  87.7883080  24.7487090  16.4185380  87.6241700  25.2169090  14.9882490
  85.9427400  25.9802930  29.3057660  86.2783640  26.5669620  29.9835580
  85.0227740  25.8495640  29.5355450  73.7961530  29.4923510  16.6005200
  74.1559170  30.0912850  15.9462470  73.6553870  30.0383400  17.3740230
  73.4930800  13.7698110  30.0881070  72.7789320  13.9695030  30.6933680
  73.9125840  12.9937680  30.4595870  87.5961750  23.3828590  17.4874900
  87.3083450  23.8441280  18.2752780  88.3913920  22.9226360  17.7559120
  73.7803390  27.7578370  31.0747600  73.8894510  26.8173110  30.9342990
  73.1283950  28.0233120  30.4261330  81.7715980  26.0294260  32.4745720
  81.4512850  25.3103500  33.0191410  81.0974340  26.7049330  32.5481780
  79.8130150  26.8754710  17.4178870  79.8040250  27.6084400  16.8023380
  78.8928510  26.6286290  17.5105830  75.4136790  22.0969600  18.1625630
  74.8064740  22.8368500  18.1720930  75.8886140  22.1868960  17.3363830
  84.9869580  16.2620420  27.8382520  85.3550400  15.4415630  28.1662090
  84.1267780  16.3222310  28.2538170  88.3531610  15.2177360  18.6470080
  87.7244770  15.3223030  17.9328310  87.8583530  15.4374140  19.4363960
  82.7989750  26.9382950  16.0804060  82.9001730  26.7346940  15.1506040
  81.8991490  26.6841230  16.2851840  80.3215640  17.4963310  20.0627960
  79.6131790  17.9649650  20.5041570  80.6060120  16.8385320  20.6973150
  84.3531070  14.2213970  21.5023750  84.2298850  14.2400100  20.5533260
  85.3015630  14.2692910  21.6222150  81.4407860  29.4569270  20.7751730
  81.6949360  29.4190660  19.8531100  80.4920340  29.3302600  20.7679980
  78.5250660  15.8048390  17.4378670  79.3741190  16.2418540  17.3718860
  78.1581930  16.1168650  18.2650730  89.1538430  15.1327970  28.9048880
  88.6512030  15.8733370  29.2442690  89.9695090  15.5211970  28.5885670
  87.4460440  20.3761150  22.3510240  86.5050580  20.3911380  22.5257930
  87.7604510  19.5897110  22.7970540  77.4242080  22.0580750  15.9114200
  78.1905350  21.9462110  16.4739630  77.5016770  21.3618720  15.2590970
  76.1188840  19.4905820  16.5947090  76.1992430  18.5433330  16.7064490
  77.0108590  19.8212700  16.7007750  89.4486020  27.5470000  24.0264500
  89.5733440  28.3701170  24.4988310  90.3151580  27.3360730  23.6788650
  76.9203550  29.6401210  23.6981630  77.6566030  29.0916670  23.9690200
  77.3044470  30.5057220  23.5587620  73.8049030  25.7074780  19.5723140
  72.8788810  25.9495920  19.5628550  74.2705460  26.5349040  19.4507890
  75.9261830  28.8247280  32.8867210  76.7274560  29.1459330  33.3002610
  75.4113650  28.4642860  33.6087120  80.0305860  28.8131520  15.5207200
  80.8234470  29.1020350  15.0688990  79.5110210  28.3823690  14.8419680
  84.7626460  24.9327150  32.8342620  84.1564620  24.9558750  32.0938370
  84.4580570  24.2010190  33.3709870  86.1926830  28.6607440  31.4452030
  87.1448580  28.5765460  31.3952270  86.0455050  29.3249150  32.1185820
  89.0836030  28.0401650  16.9443940  88.7977540  27.6266790  16.1298120
  88.8855580  28.9689360  16.8244460  73.6459640  21.3120740  31.8303260
  74.1498660  20.7328020  32.4019490  72.9067060  21.5960970  32.3679630
  80.5483260  24.0334930  15.3849550  80.4433900  23.4187280  16.1110930
  80.3807480  23.5100820  14.6012560  83.7885990  23.0954960  15.9891540
  83.2396090  23.5424260  16.6334280  84.4105250  22.5904210  16.5129210
  87.8420930  24.4497060  31.9213800  88.5830400  24.7872820  31.4181260
  87.0793610  24.6189120  31.3683570  75.6782720  19.4550330  32.7253330
  75.7188060  19.1564200  33.6338560  76.5328220  19.8557940  32.5660850
  79.4561110  22.0545880  17.8856840  79.8777530  21.8885750  18.7288230
  79.5811950  21.2446110  17.3911980  77.6188530  18.0342430  30.6927820
  77.0884990  17.5433380  30.0651160  78.2876600  18.4626630  30.1585750
  81.9688750  21.0783490  15.1333940  82.4894410  20.3632510  14.7675090
  82.6157150  21.7169360  15.4334450  78.1060830  15.0004800  30.7725110
  78.0117700  14.3825550  30.0475980  77.5258220  15.7271090  30.5455020
  80.8722270  13.5578040  27.8052500  80.4239570  13.5802300  26.9598050
  80.2387470  13.1597060  28.4022800  78.3520010  18.1279110  14.8315000
  78.1509070  17.2646470  15.1928340  78.1812060  18.0412470  13.8936600
  79.1289240  28.7585380  29.5422670  78.5910330  29.4831440  29.2231370
  79.3823200  28.2815720  28.7520010  80.3814490  16.7269900  31.0678600
  80.9714180  16.4185750  31.7556420  79.5634730  16.2549650  31.2238500
  85.8308320  12.9387340  17.3601880  86.1110610  12.0955240  17.7161300
  85.0574050  13.1710450  17.8740630  77.1502810  15.2279730  14.8192880
  77.4528710  15.2347160  13.9112030  77.8897400  14.8777590  15.3160540
  81.9851450  29.9936590  29.8009320  81.9110150  30.8971730  30.1081690
  81.0830290  29.6748490  29.7731390  80.3687740  14.1714350  15.8049080
  80.0209740  13.4938340  15.2251530  80.5700510  13.7103860  16.6192470
  82.5336780  29.1595100  17.4235680  83.4287570  29.4980070  17.4454440
  82.5654410  28.4374510  16.7959960  76.1732940  24.5322150  15.6522680
  76.6107810  25.0751820  16.3080260  76.6580670  23.7069100  15.6619020
  73.3878740  27.3211180  23.1042940  73.7181750  26.4532240  22.8721580
  73.8169740  27.5269700  23.9347900  77.9840660  25.6520190  20.7644910
  77.6836200  25.5285160  21.6648820  77.8778150  24.7928780  20.3560640
  73.8768950  28.1881770  25.8424570  73.4399940  28.3682570  26.6748720
  74.4446630  28.9456390  25.7006290  89.5131130  27.6898770  30.1301880
  88.9133120  27.7491330  29.3865800  89.6425030  26.7503750  30.2598730
  90.7532580  25.4316590  15.4671590  89.9225540  25.4993240  15.9378820
  90.9304410  26.3220710  15.1638450  90.2089040  22.1764070  17.9705790
  90.9707950  22.7460720  18.0765480  90.2243410  21.6091270  18.7414100
  73.7093380  20.7002000  22.2013450  73.0542220  20.4313640  21.5573150
  74.5471330  20.5906480  21.7515430  91.2149010  23.0314170  22.8147720
  91.5857840  22.2481490  22.4083690  91.8550940  23.7203270  22.6365020
  88.1982770  24.4150750  28.2278040  87.3842610  24.8447910  28.4903830
  88.6056970  25.0269160  27.6147090  90.2608210  22.4698440  15.1278310
  90.5357050  23.3777320  14.9997530  90.0718950  22.4060970  16.0640300
  86.6583820  15.4943290  16.4231940  87.0768700  15.3074270  15.5828600
  86.3519880  14.6422340  16.7334870  90.1573550  20.4067430  20.1207740
  89.7817150  19.6395360  19.6889030  89.4276670  20.7890130  20.6082670
  74.7469310  21.0854570  26.7416790  75.1142350  20.9981970  27.6212810
  74.1780130  20.3221120  26.6423650  89.5473170  19.5538950  29.7547260
  89.3159260  19.3251700  28.8545210  89.8077720  20.4738500  29.7092150
  74.2985310  17.9963660  30.6475210  73.4041360  17.9630420  30.9868920
  74.8382860  18.1950450  31.4126460  87.9861240  14.7795380  32.5326960
  88.8631420  14.7878780  32.9160960  87.9982080  14.0426220  31.9219310
  72.9231460  17.9100930  18.1438780  72.0195540  18.1731130  17.9690440
  73.4072080  18.1812100  17.3638740  89.4324510  18.6324920  23.4214980
  89.9561990  18.1387570  22.7905150  90.0183930  18.7675280  24.1662550
  89.6114230  18.7164790  26.9434530  88.6616940  18.6828330  27.0579520
  89.7927240  19.6264900  26.7084300  75.4658670  16.9666470  16.0533160
  76.1750370  16.5449690  15.5680440  74.7498610  17.0341700  15.4216510
  75.1132830  13.0205800  15.0935810  75.8360960  13.5614740  15.4117030
  75.3857350  12.7469220  14.2177350  88.9224480  17.8898270  19.3607390
  89.4183600  17.6569140  20.1456270  88.7240550  17.0510110  18.9445030
  74.8025020  12.2711990  24.9958430  75.4501210  11.7209370  24.5553590
  75.2226860  12.5255140  25.8174240  90.3511640  16.5259220  21.8945070
  90.2410920  16.3715260  22.8327340  91.1119230  15.9980160  21.6520480
  88.6977360  12.4653350  28.3528070  89.3349580  13.0787490  28.7187260
  88.8452250  12.5014010  27.4077300  91.2401910  14.3567140  15.1351210
  92.1651220  14.2248320  14.9269500  91.2177700  14.4359960  16.0887660
  91.3140400  15.1277800  17.7607920  90.5191900  15.0622920  18.2900830
  91.5183680  16.0628440  17.7493270  88.2558820  29.1669350  21.7546310
  88.8517890  28.8453920  21.0780730  88.5136970  28.6941170  22.5459580
  74.5557020  12.4267660  27.7383750  74.2071840  12.8831480  28.5041930
  74.2244720  11.5324790  27.8206180  76.1621390  25.5987260  31.9036940
  76.1191020  25.2280170  32.7851400  76.2932400  26.5364830  32.0438760
  79.8627420  27.1546850  27.5046660  79.6218780  27.4221410  26.6177180
  80.8030060  27.3252580  27.5597520  82.0681840  13.6179540  31.2603170
  82.0070730  14.2101370  32.0098580  83.0082220  13.5105500  31.1153430
  84.7056400  13.2749600  30.8995460  85.3196810  13.5928890  30.2376540
  85.2505960  12.7898190  31.5191320  91.1231580  29.1741230  28.3057300
  90.6289860  29.5710100  27.5884430  90.5144870  28.5490440  28.6994580
  75.2277660  11.9543860  31.0134520  75.7760650  11.7731910  30.2500630
  75.2932970  11.1637970  31.5490830  76.0009420  28.5449510  29.0234720
  75.4069740  28.4134210  29.7624760  75.9933260  27.7087650  28.5576820
  85.4464440  11.8381740  27.2264750  84.5724280  12.1716850  27.0237680
  85.3375190  11.3654920  28.0516620  86.3536420  14.0452610  28.6106470
  86.0249780  13.2304370  28.2308200  87.3018720  14.0022420  28.4872160
  88.8071030  29.8164650  25.5844040  88.3474000  30.5680460  25.2102060
  88.1783490  29.0971120  25.5258840  75.6321650  25.9107890  27.9742760
  74.9055710  25.2913180  27.9068710  75.6930800  26.3048500  27.1040840
  79.2366750  28.1252890  24.7592170  79.7531770  27.5140250  24.2340430
  79.8864130  28.6281670  25.2503180  81.9762250  29.0161380  25.5861150
  82.2640060  28.7615680  24.7094160  82.4885470  28.4638740  26.1766720
  83.1939260  12.7551580  26.1657660  82.4111050  13.2297080  26.4454420
  82.9002190  11.8506410  26.0570840  87.7460330  13.4574680  24.2106750
  88.1868420  13.4019780  23.3628350  87.4767920  14.3732690  24.2816930
  89.6098900  13.0889920  22.2215570  89.5487300  12.1451140  22.0746590
  90.3890930  13.1970010  22.7669030  73.9151650  29.2282280  21.1839520
  73.7473690  28.5952960  21.8821410  73.0486160  29.4341680  20.8333710
  74.5379670  13.0599060  18.6871380  75.2959030  13.1727940  18.1135410
  74.0756840  13.8968260  18.6414810  81.0793480  15.1738330  21.6773690
  80.2667990  14.7995220  21.3369570  81.5835120  14.4183410  21.9794880
  85.5818460  11.8380780  22.9156760  86.1847830  12.4100990  23.3905280
  84.8411450  12.4020220  22.6930660  88.7253060  12.2402340  18.1897040
  88.9203690  13.1385790  18.4564470  87.9382930  12.0089420  18.6829990
  75.5214350  27.9215510  18.6289660  74.9961970  28.3023540  17.9251620
  75.4458930  28.5466280  19.3499370  76.9104820  13.5863110  17.2273350
  77.4397580  12.7992910  17.0981300  77.5433140  14.2654300  17.4608880
  79.1042660  13.3238250  20.2818740  78.4745400  12.6225560  20.4488870
  78.5647800  14.0842380  20.0651900  82.0434610  29.9377480  32.9529350
  82.9701920  29.7021750  32.9965310  82.0285040  30.7649480  32.4715380
  90.2779670  29.4803050  19.9503600  90.4531860  28.7940790  19.3064520
  89.5801240  30.0050100  19.5580270  79.2298220  12.6022230  32.7171230
  78.9482490  13.1055830  31.9532050  79.6117920  11.8043980  32.3513360
  78.1207320  29.8697890  17.5038910  78.8526140  29.5857170  16.9562800
  78.3800990  29.6311170  18.3938290  77.2822110  25.9862620  17.5085240
  76.6530990  26.4547720  18.0571070  77.3969940  25.1411840  17.9431430
  85.8313680  12.0175810  33.2951700  85.7179130  12.3370420  34.1903220
  86.6483420  12.4188320  32.9988980  88.6112170  29.1647340  32.7770390
  89.4037490  28.6696570  32.5696350  88.9045320  29.8437480  33.3846000
  84.7371830  20.0368280   3.6586440  84.6565880  19.1222890   3.3878150
  84.3236250  20.5335350   2.9526150  82.8689870  21.8147300   5.5395710
  82.0931970  21.3347740   5.8294280  83.5202800  21.1352950   5.3651870
  76.8855700  22.1267110   6.4171470  76.0540580  21.8715820   6.8167980
  77.4936680  22.1977880   7.1529390  86.8897300  26.2207490   4.3194840
  86.4278830  25.4494730   4.6482010  87.7022850  26.2473560   4.8247290
  76.8656960  26.1607200   6.6129490  77.1685000  25.2704940   6.4339710
  77.6100550  26.7177420   6.3851740  73.2580660  19.6874650   6.0853560
  73.8296770  18.9196850   6.0857200  73.2582200  19.9863410   5.1760170
  83.1160610  28.5065500   3.9398830  82.4972050  28.9623000   3.3693270
  83.9712390  28.6616960   3.5388530  82.3098860  24.4904490   5.5465870
  82.2407140  23.5494430   5.3855000  83.0718720  24.5805900   6.1188440
  74.5005530  15.0959010   7.8722490  74.3208370  14.1984760   8.1525250
  74.0985610  15.6430880   8.5469440  83.3404030  17.2974870   5.7734800
  83.7168850  16.4246750   5.6608470  83.2423540  17.6333570   4.8825240
  87.1228150  14.7925310   2.7063140  87.9437770  14.3021880   2.7488620
  87.1562230  15.3822970   3.4594980  75.1192200  17.5919510   6.4804830
  75.8002310  17.8557880   7.0992230  74.8040250  16.7520380   6.8142840
  79.3116770  18.6386870   5.5677420  79.8194990  19.1367840   6.2082440
  79.8430010  17.8622070   5.3916780  91.4127700  16.8092060   9.2706770
  90.7079870  17.1973770   8.7521880  91.6785620  17.5042350   9.8727700
  77.5952870  13.2785430   9.8340840  77.5971310  13.7957820   9.0286740
  76.7657180  12.8015610   9.8110770  78.8455720  22.9180610   8.0114340
  78.5125100  23.5449530   8.6535410  79.0222400  23.4442490   7.2316010
  87.3589630  16.7325690   5.4790680  86.6545200  17.0210580   6.0593790
  87.7201790  17.5425800   5.1190240  77.2768200  14.9895390   7.8411290
  77.6185010  15.8337440   7.5465160  76.3384010  15.1379130   7.9576630
  78.0574820  24.8861410   9.8263520  78.6748820  25.5612490   9.5447970
  77.1967940  25.2949390   9.7351020  88.9752410  26.3500820   7.7418160
  88.2915930  27.0199930   7.7334830  89.5146700  26.5481470   6.9763020
  90.4276550  16.1780480   5.8699890  89.4801460  16.2119460   6.0015320
  90.7526540  16.9919430   6.2549250  80.9596090  12.4777660   4.1655880
  81.2671070  11.9224550   3.4491380  80.0296790  12.6122120   3.9828870
  86.5111150  28.1944950   6.4563340  86.5238310  27.7907240   5.5885600
  85.9586370  28.9692240   6.3524770  85.9096590  23.0974790   7.7845950
  86.3265380  22.8834900   6.9499410  86.6336410  23.3547580   8.3554570
  89.8558690  21.4962010   7.8762190  89.0277320  21.5655100   7.4012320
  90.4509170  22.0816320   7.4078020  86.8200700  18.2831330   8.8217060
  86.4071880  19.1085040   9.0757050  86.0876650  17.6976370   8.6293420
  78.9533490  21.0691230   3.6835730  78.5490490  20.3568480   3.1881630
  79.0396610  20.7244470   4.5723770  79.4215190  24.7558790   5.8474940
  79.1243480  24.1504260   5.1682720  80.3715010  24.7936100   5.7364300
  77.6662110  17.8434440   7.4634770  78.2176700  17.9529780   6.6888020
  78.1805620  18.2172040   8.1790000  87.5100800  28.3290660   9.5098040
  87.0331360  29.1362850   9.3170650  86.8262590  27.6768990   9.6624250
  78.5133620  24.4940480  12.4982740  77.6162150  24.7180450  12.7456140
  78.5386490  24.6175420  11.5494140  77.3404840  21.3653800  11.0740110
  77.2012610  22.2376600  11.4427510  76.4586200  21.0226610  10.9288050
  83.6634220  26.2829670   2.3805240  84.1030130  27.0254000   1.9660630
  83.6021110  26.5256240   3.3044200  79.1385190  27.3075500  13.2825260
  79.1100620  27.7118450  12.4153690  78.9750160  26.3785860  13.1196860
  91.0900010  28.0902600  14.5789430  91.5659730  28.5685490  15.2578510
  91.7107170  28.0220090  13.8534930  73.2923490  23.1351350   6.9911020
  73.3703910  23.2700120   6.0466740  73.9065170  22.4267240   7.1839140
  74.5371120  24.8351540   3.4017200  74.1299200  24.9766130   2.5470800
  75.4284130  24.5511700   3.1988410  90.4933260  25.2815450  11.7389440
  90.6196320  25.0427330  10.8206620  90.5354640  24.4499990  12.2111520
  84.3550000  28.9843450  10.3084250  84.8694670  28.8951460  11.1106680
  83.5119080  29.3303150  10.6012160  85.5980460  28.4049060   2.3714740
  86.0537410  27.6238440   2.6853360  85.9372980  29.1155880   2.9155920
  90.3457270  17.3347910  12.7039180  89.7301540  17.8427580  12.1754640
  90.0253690  16.4346240  12.6465120  73.3483010  24.1765520   9.5305480
  73.5114050  23.7070880   8.7124850  73.8135460  23.6689080  10.1954320
  78.1201780  13.3071280   4.5666050  77.6769930  14.0880820   4.2350570
  78.6786770  13.6301170   5.2736990  82.4071590  16.1739800  10.1701370
  81.9450960  16.3822820  10.9821310  82.0049700  15.3599150   9.8672040
  87.4076100  17.3948750  11.2998030  86.5569690  17.0954500  11.6207100
  87.2477890  17.6390760  10.3881850  84.5025810  18.8950500  13.3996820
  84.8279220  18.0614250  13.0599050  85.2906140  19.4179020  13.5475150
  80.1577680  13.8518610   6.4255650  80.4550010  14.7581440   6.3447670
  80.7063240  13.3637390   5.8115220  77.9116000  18.4304850   2.2947300
  77.6856920  18.2142020   3.1993920  77.1308530  18.8633310   1.9493270
  80.3515210  19.3290430  12.9607570  80.2558810  18.3885160  12.8107970
  81.1947190  19.5505500  12.5655640  83.7478630  17.0731760   2.9241230
  84.1408200  17.3903960   2.1109920  84.1095480  16.1943640   3.0385750
  75.4825750  15.7404100  11.1141350  75.0889140  16.5879310  11.3214130
  74.7944150  15.1030470  11.3049990  82.0570800  15.8239070  14.1838090
  81.3669120  15.6311270  14.8184180  82.8003100  16.1073710  14.7162390
  72.7842800  13.6632560   5.1471430  72.4955850  14.2335420   5.8596410
  73.5288560  13.1837010   5.5102660  84.3333770  19.6637510   7.0192010
  83.6014890  20.1724320   7.3682110  83.9358110  18.8467490   6.7180790
  80.7711160  16.3391710   5.4244500  80.7747220  15.8981660   4.5749040
  81.6662280  16.6609040   5.5316320  76.6213540  16.2218200   4.3838710
  76.2813590  16.6993430   5.1405760  75.8590860  15.7683320   4.0239810
  84.7959680  15.1171190   6.4314950  84.8132420  15.5679840   7.2756800
  84.5475260  14.2176830   6.6448390  88.2230430  12.5303370  12.2701330
  88.5476200  11.7993030  12.7959310  88.2586940  12.2117010  11.3682320
  74.9221990  23.5516950  11.6901290  74.5376780  22.9110620  12.2884250
  75.2334180  24.2553070  12.2596020  81.0719130  20.3993490   7.1709910
  81.4389260  19.9252060   7.9171250  80.8824190  21.2735060   7.5118250
  73.9359620  15.1437180   3.3003380  73.6506540  14.7792850   4.1382000
  73.8738480  14.4117640   2.6866520  78.8618500  19.4402130   9.4894120
  78.5575570  20.3194110   9.7144480  79.8164960  19.5001920   9.5251560
  88.1488270  22.6428480   5.8787360  88.8687390  23.1383770   5.4883470
  87.9470090  21.9646370   5.2341230  83.5307070  22.7137540  11.7656360
  83.4644380  21.7933210  11.5113950  82.9012210  22.8112980  12.4801000
  77.4337690  23.3143500   3.7239780  77.9516360  22.5111760   3.6696670
  76.9821710  23.2522640   4.5656610  74.9182230  20.2804870  10.6365480
  74.5597170  20.9458720  11.2238820  74.6236790  19.4488420  11.0078100
  78.1195350  20.7389110  13.5205030  77.8195490  20.8846290  12.6232850
  78.8906590  20.1794400  13.4278420  83.4623800  25.5358110  11.5160160
  83.4768340  24.6039070  11.2979070  82.7548900  25.6217870  12.1549930
  89.6735010  22.1765450  10.8628740  88.9483200  22.7694230  10.6658130
  90.2010470  22.1688990  10.0642110  85.2034600  23.9025620   4.3612590
  85.5558420  23.3053750   3.7013960  84.3196930  23.5769850   4.5320840
  81.2897880  24.6623310   1.7683000  81.9769010  25.2092520   2.1490590
  80.5030300  25.2064040   1.8032610  82.8957700  27.1775680   8.6100660
  83.5399920  27.3835060   9.2874080  83.2587140  26.4164080   8.1571510
  84.1689780  25.1808030   7.3278110  84.8112010  24.4801190   7.4410280
  84.6939130  25.9606470   7.1475000  85.9427400  25.9802930  10.5314170
  86.2783640  26.5669620  11.2092090  85.0227740  25.8495640  10.7611960
  73.4930800  13.7698110  11.3137580  72.7789320  13.9695030  11.9190190
  73.9125840  12.9937680  11.6852380  73.7803390  27.7578370  12.3004110
  73.8894510  26.8173110  12.1599500  73.1283950  28.0233120  11.6517840
  81.7715980  26.0294260  13.7002230  81.4512850  25.3103500  14.2447920
  81.0974340  26.7049330  13.7738290  84.9869580  16.2620420   9.0639030
  85.3550400  15.4415630   9.3918600  84.1267780  16.3222310   9.4794680
  81.9471570  18.9160010   9.2877000  82.4456820  19.3905830   9.9528850
  82.0894520  17.9923530   9.4947030  84.3531070  14.2213970   2.7280260
  84.2298850  14.2400100   1.7789770  85.3015630  14.2692910   2.8478660
  89.1538430  15.1327970  10.1305390  88.6512030  15.8733370  10.4699200
  89.9695090  15.5211970   9.8142180  87.4460440  20.3761150   3.5766750
  86.5050580  20.3911380   3.7514440  87.7604510  19.5897110   4.0227050
  89.4486020  27.5470000   5.2521010  89.5733440  28.3701170   5.7244820
  90.3151580  27.3360730   4.9045160  76.9203550  29.6401210   4.9238140
  77.6566030  29.0916670   5.1946710  77.3044470  30.5057220   4.7844130
  75.9261830  28.8247280  14.1123720  76.7274560  29.1459330  14.5259120
  75.4113650  28.4642860  14.8343630  84.7626460  24.9327150  14.0599130
  84.1564620  24.9558750  13.3194880  84.4580570  24.2010190  14.5966380
  86.1926830  28.6607440  12.6708540  87.1448580  28.5765460  12.6208780
  86.0455050  29.3249150  13.3442330  73.6459640  21.3120740  13.0559770
  74.1498660  20.7328020  13.6276000  72.9067060  21.5960970  13.5936140
  80.6997580  22.7191730  12.5895290  79.9343250  23.2876730  12.5049960
  80.8813540  22.4267940  11.6963520  87.8420930  24.4497060  13.1470310
  88.5830400  24.7872820  12.6437770  87.0793610  24.6189120  12.5940080
  75.6782720  19.4550330  13.9509840  75.7188060  19.1564200  14.8595070
  76.5328220  19.8557940  13.7917360  77.6188530  18.0342430  11.9184330
  77.0884990  17.5433380  11.2907670  78.2876600  18.4626630  11.3842260
  86.5166590  22.5011890  11.6825520  86.9307610  22.6556970  12.5315940
  85.5817590  22.6267110  11.8451300  86.9888760  19.8408050  13.6864670
  87.5709530  19.0860370  13.5985150  87.1650530  20.3715490  12.9096150
  78.1060830  15.0004800  11.9981620  78.0117700  14.3825550  11.2732490
  77.5258220  15.7271090  11.7711530  80.8722270  13.5578040   9.0309010
  80.4239570  13.5802300   8.1854560  80.2387470  13.1597060   9.6279310
  81.2781820  22.4532370   9.6521450  81.6969930  23.2965100   9.4797690
  80.3590450  22.5904410   9.4228230  83.6145720  20.1848550  11.0359290
  83.7341930  19.5889690  11.7754130  84.4739720  20.2218240  10.6160590
  85.9533620  20.7385740   9.6121800  85.4268840  21.2628360   9.0086940
  86.2964960  21.3713130  10.2431530  79.1289240  28.7585380  10.7679180
  78.5910330  29.4831440  10.4487880  79.3823200  28.2815720   9.9776520
  80.3814490  16.7269900  12.2935110  80.9714180  16.4185750  12.9812930
  79.5634730  16.2549650  12.4495010  85.2007920  16.3435710  12.5268130
  84.5123440  15.6817250  12.4618120  85.9213940  15.8973980  12.9716590
  81.9851450  29.9936590  11.0265830  81.9110150  30.8971730  11.3338200
  81.0830290  29.6748490  10.9987900  73.3878740  27.3211180   4.3299450
  73.7181750  26.4532240   4.0978090  73.8169740  27.5269700   5.1604410
  73.8768950  28.1881770   7.0681080  73.4399940  28.3682570   7.9005230
  74.4446630  28.9456390   6.9262800  89.5131130  27.6898770  11.3558390
  88.9133120  27.7491330  10.6122310  89.6425030  26.7503750  11.4855240
  73.7093380  20.7002000   3.4269960  73.0542220  20.4313640   2.7829660
  74.5471330  20.5906480   2.9771940  91.2149010  23.0314170   4.0404230
  91.5857840  22.2481490   3.6340200  91.8550940  23.7203270   3.8621530
  88.1982770  24.4150750   9.4534550  87.3842610  24.8447910   9.7160340
  88.6056970  25.0269160   8.8403600  74.7469310  21.0854570   7.9673300
  75.1142350  20.9981970   8.8469320  74.1780130  20.3221120   7.8680160
  89.5473170  19.5538950  10.9803770  89.3159260  19.3251700  10.0801720
  89.8077720  20.4738500  10.9348660  74.2985310  17.9963660  11.8731720
  73.4041360  17.9630420  12.2125430  74.8382860  18.1950450  12.6382970
  87.9861240  14.7795380  13.7583470  88.8631420  14.7878780  14.1417470
  87.9982080  14.0426220  13.1475820  89.4324510  18.6324920   4.6471490
  89.9561990  18.1387570   4.0161660  90.0183930  18.7675280   5.3919060
  89.6114230  18.7164790   8.1691040  88.6616940  18.6828330   8.2836030
  89.7927240  19.6264900   7.9340810  74.8025020  12.2711990   6.2214940
  75.4501210  11.7209370   5.7810100  75.2226860  12.5255140   7.0430750
  90.3511640  16.5259220   3.1201580  90.2410920  16.3715260   4.0583850
  91.1119230  15.9980160   2.8776990  88.6977360  12.4653350   9.5784580
  89.3349580  13.0787490   9.9443770  88.8452250  12.5014010   8.6333810
  88.2558820  29.1669350   2.9802820  88.8517890  28.8453920   2.3037240
  88.5136970  28.6941170   3.7716090  74.5557020  12.4267660   8.9640260
  74.2071840  12.8831480   9.7298440  74.2244720  11.5324790   9.0462690
  76.1621390  25.5987260  13.1293450  76.1191020  25.2280170  14.0107910
  76.2932400  26.5364830  13.2695270  79.8627420  27.1546850   8.7303170
  79.6218780  27.4221410   7.8433690  80.8030060  27.3252580   8.7854030
  82.0681840  13.6179540  12.4859680  82.0070730  14.2101370  13.2355090
  83.0082220  13.5105500  12.3409940  84.7056400  13.2749600  12.1251970
  85.3196810  13.5928890  11.4633050  85.2505960  12.7898190  12.7447830
  91.1231580  29.1741230   9.5313810  90.6289860  29.5710100   8.8140940
  90.5144870  28.5490440   9.9251090  75.2277660  11.9543860  12.2391030
  75.7760650  11.7731910  11.4757140  75.2932970  11.1637970  12.7747340
  76.0009420  28.5449510  10.2491230  75.4069740  28.4134210  10.9881270
  75.9933260  27.7087650   9.7833330  85.4464440  11.8381740   8.4521260
  84.5724280  12.1716850   8.2494190  85.3375190  11.3654920   9.2773130
  86.3536420  14.0452610   9.8362980  86.0249780  13.2304370   9.4564710
  87.3018720  14.0022420   9.7128670  88.8071030  29.8164650   6.8100550
  88.3474000  30.5680460   6.4358570  88.1783490  29.0971120   6.7515350
  75.6321650  25.9107890   9.1999270  74.9055710  25.2913180   9.1325220
  75.6930800  26.3048500   8.3297350  79.2366750  28.1252890   5.9848680
  79.7531770  27.5140250   5.4596940  79.8864130  28.6281670   6.4759690
  81.9762250  29.0161380   6.8117660  82.2640060  28.7615680   5.9350670
  82.4885470  28.4638740   7.4023230  83.1939260  12.7551580   7.3914170
  82.4111050  13.2297080   7.6710930  82.9002190  11.8506410   7.2827350
  87.7460330  13.4574680   5.4363260  88.1868420  13.4019780   4.5884860
  87.4767920  14.3732690   5.5073440  89.6098900  13.0889920   3.4472080
  89.5487300  12.1451140   3.3003100  90.3890930  13.1970010   3.9925540
  73.9151650  29.2282280   2.4096030  73.7473690  28.5952960   3.1077920
  73.0486160  29.4341680   2.0590220  81.0793480  15.1738330   2.9030200
  80.2667990  14.7995220   2.5626080  81.5835120  14.4183410   3.2051390
  85.5818460  11.8380780   4.1413270  86.1847830  12.4100990   4.6161790
  84.8411450  12.4020220   3.9187170  82.0434610  29.9377480  14.1785860
  82.9701920  29.7021750  14.2221820  82.0285040  30.7649480  13.6971890
  79.2298220  12.6022230  13.9427740  78.9482490  13.1055830  13.1788560
  79.6117920  11.8043980  13.5769870  85.8313680  12.0175810  14.5208210
  85.7179130  12.3370420  15.4159730  86.6483420  12.4188320  14.2245490
  88.6112170  29.1647340  14.0026900  89.4037490  28.6696570  13.7952860
  88.9045320  29.8437480  14.6102510  82.8689870   3.0403810  99.4113160
  82.0931970   2.5604250  99.7011730  83.5202800   2.3609460  99.2369320
  76.8855700   3.3523620 100.2888920  76.0540580   3.0972330 100.6885430
  77.4936680   3.4234390 101.0246840  86.8897300   7.4464000  98.1912290
  86.4278830   6.6751240  98.5199460  87.7022850   7.4730070  98.6964740
  76.8656960   7.3863710 100.4846940  77.1685000   6.4961450 100.3057160
  77.6100550   7.9433930 100.2569190  83.1160610   9.7322010  97.8116280
  82.4972050  10.1879510  97.2410720  83.9712390   9.8873470  97.4105980
  82.3098860   5.7161000  99.4183320  82.2407140   4.7750940  99.2572450
  83.0718720   5.8062410  99.9905890  83.9823960   4.6161250  95.2048190
  83.3641230   5.0810700  94.6410910  84.4947210   5.3088730  95.6217700
  78.8455720   4.1437120 101.8831790  78.5125100   4.7706040 102.5252860
  79.0222400   4.6699000 101.1033460  73.3507160   5.3017780  92.5787820
  72.9735140   5.7904880  91.8472720  73.6080230   5.9743060  93.2094350
  88.9752410   7.5757330 101.6135610  88.2915930   8.2456440 101.6052280
  89.5146700   7.7737980 100.8480470  86.5111150   9.4201460 100.3280790
  86.5238310   9.0163750  99.4603050  85.9586370  10.1948750 100.2242220
  87.8056570   6.1417680  95.4170960  87.6952900   5.1992010  95.5420380
  87.8024820   6.5033320  96.3033720  85.9096590   4.3231300 101.6563400
  86.3265380   4.1091410 100.8216860  86.6336410   4.5804090 102.2272020
  83.3476850   1.7683000  94.7733450  82.4206130   1.7020380  95.0021920
  83.5001670   2.7063130  94.6588690  89.8558690   2.7218520 101.7479640
  89.0277320   2.7911610 101.2729770  90.4509170   3.3072830 101.2795470
  87.3774140   3.3303300  95.2768700  86.7586560   2.9922850  94.6295000
  87.3598590   2.6863060  95.9847890  78.9533490   2.2947740  97.5553180
  78.5490490   1.5824990  97.0599080  79.0396610   1.9500980  98.4441220
  79.4215190   5.9815300  99.7192390  79.1243480   5.3760770  99.0400170
  80.3715010   6.0192610  99.6081750  85.5538840   2.5690110  92.2841450
  85.9932120   1.7312540  92.1379270  86.2667260   3.2019510  92.3705590
  83.6634220   7.5086180  96.2522690  84.1030130   8.2510510  95.8378080
  83.6021110   7.7512750  97.1761650  73.2923490   4.3607860 100.8628470
  73.3703910   4.4956630  99.9184190  73.9065170   3.6523750 101.0556590
  74.5371120   6.0608050  97.2734650  74.1299200   6.2022640  96.4188250
  75.4284130   5.7768210  97.0705860  86.3304400  10.4955300  93.6085700
  86.1705540  10.2058240  94.5067530  86.1651110   9.7195430  93.0730930
  78.8092780  10.2753830  95.3857320  78.6335260   9.3589370  95.1725120
  77.9548520  10.6341120  95.6255120  86.0330530   8.0042860  92.1683700
  85.3395690   8.0020150  91.5085980  86.7753390   7.5802180  91.7377870
  85.5980460   9.6305570  96.2432190  86.0537410   8.8494950  96.5570810
  85.9372980  10.3412390  96.7873370  77.3900290   4.8719630  93.9578420
  76.6162550   4.3317250  93.7977140  78.1194920   4.3526240  93.6196180
  88.1488270   3.8684990  99.7504810  88.8687390   4.3640280  99.3600920
  87.9470090   3.1902880  99.1058680  77.4337690   4.5400010  97.5957230
  77.9516360   3.7368270  97.5414120  76.9821710   4.4779150  98.4374060
  82.3207190   5.8066290  92.8684530  82.6622890   6.5508520  92.3727850
  81.4919900   6.1197410  93.2309360  89.6248120   7.7996700  94.3858350
  88.9824280   7.1452320  94.6602070  89.2378780   8.2051790  93.6099020
  85.2034600   5.1282130  98.2330040  85.5558420   4.5310260  97.5731410
  84.3196930   4.8026360  98.4038290  81.2897880   5.8879820  95.6400450
  81.9769010   6.4349030  96.0208040  80.5030300   6.4320550  95.6750060
  80.5925090   2.8925850  95.2525810  81.0487870   3.7031100  95.4786000
  80.2413300   2.5748990  96.0844300  84.1689780   6.4064540 101.1995560
  84.8112010   5.7057700 101.3127730  84.6939130   7.1862980 101.0192450
  88.0145500   6.6913160  90.9234700  87.7883080   5.9743600  91.5159340
  87.6241700   6.4425600  90.0856450  73.7961530  10.7180020  91.6979160
  74.1559170  11.3169360  91.0436430  73.6553870  11.2639910  92.4714190
  87.5961750   4.6085100  92.5848860  87.3083450   5.0697790  93.3726740
  88.3913920   4.1482870  92.8533080  79.8130150   8.1011220  92.5152830
  79.8040250   8.8340910  91.8997340  78.8928510   7.8542800  92.6079790
  75.4136790   3.3226110  93.2599590  74.8064740   4.0625010  93.2694890
  75.8886140   3.4125470  92.4337790  82.7989750   8.1639460  91.1778020
  82.9001730   7.9603450  90.2480000  81.8991490   7.9097740  91.3825800
  81.4407860  10.6825780  95.8725690  81.6949360  10.6447170  94.9505060
  80.4920340  10.5559110  95.8653940  77.4242080   3.2837260  91.0088160
  78.1905350   3.1718620  91.5713590  77.5016770   2.5875230  90.3564930
  89.4486020   8.7726510  99.1238460  89.5733440   9.5957680  99.5962270
  90.3151580   8.5617240  98.7762610  76.9203550  10.8657720  98.7955590
  77.6566030  10.3173180  99.0664160  77.3044470  11.7313730  98.6561580
  73.8049030   6.9331290  94.6697100  72.8788810   7.1752430  94.6602510
  74.2705460   7.7605550  94.5481850  80.0305860  10.0388030  90.6181160
  80.8234470  10.3276860  90.1662950  79.5110210   9.6080200  89.9393640
  89.0836030   9.2658160  92.0417900  88.7977540   8.8523300  91.2272080
  88.8855580  10.1945870  91.9218420  80.5483260   5.2591440  90.4823510
  80.4433900   4.6443790  91.2084890  80.3807480   4.7357330  89.6986520
  83.7885990   4.3211470  91.0865500  83.2396090   4.7680770  91.7308240
  84.4105250   3.8160720  91.6103170  79.4561110   3.2802390  92.9830800
  79.8777530   3.1142260  93.8262190  79.5811950   2.4702620  92.4885940
  81.9688750   2.3040000  90.2307900  82.4894410   1.5889020  89.8649050
  82.6157150   2.9425870  90.5308410  82.5336780  10.3851610  92.5209640
  83.4287570  10.7236580  92.5428400  82.5654410   9.6631020  91.8933920
  76.1732940   5.7578660  90.7496640  76.6107810   6.3008330  91.4054220
  76.6580670   4.9325610  90.7592980  73.3878740   8.5467690  98.2016900
  73.7181750   7.6788750  97.9695540  73.8169740   8.7526210  99.0321860
  77.9840660   6.8776700  95.8618870  77.6836200   6.7541670  96.7622780
  77.8778150   6.0185290  95.4534600  73.8768950   9.4138280 100.9398530
  73.4399940   9.5939080 101.7722680  74.4446630  10.1712900 100.7980250
  90.7532580   6.6573100  90.5645550  89.9225540   6.7249750  91.0352780
  90.9304410   7.5477220  90.2612410  90.2089040   3.4020580  93.0679750
  90.9707950   3.9717230  93.1739440  90.2243410   2.8347780  93.8388060
  73.7093380   1.9258510  97.2987410  73.0542220   1.6570150  96.6547110
  74.5471330   1.8162990  96.8489390  91.2149010   4.2570680  97.9121680
  91.5857840   3.4738000  97.5057650  91.8550940   4.9459780  97.7338980
  90.2608210   3.6954950  90.2252270  90.5357050   4.6033830  90.0971490
  90.0718950   3.6317480  91.1614260  74.7469310   2.3111080 101.8390750
  75.1142350   2.2238480 102.7186770  74.1780130   1.5477630 101.7397610
  88.2558820  10.3925860  96.8520270  88.8517890  10.0710430  96.1754690
  88.5136970   9.9197680  97.6433540  79.8627420   8.3803360 102.6020620
  79.6218780   8.6477920 101.7151140  80.8030060   8.5509090 102.6571480
  88.8071030  11.0421160 100.6818000  88.3474000  11.7936970 100.3076020
  88.1783490  10.3227630 100.6232800  79.2366750   9.3509400  99.8566130
  79.7531770   8.7396760  99.3314390  79.8864130   9.8538180 100.3477140
  81.9762250  10.2417890 100.6835110  82.2640060   9.9872190  99.8068120
  82.4885470   9.6895250 101.2740680  73.9151650  10.4538790  96.2813480
  73.7473690   9.8209470  96.9795370  73.0486160  10.6598190  95.9307670
  75.5214350   9.1472020  93.7263620  74.9961970   9.5280050  93.0225580
  75.4458930   9.7722790  94.4473330  90.2779670  10.7059560  95.0477560
  90.4531860  10.0197300  94.4038480  89.5801240  11.2306610  94.6554230
  78.1207320  11.0954400  92.6012870  78.8526140  10.8113680  92.0536760
  78.3800990  10.8567680  93.4912250  77.2822110   7.2119130  92.6059200
  76.6530990   7.6804230  93.1545030  77.3969940   6.3668350  93.0405390
  82.8689870   3.0403810  80.6369670  82.0931970   2.5604250  80.9268240
  83.5202800   2.3609460  80.4625830  76.8855700   3.3523620  81.5145430
  76.0540580   3.0972330  81.9141940  77.4936680   3.4234390  82.2503350
  86.8897300   7.4464000  79.4168800  86.4278830   6.6751240  79.7455970
  87.7022850   7.4730070  79.9221250  76.8656960   7.3863710  81.7103450
  77.1685000   6.4961450  81.5313670  77.6100550   7.9433930  81.4825700
  83.1160610   9.7322010  79.0372790  82.4972050  10.1879510  78.4667230
  83.9712390   9.8873470  78.6362490  82.3098860   5.7161000  80.6439830
  82.2407140   4.7750940  80.4828960  83.0718720   5.8062410  81.2162400
  83.9823960   4.6161250  76.4304700  83.3641230   5.0810700  75.8667420
  84.4947210   5.3088730  76.8474210  78.8455720   4.1437120  83.1088300
  78.5125100   4.7706040  83.7509370  79.0222400   4.6699000  82.3289970
  78.0574820   6.1117920  84.9237480  78.6748820   6.7869000  84.6421930
  77.1967940   6.5205900  84.8324980  73.3507160   5.3017780  73.8044330
  72.9735140   5.7904880  73.0729230  73.6080230   5.9743060  74.4350860
  88.9752410   7.5757330  82.8392120  88.2915930   8.2456440  82.8308790
  89.5146700   7.7737980  82.0736980  86.5111150   9.4201460  81.5537300
  86.5238310   9.0163750  80.6859560  85.9586370  10.1948750  81.4498730
  87.8056570   6.1417680  76.6427470  87.6952900   5.1992010  76.7676890
  87.8024820   6.5033320  77.5290230  85.9096590   4.3231300  82.8819910
  86.3265380   4.1091410  82.0473370  86.6336410   4.5804090  83.4528530
  83.3476850   1.7683000  75.9989960  82.4206130   1.7020380  76.2278430
  83.5001670   2.7063130  75.8845200  89.8558690   2.7218520  82.9736150
  89.0277320   2.7911610  82.4986280  90.4509170   3.3072830  82.5051980
  87.3774140   3.3303300  76.5025210  86.7586560   2.9922850  75.8551510
  87.3598590   2.6863060  77.2104400  78.9533490   2.2947740  78.7809690
  78.5490490   1.5824990  78.2855590  79.0396610   1.9500980  79.6697730
  79.4215190   5.9815300  80.9448900  79.1243480   5.3760770  80.2656680
  80.3715010   6.0192610  80.8338260  87.5100800   9.5547170  84.6072000
  87.0331360  10.3619360  84.4144610  86.8262590   8.9025500  84.7598210
  78.5133620   5.7196990  87.5956700  77.6162150   5.9436960  87.8430100
  78.5386490   5.8431930  86.6468100  85.5538840   2.5690110  73.5097960
  85.9932120   1.7312540  73.3635780  86.2667260   3.2019510  73.5962100
  77.3404840   2.5910310  86.1714070  77.2012610   3.4633110  86.5401470
  76.4586200   2.2483120  86.0262010  83.6634220   7.5086180  77.4779200
  84.1030130   8.2510510  77.0634590  83.6021110   7.7512750  78.4018160
  79.1385190   8.5332010  88.3799220  79.1100620   8.9374960  87.5127650
  78.9750160   7.6042370  88.2170820  91.0900010   9.3159110  89.6763390
  91.5659730   9.7942000  90.3552470  91.7107170   9.2476600  88.9508890
  73.2923490   4.3607860  82.0884980  73.3703910   4.4956630  81.1440700
  73.9065170   3.6523750  82.2813100  74.5371120   6.0608050  78.4991160
  74.1299200   6.2022640  77.6444760  75.4284130   5.7768210  78.2962370
  90.4933260   6.5071960  86.8363400  90.6196320   6.2683840  85.9180580
  90.5354640   5.6756500  87.3085480  84.3550000  10.2099960  85.4058210
  84.8694670  10.1207970  86.2080640  83.5119080  10.5559660  85.6986120
  86.3304400  10.4955300  74.8342210  86.1705540  10.2058240  75.7324040
  86.1651110   9.7195430  74.2987440  78.8092780  10.2753830  76.6113830
  78.6335260   9.3589370  76.3981630  77.9548520  10.6341120  76.8511630
  86.0330530   8.0042860  73.3940210  85.3395690   8.0020150  72.7342490
  86.7753390   7.5802180  72.9634380  85.5980460   9.6305570  77.4688700
  86.0537410   8.8494950  77.7827320  85.9372980  10.3412390  78.0129880
  73.3483010   5.4022030  84.6279440  73.5114050   4.9327390  83.8098810
  73.8135460   4.8945590  85.2928280  74.9221990   4.7773460  86.7875250
  74.5376780   4.1367130  87.3858210  75.2334180   5.4809580  87.3569980
  77.3900290   4.8719630  75.1834930  76.6162550   4.3317250  75.0233650
  78.1194920   4.3526240  74.8452690  88.1488270   3.8684990  80.9761320
  88.8687390   4.3640280  80.5857430  87.9470090   3.1902880  80.3315190
  83.5307070   3.9394050  86.8630320  83.4644380   3.0189720  86.6087910
  82.9012210   4.0369490  87.5774960  77.4337690   4.5400010  78.8213740
  77.9516360   3.7368270  78.7670630  76.9821710   4.4779150  79.6630570
  82.3207190   5.8066290  74.0941040  82.6622890   6.5508520  73.5984360
  81.4919900   6.1197410  74.4565870  83.4623800   6.7614620  86.6134120
  83.4768340   5.8295580  86.3953030  82.7548900   6.8474380  87.2523890
  89.6735010   3.4021960  85.9602700  88.9483200   3.9950740  85.7632090
  90.2010470   3.3945500  85.1616070  89.6248120   7.7996700  75.6114860
  88.9824280   7.1452320  75.8858580  89.2378780   8.2051790  74.8355530
  85.2034600   5.1282130  79.4586550  85.5558420   4.5310260  78.7987920
  84.3196930   4.8026360  79.6294800  81.2897880   5.8879820  76.8656960
  81.9769010   6.4349030  77.2464550  80.5030300   6.4320550  76.9006570
  80.5925090   2.8925850  76.4782320  81.0487870   3.7031100  76.7042510
  80.2413300   2.5748990  77.3100810  82.8957700   8.4032190  83.7074620
  83.5399920   8.6091570  84.3848040  83.2587140   7.6420590  83.2545470
  84.1689780   6.4064540  82.4252070  84.8112010   5.7057700  82.5384240
  84.6939130   7.1862980  82.2448960  88.0145500   6.6913160  72.1491210
  87.7883080   5.9743600  72.7415850  87.6241700   6.4425600  71.3112960
  85.9427400   7.2059440  85.6288130  86.2783640   7.7926130  86.3066050
  85.0227740   7.0752150  85.8585920  73.7961530  10.7180020  72.9235670
  74.1559170  11.3169360  72.2692940  73.6553870  11.2639910  73.6970700
  87.5961750   4.6085100  73.8105370  87.3083450   5.0697790  74.5983250
  88.3913920   4.1482870  74.0789590  73.7803390   8.9834880  87.3978070
  73.8894510   8.0429620  87.2573460  73.1283950   9.2489630  86.7491800
  81.7715980   7.2550770  88.7976190  81.4512850   6.5360010  89.3421880
  81.0974340   7.9305840  88.8712250  79.8130150   8.1011220  73.7409340
  79.8040250   8.8340910  73.1253850  78.8928510   7.8542800  73.8336300
  75.4136790   3.3226110  74.4856100  74.8064740   4.0625010  74.4951400
  75.8886140   3.4125470  73.6594300  82.7989750   8.1639460  72.4034530
  82.9001730   7.9603450  71.4736510  81.8991490   7.9097740  72.6082310
  81.4407860  10.6825780  77.0982200  81.6949360  10.6447170  76.1761570
  80.4920340  10.5559110  77.0910450  77.4242080   3.2837260  72.2344670
  78.1905350   3.1718620  72.7970100  77.5016770   2.5875230  71.5821440
  89.4486020   8.7726510  80.3494970  89.5733440   9.5957680  80.8218780
  90.3151580   8.5617240  80.0019120  76.9203550  10.8657720  80.0212100
  77.6566030  10.3173180  80.2920670  77.3044470  11.7313730  79.8818090
  73.8049030   6.9331290  75.8953610  72.8788810   7.1752430  75.8859020
  74.2705460   7.7605550  75.7738360  75.9261830  10.0503790  89.2097680
  76.7274560  10.3715840  89.6233080  75.4113650   9.6899370  89.9317590
  80.0305860  10.0388030  71.8437670  80.8234470  10.3276860  71.3919460
  79.5110210   9.6080200  71.1650150  84.7626460   6.1583660  89.1573090
  84.1564620   6.1815260  88.4168840  84.4580570   5.4266700  89.6940340
  86.1926830   9.8863950  87.7682500  87.1448580   9.8021970  87.7182740
  86.0455050  10.5505660  88.4416290  89.0836030   9.2658160  73.2674410
  88.7977540   8.8523300  72.4528590  88.8855580  10.1945870  73.1474930
  73.6459640   2.5377250  88.1533730  74.1498660   1.9584530  88.7249960
  72.9067060   2.8217480  88.6910100  80.5483260   5.2591440  71.7080020
  80.4433900   4.6443790  72.4341400  80.3807480   4.7357330  70.9243030
  80.6997580   3.9448240  87.6869250  79.9343250   4.5133240  87.6023920
  80.8813540   3.6524450  86.7937480  83.7885990   4.3211470  72.3122010
  83.2396090   4.7680770  72.9564750  84.4105250   3.8160720  72.8359680
  87.8420930   5.6753570  88.2444270  88.5830400   6.0129330  87.7411730
  87.0793610   5.8445630  87.6914040  79.4561110   3.2802390  74.2087310
  79.8777530   3.1142260  75.0518700  79.5811950   2.4702620  73.7142450
  81.9688750   2.3040000  71.4564410  82.4894410   1.5889020  71.0905560
  82.6157150   2.9425870  71.7564920  86.5166590   3.7268400  86.7799480
  86.9307610   3.8813480  87.6289900  85.5817590   3.8523620  86.9425260
  81.2781820   3.6788880  84.7495410  81.6969930   4.5221610  84.5771650
  80.3590450   3.8160920  84.5202190  85.9533620   1.9642250  84.7095760
  85.4268840   2.4884870  84.1060900  86.2964960   2.5969640  85.3405490
  79.1289240   9.9841890  85.8653140  78.5910330  10.7087950  85.5461840
  79.3823200   9.5072230  85.0750480  81.9851450  11.2193100  86.1239790
  81.9110150  12.1228240  86.4312160  81.0830290  10.9005000  86.0961860
  82.5336780  10.3851610  73.7466150  83.4287570  10.7236580  73.7684910
  82.5654410   9.6631020  73.1190430  76.1732940   5.7578660  71.9753150
  76.6107810   6.3008330  72.6310730  76.6580670   4.9325610  71.9849490
  73.3878740   8.5467690  79.4273410  73.7181750   7.6788750  79.1952050
  73.8169740   8.7526210  80.2578370  77.9840660   6.8776700  77.0875380
  77.6836200   6.7541670  77.9879290  77.8778150   6.0185290  76.6791110
  73.8768950   9.4138280  82.1655040  73.4399940   9.5939080  82.9979190
  74.4446630  10.1712900  82.0236760  89.5131130   8.9155280  86.4532350
  88.9133120   8.9747840  85.7096270  89.6425030   7.9760260  86.5829200
  90.7532580   6.6573100  71.7902060  89.9225540   6.7249750  72.2609290
  90.9304410   7.5477220  71.4868920  90.2089040   3.4020580  74.2936260
  90.9707950   3.9717230  74.3995950  90.2243410   2.8347780  75.0644570
  73.7093380   1.9258510  78.5243920  73.0542220   1.6570150  77.8803620
  74.5471330   1.8162990  78.0745900  91.2149010   4.2570680  79.1378190
  91.5857840   3.4738000  78.7314160  91.8550940   4.9459780  78.9595490
  88.1982770   5.6407260  84.5508510  87.3842610   6.0704420  84.8134300
  88.6056970   6.2525670  83.9377560  90.2608210   3.6954950  71.4508780
  90.5357050   4.6033830  71.3228000  90.0718950   3.6317480  72.3870770
  74.7469310   2.3111080  83.0647260  75.1142350   2.2238480  83.9443280
  74.1780130   1.5477630  82.9654120  88.2558820  10.3925860  78.0776780
  88.8517890  10.0710430  77.4011200  88.5136970   9.9197680  78.8690050
  76.1621390   6.8243770  88.2267410  76.1191020   6.4536680  89.1081870
  76.2932400   7.7621340  88.3669230  79.8627420   8.3803360  83.8277130
  79.6218780   8.6477920  82.9407650  80.8030060   8.5509090  83.8827990
  91.1231580  10.3997740  84.6287770  90.6289860  10.7966610  83.9114900
  90.5144870   9.7746950  85.0225050  76.0009420   9.7706020  85.3465190
  75.4069740   9.6390720  86.0855230  75.9933260   8.9344160  84.8807290
  88.8071030  11.0421160  81.9074510  88.3474000  11.7936970  81.5332530
  88.1783490  10.3227630  81.8489310  75.6321650   7.1364400  84.2973230
  74.9055710   6.5169690  84.2299180  75.6930800   7.5305010  83.4271310
  79.2366750   9.3509400  81.0822640  79.7531770   8.7396760  80.5570900
  79.8864130   9.8538180  81.5733650  81.9762250  10.2417890  81.9091620
  82.2640060   9.9872190  81.0324630  82.4885470   9.6895250  82.4997190
  73.9151650  10.4538790  77.5069990  73.7473690   9.8209470  78.2051880
  73.0486160  10.6598190  77.1564180  75.5214350   9.1472020  74.9520130
  74.9961970   9.5280050  74.2482090  75.4458930   9.7722790  75.6729840
  82.0434610  11.1633990  89.2759820  82.9701920  10.9278260  89.3195780
  82.0285040  11.9905990  88.7945850  90.2779670  10.7059560  76.2734070
  90.4531860  10.0197300  75.6294990  89.5801240  11.2306610  75.8810740
  78.1207320  11.0954400  73.8269380  78.8526140  10.8113680  73.2793270
  78.3800990  10.8567680  74.7168760  77.2822110   7.2119130  73.8315710
  76.6530990   7.6804230  74.3801540  77.3969940   6.3668350  74.2661900
  88.6112170  10.3903850  89.1000860  89.4037490   9.8953080  88.8926820
  88.9045320  11.0693990  89.7076470  82.8689870   3.0403810  61.8626180
  82.0931970   2.5604250  62.1524750  83.5202800   2.3609460  61.6882340
  76.8855700   3.3523620  62.7401940  76.0540580   3.0972330  63.1398450
  77.4936680   3.4234390  63.4759860  86.8897300   7.4464000  60.6425310
  86.4278830   6.6751240  60.9712480  87.7022850   7.4730070  61.1477760
  76.8656960   7.3863710  62.9359960  77.1685000   6.4961450  62.7570180
  77.6100550   7.9433930  62.7082210  83.1160610   9.7322010  60.2629300
  82.4972050  10.1879510  59.6923740  83.9712390   9.8873470  59.8619000
  82.3098860   5.7161000  61.8696340  82.2407140   4.7750940  61.7085470
  83.0718720   5.8062410  62.4418910  83.9823960   4.6161250  57.6561210
  83.3641230   5.0810700  57.0923930  84.4947210   5.3088730  58.0730720
  78.8455720   4.1437120  64.3344810  78.5125100   4.7706040  64.9765880
  79.0222400   4.6699000  63.5546480  78.0574820   6.1117920  66.1493990
  78.6748820   6.7869000  65.8678440  77.1967940   6.5205900  66.0581490
  73.3507160   5.3017780  55.0300840  72.9735140   5.7904880  54.2985740
  73.6080230   5.9743060  55.6607370  88.9752410   7.5757330  64.0648630
  88.2915930   8.2456440  64.0565300  89.5146700   7.7737980  63.2993490
  86.5111150   9.4201460  62.7793810  86.5238310   9.0163750  61.9116070
  85.9586370  10.1948750  62.6755240  87.8056570   6.1417680  57.8683980
  87.6952900   5.1992010  57.9933400  87.8024820   6.5033320  58.7546740
  85.9096590   4.3231300  64.1076420  86.3265380   4.1091410  63.2729880
  86.6336410   4.5804090  64.6785040  83.3476850   1.7683000  57.2246470
  82.4206130   1.7020380  57.4534940  83.5001670   2.7063130  57.1101710
  89.8558690   2.7218520  64.1992660  89.0277320   2.7911610  63.7242790
  90.4509170   3.3072830  63.7308490  87.3774140   3.3303300  57.7281720
  86.7586560   2.9922850  57.0808020  87.3598590   2.6863060  58.4360910
  78.9533490   2.2947740  60.0066200  78.5490490   1.5824990  59.5112100
  79.0396610   1.9500980  60.8954240  79.4215190   5.9815300  62.1705410
  79.1243480   5.3760770  61.4913190  80.3715010   6.0192610  62.0594770
  87.5100800   9.5547170  65.8328510  87.0331360  10.3619360  65.6401120
  86.8262590   8.9025500  65.9854720  78.5133620   5.7196990  68.8213210
  77.6162150   5.9436960  69.0686610  78.5386490   5.8431930  67.8724610
  85.5538840   2.5690110  54.7354470  85.9932120   1.7312540  54.5892290
  86.2667260   3.2019510  54.8218610  77.3404840   2.5910310  67.3970580
  77.2012610   3.4633110  67.7657980  76.4586200   2.2483120  67.2518520
  83.6634220   7.5086180  58.7035710  84.1030130   8.2510510  58.2891100
  83.6021110   7.7512750  59.6274670  79.1385190   8.5332010  69.6055730
  79.1100620   8.9374960  68.7384160  78.9750160   7.6042370  69.4427330
  91.0900010   9.3159110  70.9019900  91.5659730   9.7942000  71.5808980
  91.7107170   9.2476600  70.1765400  73.2923490   4.3607860  63.3141490
  73.3703910   4.4956630  62.3697210  73.9065170   3.6523750  63.5069610
  74.5371120   6.0608050  59.7247670  74.1299200   6.2022640  58.8701270
  75.4284130   5.7768210  59.5218880  90.4933260   6.5071960  68.0619910
  90.6196320   6.2683840  67.1437090  90.5354640   5.6756500  68.5341990
  84.3550000  10.2099960  66.6314720  84.8694670  10.1207970  67.4337150
  83.5119080  10.5559660  66.9242630  86.3304400  10.4955300  56.0598720
  86.1705540  10.2058240  56.9580550  86.1651110   9.7195430  55.5243950
  78.8092780  10.2753830  57.8370340  78.6335260   9.3589370  57.6238140
  77.9548520  10.6341120  58.0768140  86.0330530   8.0042860  54.6196720
  85.3395690   8.0020150  53.9599000  86.7753390   7.5802180  54.1890890
  85.5980460   9.6305570  58.6945210  86.0537410   8.8494950  59.0083830
  85.9372980  10.3412390  59.2386390  73.3483010   5.4022030  65.8535950
  73.5114050   4.9327390  65.0355320  73.8135460   4.8945590  66.5184790
  74.9221990   4.7773460  68.0131760  74.5376780   4.1367130  68.6114720
  75.2334180   5.4809580  68.5826490  77.3900290   4.8719630  56.4091440
  76.6162550   4.3317250  56.2490160  78.1194920   4.3526240  56.0709200
  88.1488270   3.8684990  62.2017830  88.8687390   4.3640280  61.8113940
  87.9470090   3.1902880  61.5571700  83.5307070   3.9394050  68.0886830
  83.4644380   3.0189720  67.8344420  82.9012210   4.0369490  68.8031470
  77.4337690   4.5400010  60.0470250  77.9516360   3.7368270  59.9927140
  76.9821710   4.4779150  60.8887080  82.3207190   5.8066290  55.3197550
  82.6622890   6.5508520  54.8240870  81.4919900   6.1197410  55.6822380
  83.4623800   6.7614620  67.8390630  83.4768340   5.8295580  67.6209540
  82.7548900   6.8474380  68.4780400  89.6735010   3.4021960  67.1859210
  88.9483200   3.9950740  66.9888600  90.2010470   3.3945500  66.3872580
  89.6248120   7.7996700  56.8371370  88.9824280   7.1452320  57.1115090
  89.2378780   8.2051790  56.0612040  85.2034600   5.1282130  60.6843060
  85.5558420   4.5310260  60.0244430  84.3196930   4.8026360  60.8551310
  81.2897880   5.8879820  58.0913470  81.9769010   6.4349030  58.4721060
  80.5030300   6.4320550  58.1263080  80.5925090   2.8925850  57.7038830
  81.0487870   3.7031100  57.9299020  80.2413300   2.5748990  58.5357320
  82.8957700   8.4032190  64.9331130  83.5399920   8.6091570  65.6104550
  83.2587140   7.6420590  64.4801980  84.1689780   6.4064540  63.6508580
  84.8112010   5.7057700  63.7640750  84.6939130   7.1862980  63.4705470
  88.0145500   6.6913160  53.3747720  87.7883080   5.9743600  53.9672360
  87.6241700   6.4425600  52.5369470  85.9427400   7.2059440  66.8544640
  86.2783640   7.7926130  67.5322560  85.0227740   7.0752150  67.0842430
  73.7961530  10.7180020  54.1492180  74.1559170  11.3169360  53.4949450
  73.6553870  11.2639910  54.9227210  87.5961750   4.6085100  55.0361880
  87.3083450   5.0697790  55.8239760  88.3913920   4.1482870  55.3046100
  73.7803390   8.9834880  68.6234580  73.8894510   8.0429620  68.4829970
  73.1283950   9.2489630  67.9748310  81.7715980   7.2550770  70.0232700
  81.4512850   6.5360010  70.5678390  81.0974340   7.9305840  70.0968760
  79.8130150   8.1011220  54.9665850  79.8040250   8.8340910  54.3510360
  78.8928510   7.8542800  55.0592810  75.4136790   3.3226110  55.7112610
  74.8064740   4.0625010  55.7207910  75.8886140   3.4125470  54.8850810
  82.7989750   8.1639460  53.6291040  82.9001730   7.9603450  52.6993020
  81.8991490   7.9097740  53.8338820  81.4407860  10.6825780  58.3238710
  81.6949360  10.6447170  57.4018080  80.4920340  10.5559110  58.3166960
  77.4242080   3.2837260  53.4601180  78.1905350   3.1718620  54.0226610
  77.5016770   2.5875230  52.8077950  89.4486020   8.7726510  61.5751480
  89.5733440   9.5957680  62.0475290  90.3151580   8.5617240  61.2275630
  76.9203550  10.8657720  61.2468610  77.6566030  10.3173180  61.5177180
  77.3044470  11.7313730  61.1074600  73.8049030   6.9331290  57.1210120
  72.8788810   7.1752430  57.1115530  74.2705460   7.7605550  56.9994870
  75.9261830  10.0503790  70.4354190  76.7274560  10.3715840  70.8489590
  75.4113650   9.6899370  71.1574100  80.0305860  10.0388030  53.0694180
  80.8234470  10.3276860  52.6175970  79.5110210   9.6080200  52.3906660
  84.7626460   6.1583660  70.3829600  84.1564620   6.1815260  69.6425350
  84.4580570   5.4266700  70.9196850  86.1926830   9.8863950  68.9939010
  87.1448580   9.8021970  68.9439250  86.0455050  10.5505660  69.6672800
  89.0836030   9.2658160  54.4930920  88.7977540   8.8523300  53.6785100
  88.8855580  10.1945870  54.3731440  73.6459640   2.5377250  69.3790240
  74.1498660   1.9584530  69.9506470  72.9067060   2.8217480  69.9166610
  80.5483260   5.2591440  52.9336530  80.4433900   4.6443790  53.6597910
  80.3807480   4.7357330  52.1499540  80.6997580   3.9448240  68.9125760
  79.9343250   4.5133240  68.8280430  80.8813540   3.6524450  68.0193990
  83.7885990   4.3211470  53.5378520  83.2396090   4.7680770  54.1821260
  84.4105250   3.8160720  54.0616190  87.8420930   5.6753570  69.4700780
  88.5830400   6.0129330  68.9668240  87.0793610   5.8445630  68.9170550
  79.4561110   3.2802390  55.4343820  79.8777530   3.1142260  56.2775210
  79.5811950   2.4702620  54.9398960  81.9688750   2.3040000  52.6820920
  82.4894410   1.5889020  52.3162070  82.6157150   2.9425870  52.9821430
  86.5166590   3.7268400  68.0055990  86.9307610   3.8813480  68.8546410
  85.5817590   3.8523620  68.1681770  81.2781820   3.6788880  65.9751920
  81.6969930   4.5221610  65.8028160  80.3590450   3.8160920  65.7458700
  85.9533620   1.9642250  65.9352270  85.4268840   2.4884870  65.3317410
  86.2964960   2.5969640  66.5662000  79.1289240   9.9841890  67.0909650
  78.5910330  10.7087950  66.7718350  79.3823200   9.5072230  66.3006990
  81.9851450  11.2193100  67.3496300  81.9110150  12.1228240  67.6568670
  81.0830290  10.9005000  67.3218370  82.5336780  10.3851610  54.9722660
  83.4287570  10.7236580  54.9941420  82.5654410   9.6631020  54.3446940
  76.1732940   5.7578660  53.2009660  76.6107810   6.3008330  53.8567240
  76.6580670   4.9325610  53.2106000  73.3878740   8.5467690  60.6529920
  73.7181750   7.6788750  60.4208560  73.8169740   8.7526210  61.4834880
  77.9840660   6.8776700  58.3131890  77.6836200   6.7541670  59.2135800
  77.8778150   6.0185290  57.9047620  73.8768950   9.4138280  63.3911550
  73.4399940   9.5939080  64.2235700  74.4446630  10.1712900  63.2493270
  89.5131130   8.9155280  67.6788860  88.9133120   8.9747840  66.9352780
  89.6425030   7.9760260  67.8085710  90.7532580   6.6573100  53.0158570
  89.9225540   6.7249750  53.4865800  90.9304410   7.5477220  52.7125430
  90.2089040   3.4020580  55.5192770  90.9707950   3.9717230  55.6252460
  90.2243410   2.8347780  56.2901080  73.7093380   1.9258510  59.7500430
  73.0542220   1.6570150  59.1060130  74.5471330   1.8162990  59.3002410
  91.2149010   4.2570680  60.3634700  91.5857840   3.4738000  59.9570670
  91.8550940   4.9459780  60.1852000  88.1982770   5.6407260  65.7765020
  87.3842610   6.0704420  66.0390810  88.6056970   6.2525670  65.1634070
  90.2608210   3.6954950  52.6765290  90.5357050   4.6033830  52.5484510
  90.0718950   3.6317480  53.6127280  74.7469310   2.3111080  64.2903770
  75.1142350   2.2238480  65.1699790  74.1780130   1.5477630  64.1910630
  88.2558820  10.3925860  59.3033290  88.8517890  10.0710430  58.6267710
  88.5136970   9.9197680  60.0946560  76.1621390   6.8243770  69.4523920
  76.1191020   6.4536680  70.3338380  76.2932400   7.7621340  69.5925740
  79.8627420   8.3803360  65.0533640  79.6218780   8.6477920  64.1664160
  80.8030060   8.5509090  65.1084500  91.1231580  10.3997740  65.8544280
  90.6289860  10.7966610  65.1371410  90.5144870   9.7746950  66.2481560
  76.0009420   9.7706020  66.5721700  75.4069740   9.6390720  67.3111740
  75.9933260   8.9344160  66.1063800  88.8071030  11.0421160  63.1331020
  88.3474000  11.7936970  62.7589040  88.1783490  10.3227630  63.0745820
  75.6321650   7.1364400  65.5229740  74.9055710   6.5169690  65.4555690
  75.6930800   7.5305010  64.6527820  79.2366750   9.3509400  62.3079150
  79.7531770   8.7396760  61.7827410  79.8864130   9.8538180  62.7990160
  81.9762250  10.2417890  63.1348130  82.2640060   9.9872190  62.2581140
  82.4885470   9.6895250  63.7253700  73.9151650  10.4538790  58.7326500
  73.7473690   9.8209470  59.4308390  73.0486160  10.6598190  58.3820690
  75.5214350   9.1472020  56.1776640  74.9961970   9.5280050  55.4738600
  75.4458930   9.7722790  56.8986350  82.0434610  11.1633990  70.5016330
  82.9701920  10.9278260  70.5452290  82.0285040  11.9905990  70.0202360
  90.2779670  10.7059560  57.4990580  90.4531860  10.0197300  56.8551500
  89.5801240  11.2306610  57.1067250  78.1207320  11.0954400  55.0525890
  78.8526140  10.8113680  54.5049780  78.3800990  10.8567680  55.9425270
  77.2822110   7.2119130  55.0572220  76.6530990   7.6804230  55.6058050
  77.3969940   6.3668350  55.4918410  88.6112170  10.3903850  70.3257370
  89.4037490   9.8953080  70.1183330  88.9045320  11.0693990  70.9332980
  82.8689870   3.0403810  43.0882690  82.0931970   2.5604250  43.3781260
  83.5202800   2.3609460  42.9138850  76.8855700   3.3523620  43.9658450
  76.0540580   3.0972330  44.3654960  77.4936680   3.4234390  44.7016370
  86.8897300   7.4464000  41.8681820  86.4278830   6.6751240  42.1968990
  87.7022850   7.4730070  42.3734270  76.8656960   7.3863710  44.1616470
  77.1685000   6.4961450  43.9826690  77.6100550   7.9433930  43.9338720
  83.1160610   9.7322010  41.4885810  82.4972050  10.1879510  40.9180250
  83.9712390   9.8873470  41.0875510  82.3098860   5.7161000  43.0952850
  82.2407140   4.7750940  42.9341980  83.0718720   5.8062410  43.6675420
  83.9823960   4.6161250  38.8817720  83.3641230   5.0810700  38.3180440
  84.4947210   5.3088730  39.2987230  78.8455720   4.1437120  45.5601320
  78.5125100   4.7706040  46.2022390  79.0222400   4.6699000  44.7802990
  78.0574820   6.1117920  47.3750500  78.6748820   6.7869000  47.0934950
  77.1967940   6.5205900  47.2838000  73.3507160   5.3017780  36.2557350
  72.9735140   5.7904880  35.5242250  73.6080230   5.9743060  36.8863880
  88.9752410   7.5757330  45.2905140  88.2915930   8.2456440  45.2821810
  89.5146700   7.7737980  44.5250000  86.5111150   9.4201460  44.0050320
  86.5238310   9.0163750  43.1372580  85.9586370  10.1948750  43.9011750
  87.8056570   6.1417680  39.0940490  87.6952900   5.1992010  39.2189910
  87.8024820   6.5033320  39.9803250  85.9096590   4.3231300  45.3332930
  86.3265380   4.1091410  44.4986390  86.6336410   4.5804090  45.9041550
  83.3476850   1.7683000  38.4502980  82.4206130   1.7020380  38.6791450
  83.5001670   2.7063130  38.3358220  89.8558690   2.7218520  45.4249170
  89.0277320   2.7911610  44.9499300  90.4509170   3.3072830  44.9565000
  87.3774140   3.3303300  38.9538230  86.7586560   2.9922850  38.3064530
  87.3598590   2.6863060  39.6617420  78.9533490   2.2947740  41.2322710
  78.5490490   1.5824990  40.7368610  79.0396610   1.9500980  42.1210750
  79.4215190   5.9815300  43.3961920  79.1243480   5.3760770  42.7169700
  80.3715010   6.0192610  43.2851280  87.5100800   9.5547170  47.0585020
  87.0331360  10.3619360  46.8657630  86.8262590   8.9025500  47.2111230
  78.5133620   5.7196990  50.0469720  77.6162150   5.9436960  50.2943120
  78.5386490   5.8431930  49.0981120  85.5538840   2.5690110  35.9610980
  85.9932120   1.7312540  35.8148800  86.2667260   3.2019510  36.0475120
  77.3404840   2.5910310  48.6227090  77.2012610   3.4633110  48.9914490
  76.4586200   2.2483120  48.4775030  83.6634220   7.5086180  39.9292220
  84.1030130   8.2510510  39.5147610  83.6021110   7.7512750  40.8531180
  79.1385190   8.5332010  50.8312240  79.1100620   8.9374960  49.9640670
  78.9750160   7.6042370  50.6683840  91.0900010   9.3159110  52.1276410
  91.5659730   9.7942000  52.8065490  91.7107170   9.2476600  51.4021910
  73.2923490   4.3607860  44.5398000  73.3703910   4.4956630  43.5953720
  73.9065170   3.6523750  44.7326120  74.5371120   6.0608050  40.9504180
  74.1299200   6.2022640  40.0957780  75.4284130   5.7768210  40.7475390
  90.4933260   6.5071960  49.2876420  90.6196320   6.2683840  48.3693600
  90.5354640   5.6756500  49.7598500  84.3550000  10.2099960  47.8571230
  84.8694670  10.1207970  48.6593660  83.5119080  10.5559660  48.1499140
  86.3304400  10.4955300  37.2855230  86.1705540  10.2058240  38.1837060
  86.1651110   9.7195430  36.7500460  78.8092780  10.2753830  39.0626850
  78.6335260   9.3589370  38.8494650  77.9548520  10.6341120  39.3024650
  86.0330530   8.0042860  35.8453230  85.3395690   8.0020150  35.1855510
  86.7753390   7.5802180  35.4147400  85.5980460   9.6305570  39.9201720
  86.0537410   8.8494950  40.2340340  85.9372980  10.3412390  40.4642900
  73.3483010   5.4022030  47.0792460  73.5114050   4.9327390  46.2611830
  73.8135460   4.8945590  47.7441300  74.9221990   4.7773460  49.2388270
  74.5376780   4.1367130  49.8371230  75.2334180   5.4809580  49.8083000
  77.3900290   4.8719630  37.6347950  76.6162550   4.3317250  37.4746670
  78.1194920   4.3526240  37.2965710  88.1488270   3.8684990  43.4274340
  88.8687390   4.3640280  43.0370450  87.9470090   3.1902880  42.7828210
  83.5307070   3.9394050  49.3143340  83.4644380   3.0189720  49.0600930
  82.9012210   4.0369490  50.0287980  77.4337690   4.5400010  41.2726760
  77.9516360   3.7368270  41.2183650  76.9821710   4.4779150  42.1143590
  82.3207190   5.8066290  36.5454060  82.6622890   6.5508520  36.0497380
  81.4919900   6.1197410  36.9078890  83.4623800   6.7614620  49.0647140
  83.4768340   5.8295580  48.8466050  82.7548900   6.8474380  49.7036910
  89.6735010   3.4021960  48.4115720  88.9483200   3.9950740  48.2145110
  90.2010470   3.3945500  47.6129090  89.6248120   7.7996700  38.0627880
  88.9824280   7.1452320  38.3371600  89.2378780   8.2051790  37.2868550
  85.2034600   5.1282130  41.9099570  85.5558420   4.5310260  41.2500940
  84.3196930   4.8026360  42.0807820  81.2897880   5.8879820  39.3169980
  81.9769010   6.4349030  39.6977570  80.5030300   6.4320550  39.3519590
  80.5925090   2.8925850  38.9295340  81.0487870   3.7031100  39.1555530
  80.2413300   2.5748990  39.7613830  82.8957700   8.4032190  46.1587640
  83.5399920   8.6091570  46.8361060  83.2587140   7.6420590  45.7058490
  84.1689780   6.4064540  44.8765090  84.8112010   5.7057700  44.9897260
  84.6939130   7.1862980  44.6961980  88.0145500   6.6913160  34.6004230
  87.7883080   5.9743600  35.1928870  87.6241700   6.4425600  33.7625980
  85.9427400   7.2059440  48.0801150  86.2783640   7.7926130  48.7579070
  85.0227740   7.0752150  48.3098940  73.7961530  10.7180020  35.3748690
  74.1559170  11.3169360  34.7205960  73.6553870  11.2639910  36.1483720
  87.5961750   4.6085100  36.2618390  87.3083450   5.0697790  37.0496270
  88.3913920   4.1482870  36.5302610  73.7803390   8.9834880  49.8491090
  73.8894510   8.0429620  49.7086480  73.1283950   9.2489630  49.2004820
  81.7715980   7.2550770  51.2489210  81.4512850   6.5360010  51.7934900
  81.0974340   7.9305840  51.3225270  79.8130150   8.1011220  36.1922360
  79.8040250   8.8340910  35.5766870  78.8928510   7.8542800  36.2849320
  75.4136790   3.3226110  36.9369120  74.8064740   4.0625010  36.9464420
  75.8886140   3.4125470  36.1107320  82.7989750   8.1639460  34.8547550
  82.9001730   7.9603450  33.9249530  81.8991490   7.9097740  35.0595330
  81.4407860  10.6825780  39.5495220  81.6949360  10.6447170  38.6274590
  80.4920340  10.5559110  39.5423470  77.4242080   3.2837260  34.6857690
  78.1905350   3.1718620  35.2483120  77.5016770   2.5875230  34.0334460
  89.4486020   8.7726510  42.8007990  89.5733440   9.5957680  43.2731800
  90.3151580   8.5617240  42.4532140  76.9203550  10.8657720  42.4725120
  77.6566030  10.3173180  42.7433690  77.3044470  11.7313730  42.3331110
  73.8049030   6.9331290  38.3466630  72.8788810   7.1752430  38.3372040
  74.2705460   7.7605550  38.2251380  75.9261830  10.0503790  51.6610700
  76.7274560  10.3715840  52.0746100  75.4113650   9.6899370  52.3830610
  80.0305860  10.0388030  34.2950690  80.8234470  10.3276860  33.8432480
  79.5110210   9.6080200  33.6163170  84.7626460   6.1583660  51.6086110
  84.1564620   6.1815260  50.8681860  84.4580570   5.4266700  52.1453360
  86.1926830   9.8863950  50.2195520  87.1448580   9.8021970  50.1695760
  86.0455050  10.5505660  50.8929310  89.0836030   9.2658160  35.7187430
  88.7977540   8.8523300  34.9041610  88.8855580  10.1945870  35.5987950
  73.6459640   2.5377250  50.6046750  74.1498660   1.9584530  51.1762980
  72.9067060   2.8217480  51.1423120  80.5483260   5.2591440  34.1593040
  80.4433900   4.6443790  34.8854420  80.3807480   4.7357330  33.3756050
  80.6997580   3.9448240  50.1382270  79.9343250   4.5133240  50.0536940
  80.8813540   3.6524450  49.2450500  83.7885990   4.3211470  34.7635030
  83.2396090   4.7680770  35.4077770  84.4105250   3.8160720  35.2872700
  87.8420930   5.6753570  50.6957290  88.5830400   6.0129330  50.1924750
  87.0793610   5.8445630  50.1427060  79.4561110   3.2802390  36.6600330
  79.8777530   3.1142260  37.5031720  79.5811950   2.4702620  36.1655470
  81.9688750   2.3040000  33.9077430  82.4894410   1.5889020  33.5418580
  82.6157150   2.9425870  34.2077940  86.5166590   3.7268400  49.2312500
  86.9307610   3.8813480  50.0802920  85.5817590   3.8523620  49.3938280
  81.2781820   3.6788880  47.2008430  81.6969930   4.5221610  47.0284670
  80.3590450   3.8160920  46.9715210  85.9533620   1.9642250  47.1608780
  85.4268840   2.4884870  46.5573920  86.2964960   2.5969640  47.7918510
  79.1289240   9.9841890  48.3166160  78.5910330  10.7087950  47.9974860
  79.3823200   9.5072230  47.5263500  81.9851450  11.2193100  48.5752810
  81.9110150  12.1228240  48.8825180  81.0830290  10.9005000  48.5474880
  82.5336780  10.3851610  36.1979170  83.4287570  10.7236580  36.2197930
  82.5654410   9.6631020  35.5703450  76.1732940   5.7578660  34.4266170
  76.6107810   6.3008330  35.0823750  76.6580670   4.9325610  34.4362510
  73.3878740   8.5467690  41.8786430  73.7181750   7.6788750  41.6465070
  73.8169740   8.7526210  42.7091390  77.9840660   6.8776700  39.5388400
  77.6836200   6.7541670  40.4392310  77.8778150   6.0185290  39.1304130
  73.8768950   9.4138280  44.6168060  73.4399940   9.5939080  45.4492210
  74.4446630  10.1712900  44.4749780  89.5131130   8.9155280  48.9045370
  88.9133120   8.9747840  48.1609290  89.6425030   7.9760260  49.0342220
  90.7532580   6.6573100  34.2415080  89.9225540   6.7249750  34.7122310
  90.9304410   7.5477220  33.9381940  90.2089040   3.4020580  36.7449280
  90.9707950   3.9717230  36.8508970  90.2243410   2.8347780  37.5157590
  73.7093380   1.9258510  40.9756940  73.0542220   1.6570150  40.3316640
  74.5471330   1.8162990  40.5258920  91.2149010   4.2570680  41.5891210
  91.5857840   3.4738000  41.1827180  91.8550940   4.9459780  41.4108510
  88.1982770   5.6407260  47.0021530  87.3842610   6.0704420  47.2647320
  88.6056970   6.2525670  46.3890580  90.2608210   3.6954950  33.9021800
  90.5357050   4.6033830  33.7741020  90.0718950   3.6317480  34.8383790
  74.7469310   2.3111080  45.5160280  75.1142350   2.2238480  46.3956300
  74.1780130   1.5477630  45.4167140  88.2558820  10.3925860  40.5289800
  88.8517890  10.0710430  39.8524220  88.5136970   9.9197680  41.3203070
  76.1621390   6.8243770  50.6780430  76.1191020   6.4536680  51.5594890
  76.2932400   7.7621340  50.8182250  79.8627420   8.3803360  46.2790150
  79.6218780   8.6477920  45.3920670  80.8030060   8.5509090  46.3341010
  91.1231580  10.3997740  47.0800790  90.6289860  10.7966610  46.3627920
  90.5144870   9.7746950  47.4738070  76.0009420   9.7706020  47.7978210
  75.4069740   9.6390720  48.5368250  75.9933260   8.9344160  47.3320310
  88.8071030  11.0421160  44.3587530  88.3474000  11.7936970  43.9845550
  88.1783490  10.3227630  44.3002330  75.6321650   7.1364400  46.7486250
  74.9055710   6.5169690  46.6812200  75.6930800   7.5305010  45.8784330
  79.2366750   9.3509400  43.5335660  79.7531770   8.7396760  43.0083920
  79.8864130   9.8538180  44.0246670  81.9762250  10.2417890  44.3604640
  82.2640060   9.9872190  43.4837650  82.4885470   9.6895250  44.9510210
  73.9151650  10.4538790  39.9583010  73.7473690   9.8209470  40.6564900
  73.0486160  10.6598190  39.6077200  75.5214350   9.1472020  37.4033150
  74.9961970   9.5280050  36.6995110  75.4458930   9.7722790  38.1242860
  82.0434610  11.1633990  51.7272840  82.9701920  10.9278260  51.7708800
  82.0285040  11.9905990  51.2458870  90.2779670  10.7059560  38.7247090
  90.4531860  10.0197300  38.0808010  89.5801240  11.2306610  38.3323760
  78.1207320  11.0954400  36.2782400  78.8526140  10.8113680  35.7306290
  78.3800990  10.8567680  37.1681780  77.2822110   7.2119130  36.2828730
  76.6530990   7.6804230  36.8314560  77.3969940   6.3668350  36.7174920
  88.6112170  10.3903850  51.5513880  89.4037490   9.8953080  51.3439840
  88.9045320  11.0693990  52.1589490  82.8689870   3.0403810  24.3139200
  82.0931970   2.5604250  24.6037770  83.5202800   2.3609460  24.1395360
  76.8855700   3.3523620  25.1914960  76.0540580   3.0972330  25.5911470
  77.4936680   3.4234390  25.9272880  86.8897300   7.4464000  23.0938330
  86.4278830   6.6751240  23.4225500  87.7022850   7.4730070  23.5990780
  76.8656960   7.3863710  25.3872980  77.1685000   6.4961450  25.2083200
  77.6100550   7.9433930  25.1595230  83.1160610   9.7322010  22.7142320
  82.4972050  10.1879510  22.1436760  83.9712390   9.8873470  22.3132020
  82.3098860   5.7161000  24.3209360  82.2407140   4.7750940  24.1598490
  83.0718720   5.8062410  24.8931930  83.9823960   4.6161250  20.1074230
  83.3641230   5.0810700  19.5436950  84.4947210   5.3088730  20.5243740
  78.8455720   4.1437120  26.7857830  78.5125100   4.7706040  27.4278900
  79.0222400   4.6699000  26.0059500  78.0574820   6.1117920  28.6007010
  78.6748820   6.7869000  28.3191460  77.1967940   6.5205900  28.5094510
  73.3507160   5.3017780  17.4813860  72.9735140   5.7904880  16.7498760
  73.6080230   5.9743060  18.1120390  88.9752410   7.5757330  26.5161650
  88.2915930   8.2456440  26.5078320  89.5146700   7.7737980  25.7506510
  86.5111150   9.4201460  25.2306830  86.5238310   9.0163750  24.3629090
  85.9586370  10.1948750  25.1268260  87.8056570   6.1417680  20.3197000
  87.6952900   5.1992010  20.4446420  87.8024820   6.5033320  21.2059760
  85.9096590   4.3231300  26.5589440  86.3265380   4.1091410  25.7242900
  86.6336410   4.5804090  27.1298060  83.3476850   1.7683000  19.6759490
  82.4206130   1.7020380  19.9047960  83.5001670   2.7063130  19.5614730
  89.8558690   2.7218520  26.6505680  89.0277320   2.7911610  26.1755810
  90.4509170   3.3072830  26.1821510  87.3774140   3.3303300  20.1794740
  86.7586560   2.9922850  19.5321040  87.3598590   2.6863060  20.8873930
  78.9533490   2.2947740  22.4579220  78.5490490   1.5824990  21.9625120
  79.0396610   1.9500980  23.3467260  79.4215190   5.9815300  24.6218430
  79.1243480   5.3760770  23.9426210  80.3715010   6.0192610  24.5107790
  87.5100800   9.5547170  28.2841530  87.0331360  10.3619360  28.0914140
  86.8262590   8.9025500  28.4367740  78.5133620   5.7196990  31.2726230
  77.6162150   5.9436960  31.5199630  78.5386490   5.8431930  30.3237630
  85.5538840   2.5690110  17.1867490  85.9932120   1.7312540  17.0405310
  86.2667260   3.2019510  17.2731630  77.3404840   2.5910310  29.8483600
  77.2012610   3.4633110  30.2171000  76.4586200   2.2483120  29.7031540
  83.6634220   7.5086180  21.1548730  84.1030130   8.2510510  20.7404120
  83.6021110   7.7512750  22.0787690  79.1385190   8.5332010  32.0568750
  79.1100620   8.9374960  31.1897180  78.9750160   7.6042370  31.8940350
  91.0900010   9.3159110  33.3532920  91.5659730   9.7942000  34.0322000
  91.7107170   9.2476600  32.6278420  73.2923490   4.3607860  25.7654510
  73.3703910   4.4956630  24.8210230  73.9065170   3.6523750  25.9582630
  74.5371120   6.0608050  22.1760690  74.1299200   6.2022640  21.3214290
  75.4284130   5.7768210  21.9731900  90.4933260   6.5071960  30.5132930
  90.6196320   6.2683840  29.5950110  90.5354640   5.6756500  30.9855010
  84.3550000  10.2099960  29.0827740  84.8694670  10.1207970  29.8850170
  83.5119080  10.5559660  29.3755650  86.3304400  10.4955300  18.5111740
  86.1705540  10.2058240  19.4093570  86.1651110   9.7195430  17.9756970
  78.8092780  10.2753830  20.2883360  78.6335260   9.3589370  20.0751160
  77.9548520  10.6341120  20.5281160  86.0330530   8.0042860  17.0709740
  85.3395690   8.0020150  16.4112020  86.7753390   7.5802180  16.6403910
  85.5980460   9.6305570  21.1458230  86.0537410   8.8494950  21.4596850
  85.9372980  10.3412390  21.6899410  73.3483010   5.4022030  28.3048970
  73.5114050   4.9327390  27.4868340  73.8135460   4.8945590  28.9697810
  74.9221990   4.7773460  30.4644780  74.5376780   4.1367130  31.0627740
  75.2334180   5.4809580  31.0339510  77.3900290   4.8719630  18.8604460
  76.6162550   4.3317250  18.7003180  78.1194920   4.3526240  18.5222220
  88.1488270   3.8684990  24.6530850  88.8687390   4.3640280  24.2626960
  87.9470090   3.1902880  24.0084720  83.5307070   3.9394050  30.5399850
  83.4644380   3.0189720  30.2857440  82.9012210   4.0369490  31.2544490
  77.4337690   4.5400010  22.4983270  77.9516360   3.7368270  22.4440160
  76.9821710   4.4779150  23.3400100  82.3207190   5.8066290  17.7710570
  82.6622890   6.5508520  17.2753890  81.4919900   6.1197410  18.1335400
  83.4623800   6.7614620  30.2903650  83.4768340   5.8295580  30.0722560
  82.7548900   6.8474380  30.9293420  89.6735010   3.4021960  29.6372230
  88.9483200   3.9950740  29.4401620  90.2010470   3.3945500  28.8385600
  89.6248120   7.7996700  19.2884390  88.9824280   7.1452320  19.5628110
  89.2378780   8.2051790  18.5125060  85.2034600   5.1282130  23.1356080
  85.5558420   4.5310260  22.4757450  84.3196930   4.8026360  23.3064330
  81.2897880   5.8879820  20.5426490  81.9769010   6.4349030  20.9234080
  80.5030300   6.4320550  20.5776100  80.5925090   2.8925850  20.1551850
  81.0487870   3.7031100  20.3812040  80.2413300   2.5748990  20.9870340
  82.8957700   8.4032190  27.3844150  83.5399920   8.6091570  28.0617570
  83.2587140   7.6420590  26.9315000  84.1689780   6.4064540  26.1021600
  84.8112010   5.7057700  26.2153770  84.6939130   7.1862980  25.9218490
  88.0145500   6.6913160  15.8260740  87.7883080   5.9743600  16.4185380
  87.6241700   6.4425600  14.9882490  85.9427400   7.2059440  29.3057660
  86.2783640   7.7926130  29.9835580  85.0227740   7.0752150  29.5355450
  73.7961530  10.7180020  16.6005200  74.1559170  11.3169360  15.9462470
  73.6553870  11.2639910  17.3740230  87.5961750   4.6085100  17.4874900
  87.3083450   5.0697790  18.2752780  88.3913920   4.1482870  17.7559120
  73.7803390   8.9834880  31.0747600  73.8894510   8.0429620  30.9342990
  73.1283950   9.2489630  30.4261330  81.7715980   7.2550770  32.4745720
  81.4512850   6.5360010  33.0191410  81.0974340   7.9305840  32.5481780
  79.8130150   8.1011220  17.4178870  79.8040250   8.8340910  16.8023380
  78.8928510   7.8542800  17.5105830  75.4136790   3.3226110  18.1625630
  74.8064740   4.0625010  18.1720930  75.8886140   3.4125470  17.3363830
  82.7989750   8.1639460  16.0804060  82.9001730   7.9603450  15.1506040
  81.8991490   7.9097740  16.2851840  81.4407860  10.6825780  20.7751730
  81.6949360  10.6447170  19.8531100  80.4920340  10.5559110  20.7679980
  77.4242080   3.2837260  15.9114200  78.1905350   3.1718620  16.4739630
  77.5016770   2.5875230  15.2590970  89.4486020   8.7726510  24.0264500
  89.5733440   9.5957680  24.4988310  90.3151580   8.5617240  23.6788650
  76.9203550  10.8657720  23.6981630  77.6566030  10.3173180  23.9690200
  77.3044470  11.7313730  23.5587620  73.8049030   6.9331290  19.5723140
  72.8788810   7.1752430  19.5628550  74.2705460   7.7605550  19.4507890
  75.9261830  10.0503790  32.8867210  76.7274560  10.3715840  33.3002610
  75.4113650   9.6899370  33.6087120  80.0305860  10.0388030  15.5207200
  80.8234470  10.3276860  15.0688990  79.5110210   9.6080200  14.8419680
  84.7626460   6.1583660  32.8342620  84.1564620   6.1815260  32.0938370
  84.4580570   5.4266700  33.3709870  86.1926830   9.8863950  31.4452030
  87.1448580   9.8021970  31.3952270  86.0455050  10.5505660  32.1185820
  89.0836030   9.2658160  16.9443940  88.7977540   8.8523300  16.1298120
  88.8855580  10.1945870  16.8244460  73.6459640   2.5377250  31.8303260
  74.1498660   1.9584530  32.4019490  72.9067060   2.8217480  32.3679630
  80.5483260   5.2591440  15.3849550  80.4433900   4.6443790  16.1110930
  80.3807480   4.7357330  14.6012560  80.6997580   3.9448240  31.3638780
  79.9343250   4.5133240  31.2793450  80.8813540   3.6524450  30.4707010
  83.7885990   4.3211470  15.9891540  83.2396090   4.7680770  16.6334280
  84.4105250   3.8160720  16.5129210  87.8420930   5.6753570  31.9213800
  88.5830400   6.0129330  31.4181260  87.0793610   5.8445630  31.3683570
  79.4561110   3.2802390  17.8856840  79.8777530   3.1142260  18.7288230
  79.5811950   2.4702620  17.3911980  81.9688750   2.3040000  15.1333940
  82.4894410   1.5889020  14.7675090  82.6157150   2.9425870  15.4334450
  86.5166590   3.7268400  30.4569010  86.9307610   3.8813480  31.3059430
  85.5817590   3.8523620  30.6194790  81.2781820   3.6788880  28.4264940
  81.6969930   4.5221610  28.2541180  80.3590450   3.8160920  28.1971720
  85.9533620   1.9642250  28.3865290  85.4268840   2.4884870  27.7830430
  86.2964960   2.5969640  29.0175020  79.1289240   9.9841890  29.5422670
  78.5910330  10.7087950  29.2231370  79.3823200   9.5072230  28.7520010
  81.9851450  11.2193100  29.8009320  81.9110150  12.1228240  30.1081690
  81.0830290  10.9005000  29.7731390  82.5336780  10.3851610  17.4235680
  83.4287570  10.7236580  17.4454440  82.5654410   9.6631020  16.7959960
  76.1732940   5.7578660  15.6522680  76.6107810   6.3008330  16.3080260
  76.6580670   4.9325610  15.6619020  73.3878740   8.5467690  23.1042940
  73.7181750   7.6788750  22.8721580  73.8169740   8.7526210  23.9347900
  77.9840660   6.8776700  20.7644910  77.6836200   6.7541670  21.6648820
  77.8778150   6.0185290  20.3560640  73.8768950   9.4138280  25.8424570
  73.4399940   9.5939080  26.6748720  74.4446630  10.1712900  25.7006290
  89.5131130   8.9155280  30.1301880  88.9133120   8.9747840  29.3865800
  89.6425030   7.9760260  30.2598730  90.7532580   6.6573100  15.4671590
  89.9225540   6.7249750  15.9378820  90.9304410   7.5477220  15.1638450
  90.2089040   3.4020580  17.9705790  90.9707950   3.9717230  18.0765480
  90.2243410   2.8347780  18.7414100  73.7093380   1.9258510  22.2013450
  73.0542220   1.6570150  21.5573150  74.5471330   1.8162990  21.7515430
  91.2149010   4.2570680  22.8147720  91.5857840   3.4738000  22.4083690
  91.8550940   4.9459780  22.6365020  88.1982770   5.6407260  28.2278040
  87.3842610   6.0704420  28.4903830  88.6056970   6.2525670  27.6147090
  90.2608210   3.6954950  15.1278310  90.5357050   4.6033830  14.9997530
  90.0718950   3.6317480  16.0640300  74.7469310   2.3111080  26.7416790
  75.1142350   2.2238480  27.6212810  74.1780130   1.5477630  26.6423650
  88.2558820  10.3925860  21.7546310  88.8517890  10.0710430  21.0780730
  88.5136970   9.9197680  22.5459580  76.1621390   6.8243770  31.9036940
  76.1191020   6.4536680  32.7851400  76.2932400   7.7621340  32.0438760
  79.8627420   8.3803360  27.5046660  79.6218780   8.6477920  26.6177180
  80.8030060   8.5509090  27.5597520  91.1231580  10.3997740  28.3057300
  90.6289860  10.7966610  27.5884430  90.5144870   9.7746950  28.6994580
  76.0009420   9.7706020  29.0234720  75.4069740   9.6390720  29.7624760
  75.9933260   8.9344160  28.5576820  88.8071030  11.0421160  25.5844040
  88.3474000  11.7936970  25.2102060  88.1783490  10.3227630  25.5258840
  75.6321650   7.1364400  27.9742760  74.9055710   6.5169690  27.9068710
  75.6930800   7.5305010  27.1040840  79.2366750   9.3509400  24.7592170
  79.7531770   8.7396760  24.2340430  79.8864130   9.8538180  25.2503180
  81.9762250  10.2417890  25.5861150  82.2640060   9.9872190  24.7094160
  82.4885470   9.6895250  26.1766720  73.9151650  10.4538790  21.1839520
  73.7473690   9.8209470  21.8821410  73.0486160  10.6598190  20.8333710
  75.5214350   9.1472020  18.6289660  74.9961970   9.5280050  17.9251620
  75.4458930   9.7722790  19.3499370  82.0434610  11.1633990  32.9529350
  82.9701920  10.9278260  32.9965310  82.0285040  11.9905990  32.4715380
  90.2779670  10.7059560  19.9503600  90.4531860  10.0197300  19.3064520
  89.5801240  11.2306610  19.5580270  78.1207320  11.0954400  17.5038910
  78.8526140  10.8113680  16.9562800  78.3800990  10.8567680  18.3938290
  77.2822110   7.2119130  17.5085240  76.6530990   7.6804230  18.0571070
  77.3969940   6.3668350  17.9431430  88.6112170  10.3903850  32.7770390
  89.4037490   9.8953080  32.5696350  88.9045320  11.0693990  33.3846000
  82.8689870   3.0403810   5.5395710  82.0931970   2.5604250   5.8294280
  83.5202800   2.3609460   5.3651870  76.8855700   3.3523620   6.4171470
  76.0540580   3.0972330   6.8167980  77.4936680   3.4234390   7.1529390
  86.8897300   7.4464000   4.3194840  86.4278830   6.6751240   4.6482010
  87.7022850   7.4730070   4.8247290  76.8656960   7.3863710   6.6129490
  77.1685000   6.4961450   6.4339710  77.6100550   7.9433930   6.3851740
  83.1160610   9.7322010   3.9398830  82.4972050  10.1879510   3.3693270
  83.9712390   9.8873470   3.5388530  82.3098860   5.7161000   5.5465870
  82.2407140   4.7750940   5.3855000  83.0718720   5.8062410   6.1188440
  78.8455720   4.1437120   8.0114340  78.5125100   4.7706040   8.6535410
  79.0222400   4.6699000   7.2316010  78.0574820   6.1117920   9.8263520
  78.6748820   6.7869000   9.5447970  77.1967940   6.5205900   9.7351020
  88.9752410   7.5757330   7.7418160  88.2915930   8.2456440   7.7334830
  89.5146700   7.7737980   6.9763020  86.5111150   9.4201460   6.4563340
  86.5238310   9.0163750   5.5885600  85.9586370  10.1948750   6.3524770
  85.9096590   4.3231300   7.7845950  86.3265380   4.1091410   6.9499410
  86.6336410   4.5804090   8.3554570  89.8558690   2.7218520   7.8762190
  89.0277320   2.7911610   7.4012320  90.4509170   3.3072830   7.4078020
  78.9533490   2.2947740   3.6835730  78.5490490   1.5824990   3.1881630
  79.0396610   1.9500980   4.5723770  79.4215190   5.9815300   5.8474940
  79.1243480   5.3760770   5.1682720  80.3715010   6.0192610   5.7364300
  87.5100800   9.5547170   9.5098040  87.0331360  10.3619360   9.3170650
  86.8262590   8.9025500   9.6624250  78.5133620   5.7196990  12.4982740
  77.6162150   5.9436960  12.7456140  78.5386490   5.8431930  11.5494140
  77.3404840   2.5910310  11.0740110  77.2012610   3.4633110  11.4427510
  76.4586200   2.2483120  10.9288050  83.6634220   7.5086180   2.3805240
  84.1030130   8.2510510   1.9660630  83.6021110   7.7512750   3.3044200
  79.1385190   8.5332010  13.2825260  79.1100620   8.9374960  12.4153690
  78.9750160   7.6042370  13.1196860  91.0900010   9.3159110  14.5789430
  91.5659730   9.7942000  15.2578510  91.7107170   9.2476600  13.8534930
  73.2923490   4.3607860   6.9911020  73.3703910   4.4956630   6.0466740
  73.9065170   3.6523750   7.1839140  74.5371120   6.0608050   3.4017200
  74.1299200   6.2022640   2.5470800  75.4284130   5.7768210   3.1988410
  90.4933260   6.5071960  11.7389440  90.6196320   6.2683840  10.8206620
  90.5354640   5.6756500  12.2111520  84.3550000  10.2099960  10.3084250
  84.8694670  10.1207970  11.1106680  83.5119080  10.5559660  10.6012160
  85.5980460   9.6305570   2.3714740  86.0537410   8.8494950   2.6853360
  85.9372980  10.3412390   2.9155920  73.3483010   5.4022030   9.5305480
  73.5114050   4.9327390   8.7124850  73.8135460   4.8945590  10.1954320
  74.9221990   4.7773460  11.6901290  74.5376780   4.1367130  12.2884250
  75.2334180   5.4809580  12.2596020  88.1488270   3.8684990   5.8787360
  88.8687390   4.3640280   5.4883470  87.9470090   3.1902880   5.2341230
  83.5307070   3.9394050  11.7656360  83.4644380   3.0189720  11.5113950
  82.9012210   4.0369490  12.4801000  77.4337690   4.5400010   3.7239780
  77.9516360   3.7368270   3.6696670  76.9821710   4.4779150   4.5656610
  83.4623800   6.7614620  11.5160160  83.4768340   5.8295580  11.2979070
  82.7548900   6.8474380  12.1549930  89.6735010   3.4021960  10.8628740
  88.9483200   3.9950740  10.6658130  90.2010470   3.3945500  10.0642110
  85.2034600   5.1282130   4.3612590  85.5558420   4.5310260   3.7013960
  84.3196930   4.8026360   4.5320840  81.2897880   5.8879820   1.7683000
  81.9769010   6.4349030   2.1490590  80.5030300   6.4320550   1.8032610
  82.8957700   8.4032190   8.6100660  83.5399920   8.6091570   9.2874080
  83.2587140   7.6420590   8.1571510  84.1689780   6.4064540   7.3278110
  84.8112010   5.7057700   7.4410280  84.6939130   7.1862980   7.1475000
  85.9427400   7.2059440  10.5314170  86.2783640   7.7926130  11.2092090
  85.0227740   7.0752150  10.7611960  73.7803390   8.9834880  12.3004110
  73.8894510   8.0429620  12.1599500  73.1283950   9.2489630  11.6517840
  81.7715980   7.2550770  13.7002230  81.4512850   6.5360010  14.2447920
  81.0974340   7.9305840  13.7738290  89.4486020   8.7726510   5.2521010
  89.5733440   9.5957680   5.7244820  90.3151580   8.5617240   4.9045160
  76.9203550  10.8657720   4.9238140  77.6566030  10.3173180   5.1946710
  77.3044470  11.7313730   4.7844130  75.9261830  10.0503790  14.1123720
  76.7274560  10.3715840  14.5259120  75.4113650   9.6899370  14.8343630
  84.7626460   6.1583660  14.0599130  84.1564620   6.1815260  13.3194880
  84.4580570   5.4266700  14.5966380  86.1926830   9.8863950  12.6708540
  87.1448580   9.8021970  12.6208780  86.0455050  10.5505660  13.3442330
  73.6459640   2.5377250  13.0559770  74.1498660   1.9584530  13.6276000
  72.9067060   2.8217480  13.5936140  80.6997580   3.9448240  12.5895290
  79.9343250   4.5133240  12.5049960  80.8813540   3.6524450  11.6963520
  87.8420930   5.6753570  13.1470310  88.5830400   6.0129330  12.6437770
  87.0793610   5.8445630  12.5940080  86.5166590   3.7268400  11.6825520
  86.9307610   3.8813480  12.5315940  85.5817590   3.8523620  11.8451300
  81.2781820   3.6788880   9.6521450  81.6969930   4.5221610   9.4797690
  80.3590450   3.8160920   9.4228230  85.9533620   1.9642250   9.6121800
  85.4268840   2.4884870   9.0086940  86.2964960   2.5969640  10.2431530
  79.1289240   9.9841890  10.7679180  78.5910330  10.7087950  10.4487880
  79.3823200   9.5072230   9.9776520  81.9851450  11.2193100  11.0265830
  81.9110150  12.1228240  11.3338200  81.0830290  10.9005000  10.9987900
  73.3878740   8.5467690   4.3299450  73.7181750   7.6788750   4.0978090
  73.8169740   8.7526210   5.1604410  73.8768950   9.4138280   7.0681080
  73.4399940   9.5939080   7.9005230  74.4446630  10.1712900   6.9262800
  89.5131130   8.9155280  11.3558390  88.9133120   8.9747840  10.6122310
  89.6425030   7.9760260  11.4855240  73.7093380   1.9258510   3.4269960
  73.0542220   1.6570150   2.7829660  74.5471330   1.8162990   2.9771940
  91.2149010   4.2570680   4.0404230  91.5857840   3.4738000   3.6340200
  91.8550940   4.9459780   3.8621530  88.1982770   5.6407260   9.4534550
  87.3842610   6.0704420   9.7160340  88.6056970   6.2525670   8.8403600
  74.7469310   2.3111080   7.9673300  75.1142350   2.2238480   8.8469320
  74.1780130   1.5477630   7.8680160  88.2558820  10.3925860   2.9802820
  88.8517890  10.0710430   2.3037240  88.5136970   9.9197680   3.7716090
  76.1621390   6.8243770  13.1293450  76.1191020   6.4536680  14.0107910
  76.2932400   7.7621340  13.2695270  79.8627420   8.3803360   8.7303170
  79.6218780   8.6477920   7.8433690  80.8030060   8.5509090   8.7854030
  91.1231580  10.3997740   9.5313810  90.6289860  10.7966610   8.8140940
  90.5144870   9.7746950   9.9251090  76.0009420   9.7706020  10.2491230
  75.4069740   9.6390720  10.9881270  75.9933260   8.9344160   9.7833330
  88.8071030  11.0421160   6.8100550  88.3474000  11.7936970   6.4358570
  88.1783490  10.3227630   6.7515350  75.6321650   7.1364400   9.1999270
  74.9055710   6.5169690   9.1325220  75.6930800   7.5305010   8.3297350
  79.2366750   9.3509400   5.9848680  79.7531770   8.7396760   5.4596940
  79.8864130   9.8538180   6.4759690  81.9762250  10.2417890   6.8117660
  82.2640060   9.9872190   5.9350670  82.4885470   9.6895250   7.4023230
  73.9151650  10.4538790   2.4096030  73.7473690   9.8209470   3.1077920
  73.0486160  10.6598190   2.0590220  82.0434610  11.1633990  14.1785860
  82.9701920  10.9278260  14.2221820  82.0285040  11.9905990  13.6971890
  88.6112170  10.3903850  14.0026900  89.4037490   9.8953080  13.7952860
  88.9045320  11.0693990  14.6102510  65.9628340 113.9085730  97.5303890
  65.8822390 112.9940340  97.2595600  65.5492760 114.4052800  96.8243600
  56.5204160 110.9586450  94.0731310  55.6320860 111.3002420  93.9711190
  56.8045350 110.7586770  93.1812140  54.4837170 113.5592100  99.9571010
  55.0553280 112.7914300  99.9574650  54.4838710 113.8580860  99.0477620
  55.7262040 108.9676460 101.7439940  55.5464880 108.0702210 102.0242700
  55.3242120 109.5148330 102.4186890  64.5660540 111.1692320  99.6452250
  64.9425360 110.2964200  99.5325920  64.4680050 111.5051020  98.7542690
  58.6965550 109.5417950  95.1069690  58.8032300 110.4421680  95.4138450
  57.7857910 109.4935920  94.8164340  68.3484660 108.6642760  96.5780590
  69.1694280 108.1739330  96.6206070  68.3818740 109.2540420  97.3312430
  56.3448710 111.4636960 100.3522280  57.0258820 111.7275330 100.9709680
  56.0296760 110.6237830 100.6860290  60.5373280 112.5104320  99.4394870
  61.0451500 113.0085290 100.0799890  61.0686520 111.7339520  99.2634230
  68.5846140 110.6043140  99.3508130  67.8801710 110.8928030  99.9311240
  68.9458300 111.4143250  98.9907690  58.5024710 108.8612840 101.7128740
  58.8441520 109.7054890 101.4182610  57.5640520 109.0096580 101.8294080
  71.6533060 110.0497930  99.7417340  70.7057970 110.0836910  99.8732770
  71.9783050 110.8636880 100.1266700  62.1852600 106.3495110  98.0373330
  62.4927580 105.7942000  97.3208830  61.2553300 106.4839570  97.8546320
  64.5602440 110.6860940  91.7700610  63.6206110 110.8474900  91.8553070
  64.8785700 111.4046620  91.2236600  60.1790000 114.9408680  97.5553180
  59.7747000 114.2285930  97.0599080  60.2653120 114.5961920  98.4441220
  58.8918620 111.7151890 101.3352220  59.4433210 111.8247230 100.5605470
  59.4062130 112.0889490 102.0507450  70.3612490 106.4693860  90.5982490
  70.0485150 106.5620690  91.4981560  71.1224960 107.0474890  90.5479920
  56.8794630 113.8353660  95.0559830  56.7592230 114.5615750  94.4441100
  56.5695520 113.0656570  94.5787740  59.3458290 107.1788730  98.4383500
  58.9026440 107.9598270  98.1068020  59.9043280 107.5018620  99.1454440
  62.4617110 106.7999430  93.3189330  61.8371290 106.7959300  94.0442640
  62.3747230 105.9330390  92.9225300  61.3834190 107.7236060 100.2973100
  61.6806520 108.6298890 100.2165120  61.9319750 107.2354840  99.6832670
  59.1372510 112.3022300  96.1664750  58.9113430 112.0859470  97.0711370
  58.3565040 112.7350760  95.8210720  66.3670270 112.3085670  94.7655400
  65.7679160 113.0321470  94.5819020  66.9149880 112.2462450  93.9831850
  64.9735140 110.9449210  96.7958680  65.3664710 111.2621410  95.9827370
  65.3351990 110.0661090  96.9103200  54.0099310 107.5350010  99.0188880
  53.7212360 108.1052870  99.7313860  54.7545070 107.0554460  99.3820110
  54.1969540 111.4770130  90.2291600  54.1144210 112.4200890  90.3706590
  53.8452600 111.3345040  89.3503950  65.5590280 113.5354960 100.8909460
  64.8271400 114.0441770 101.2399560  65.1614620 112.7184940 100.5898240
  61.9967670 110.2109160  99.2961950  62.0003730 109.7699110  98.4466490
  62.8918790 110.5326490  99.4033770  57.8470050 110.0935650  98.2556160
  57.5070100 110.5710880  99.0123210  57.0847370 109.6400770  97.8957260
  62.0587820 111.2121240  92.2868710  62.1800640 111.1707720  93.2354530
  61.6736330 112.0745390  92.1315440  66.0216190 108.9888640 100.3032400
  66.0388930 109.4397290 101.1474250  65.7731770 108.0894280 100.5165840
  61.0709320 113.5222380  91.6852010  60.5026220 113.0740630  91.0587920
  61.7798320 113.8815160  91.1517160  62.2975640 114.2710940 101.0427360
  62.6645770 113.7969510 101.7888700  62.1080700 115.1452510 101.3835700
  55.1616130 109.0154630  97.1720830  54.8763050 108.6510300  98.0099450
  55.0994990 108.2835090  96.5583970  64.8354720 107.9083890  93.8934200
  64.0219330 107.4097060  93.8179510  64.6416670 108.7482140  93.4770550
  67.5503110 112.2803540  92.1896360  68.4382730 112.5920770  92.0147700
  67.5208200 111.4075790  91.7976940  69.8217380 113.5915380  91.6576220
  69.7381100 114.0229600  90.8072660  70.5411570 114.0513730  92.0903040
  54.6546790 114.1513580  91.1317530  55.5241640 114.4338380  91.4153450
  54.1637110 114.9649450  91.0166340  57.7193380 105.8824440  95.7248330
  57.5908010 105.8742340  96.6733250  56.8955400 106.2207530  95.3739340
  69.5788120 109.0894810  93.7444040  68.9501280 109.1940480  93.0302270
  69.0840040 109.3091590  94.5337920  61.5472150 111.3680760  95.1601920
  60.8388300 111.8367100  95.6015530  61.8316630 110.7102770  95.7947110
  65.5787580 108.0931420  96.5997710  65.4555360 108.1117550  95.6507220
  66.5272140 108.1410360  96.7196110  59.7507170 109.6765840  92.5352630
  60.5997700 110.1135990  92.4692820  59.3838440 109.9886100  93.3624690
  68.6716950 114.2478600  97.4484200  67.7307090 114.2628830  97.6231890
  68.9861020 113.4614560  97.8944500  57.3445350 113.3623270  91.6921050
  57.4248940 112.4150780  91.8038450  58.2365100 113.6930150  91.7981710
  59.5776520 111.9996560  89.9288960  59.3765580 111.1363920  90.2902300
  59.4068570 111.9129920  88.9910560  67.0564830 106.8104790  92.4575840
  67.3367120 105.9672690  92.8135260  66.2830560 107.0427900  92.9714590
  58.3759320 109.0997180  89.9166840  58.6785220 109.1064610  89.0085990
  59.1153910 108.7495040  90.4134500  61.5944250 108.0431800  90.9023040
  61.2466250 107.3655790  90.3225490  61.7957020 107.5821310  91.7166430
  54.9349890 114.5719450  97.2987410  54.2798730 114.3031090  96.6547110
  55.7727840 114.4623930  96.8489390  67.8840330 109.3660740  91.5205900
  68.3025210 109.1791720  90.6802560  67.5776390 108.5139790  91.8308830
  71.3830060 114.2784880  95.2181700  71.0073660 113.5112810  94.7862990
  70.6533180 114.6607580  95.7056630  55.9725820 114.9572020 101.8390750
  56.3398860 114.8699420 102.7186770  55.4036640 114.1938570 101.7397610
  54.1487970 111.7818380  93.2412740  53.2452050 112.0448580  93.0664400
  54.6328590 112.0529550  92.4612700  70.6581020 112.5042370  98.5188940
  71.1818500 112.0105020  97.8879110  71.2440440 112.6392730  99.2636510
  70.8370740 112.5882240 102.0408490  69.8873450 112.5545780 102.1553480
  71.0183750 113.4982350 101.8058260  56.6915180 110.8383920  91.1507120
  57.4006880 110.4167140  90.6654400  55.9755120 110.9059150  90.5190470
  56.3389340 106.8923250  90.1909770  57.0617470 107.4332190  90.5090990
  56.6113860 106.6186670  89.3151310  70.1480990 111.7615720  94.4581350
  70.6440110 111.5286590  95.2430230  69.9497060 110.9227560  94.0418990
  56.0281530 106.1429440 100.0932390  56.6757720 105.5926820  99.6527550
  56.4483370 106.3972590 100.9148200  71.5768150 110.3976670  96.9919030
  71.4667430 110.2432710  97.9301300  72.3375740 109.8697610  96.7494440
  72.4658420 108.2284590  90.2325170  73.3907730 108.0965770  90.0243460
  72.4434210 108.3077410  91.1861620  72.5396910 108.9995250  92.8581880
  71.7448410 108.9340370  93.3874790  72.7440190 109.9345890  92.8467230
  64.4195770 106.6269030 101.2631620  63.6367560 107.1014530 101.5428380
  64.1258700 105.7223860 101.1544800  68.9716840 107.3292130  99.3080710
  69.4124930 107.2737230  98.4602310  68.7024430 108.2450140  99.3790890
  70.8355410 106.9607370  97.3189530  70.7743810 106.0168590  97.1720550
  71.6147440 107.0687460  97.8642990  55.7636180 106.9316510  93.7845340
  56.5215540 107.0445390  93.2109370  55.3013350 107.7685710  93.7388770
  62.3049990 109.0455780  96.7747650  61.4924500 108.6712670  96.4343530
  62.8091630 108.2900860  97.0768840  66.8074970 105.7098230  98.0130720
  67.4104340 106.2818440  98.4879240  66.0667960 106.2737670  97.7904620
  69.9509570 106.1119790  93.2871000  70.1460200 107.0103240  93.5538430
  69.1639440 105.8806870  93.7803950  58.1361330 107.4580560  92.3247310
  58.6654090 106.6710360  92.1955260  58.7689650 108.1371750  92.5582840
  60.3299170 107.1955700  95.3792700  59.7001910 106.4943010  95.5462830
  59.7904310 107.9559830  95.1625860  65.9628340 113.9085730  78.7560400
  65.8822390 112.9940340  78.4852110  65.5492760 114.4052800  78.0500110
  56.5204160 110.9586450  75.2987820  55.6320860 111.3002420  75.1967700
  56.8045350 110.7586770  74.4068650  54.4837170 113.5592100  81.1827520
  55.0553280 112.7914300  81.1831160  54.4838710 113.8580860  80.2734130
  55.7262040 108.9676460  82.9696450  55.5464880 108.0702210  83.2499210
  55.3242120 109.5148330  83.6443400  64.5660540 111.1692320  80.8708760
  64.9425360 110.2964200  80.7582430  64.4680050 111.5051020  79.9799200
  58.6965550 109.5417950  76.3326200  58.8032300 110.4421680  76.6394960
  57.7857910 109.4935920  76.0420850  68.3484660 108.6642760  77.8037100
  69.1694280 108.1739330  77.8462580  68.3818740 109.2540420  78.5568940
  56.3448710 111.4636960  81.5778790  57.0258820 111.7275330  82.1966190
  56.0296760 110.6237830  81.9116800  60.5373280 112.5104320  80.6651380
  61.0451500 113.0085290  81.3056400  61.0686520 111.7339520  80.4890740
  72.6384210 110.6809510  84.3680730  71.9336380 111.0691220  83.8495840
  72.9042130 111.3759800  84.9701660  58.8209380 107.1502880  84.9314800
  58.8227820 107.6675270  84.1260700  57.9913690 106.6733060  84.9084730
  68.5846140 110.6043140  80.5764640  67.8801710 110.8928030  81.1567750
  68.9458300 111.4143250  80.2164200  58.5024710 108.8612840  82.9385250
  58.8441520 109.7054890  82.6439120  57.5640520 109.0096580  83.0550590
  71.6533060 110.0497930  80.9673850  70.7057970 110.0836910  81.0989280
  71.9783050 110.8636880  81.3523210  62.1852600 106.3495110  79.2629840
  62.4927580 105.7942000  78.5465340  61.2553300 106.4839570  79.0802830
  64.5602440 110.6860940  72.9957120  63.6206110 110.8474900  73.0809580
  64.8785700 111.4046620  72.4493110  68.0457210 112.1548780  83.9191020
  67.6328390 112.9802490  84.1731010  67.3133160 111.5693820  83.7267380
  60.1790000 114.9408680  78.7809690  59.7747000 114.2285930  78.2855590
  60.2653120 114.5961920  79.6697730  58.8918620 111.7151890  82.5608730
  59.4433210 111.8247230  81.7861980  59.4062130 112.0889490  83.2763960
  70.3612490 106.4693860  71.8239000  70.0485150 106.5620690  72.7238070
  71.1224960 107.0474890  71.7736430  56.8794630 113.8353660  76.2816340
  56.7592230 114.5615750  75.6697610  56.5695520 113.0656570  75.8044250
  71.5713780 111.2065360  87.8013140  70.9558050 111.7145030  87.2728600
  71.2510200 110.3063690  87.7439080  59.3458290 107.1788730  79.6640010
  58.9026440 107.9598270  79.3324530  59.9043280 107.5018620  80.3710950
  63.6328100 110.0457250  85.2675330  63.1707470 110.2540270  86.0795270
  63.2306210 109.2316600  84.9646000  68.6332610 111.2666200  86.3971990
  67.7826200 110.9671950  86.7181060  68.4734400 111.5108210  85.4855810
  65.7282320 112.7667950  88.4970780  66.0535730 111.9331700  88.1573010
  66.5162650 113.2896470  88.6449110  62.4617110 106.7999430  74.5445840
  61.8371290 106.7959300  75.2699150  62.3747230 105.9330390  74.1481810
  61.3834190 107.7236060  81.5229610  61.6806520 108.6298890  81.4421630
  61.9319750 107.2354840  80.9089180  59.1372510 112.3022300  77.3921260
  58.9113430 112.0859470  78.2967880  58.3565040 112.7350760  77.0467230
  66.3670270 112.3085670  75.9911910  65.7679160 113.0321470  75.8075530
  66.9149880 112.2462450  75.2088360  61.5771720 113.2007880  88.0581530
  61.4815320 112.2602610  87.9081930  62.4203700 113.4222950  87.6629600
  64.9735140 110.9449210  78.0215190  65.3664710 111.2621410  77.2083880
  65.3351990 110.0661090  78.1359710  56.7082260 109.6121550  86.2115310
  56.3145650 110.4596760  86.4188090  56.0200660 108.9747920  86.4023950
  63.2827310 109.6956520  89.2812050  62.5925630 109.5028720  89.9158140
  64.0259610 109.9791160  89.8136350  54.0099310 107.5350010  80.2445390
  53.7212360 108.1052870  80.9570370  54.7545070 107.0554460  80.6076620
  54.1969540 111.4770130  71.4548110  54.1144210 112.4200890  71.5963100
  53.8452600 111.3345040  70.5760460  65.5590280 113.5354960  82.1165970
  64.8271400 114.0441770  82.4656070  65.1614620 112.7184940  81.8154750
  61.9967670 110.2109160  80.5218460  62.0003730 109.7699110  79.6723000
  62.8918790 110.5326490  80.6290280  57.8470050 110.0935650  79.4812670
  57.5070100 110.5710880  80.2379720  57.0847370 109.6400770  79.1213770
  62.0587820 111.2121240  73.5125220  62.1800640 111.1707720  74.4611040
  61.6736330 112.0745390  73.3571950  66.0216190 108.9888640  81.5288910
  66.0388930 109.4397290  82.3730760  65.7731770 108.0894280  81.7422350
  61.0709320 113.5222380  72.9108520  60.5026220 113.0740630  72.2844430
  61.7798320 113.8815160  72.3773670  69.4486940 106.4020820  87.3675290
  69.7732710 105.6710480  87.8933270  69.4843450 106.0834460  86.4656280
  62.2975640 114.2710940  82.2683870  62.6645770 113.7969510  83.0145210
  62.1080700 115.1452510  82.6092210  55.1616130 109.0154630  78.3977340
  54.8763050 108.6510300  79.2355960  55.0994990 108.2835090  77.7840480
  60.0875010 113.3119580  84.5868080  59.7832080 114.1911560  84.8118440
  61.0421470 113.3719370  84.6225520  64.8354720 107.9083890  75.1190710
  64.0219330 107.4097060  75.0436020  64.6416670 108.7482140  74.7027060
  67.5503110 112.2803540  73.4152870  68.4382730 112.5920770  73.2404210
  67.5208200 111.4075790  73.0233450  56.1438740 114.1522320  85.7339440
  55.7853680 114.8176170  86.3212780  55.8493300 113.3205870  86.1052060
  59.3451860 114.6106560  88.6178990  59.0452000 114.7563740  87.7206810
  60.1163100 114.0511850  88.5252380  69.8217380 113.5915380  72.8832730
  69.7381100 114.0229600  72.0329170  70.5411570 114.0513730  73.3159550
  54.6546790 114.1513580  72.3574040  55.5241640 114.4338380  72.6409960
  54.1637110 114.9649450  72.2422850  57.7193380 105.8824440  76.9504840
  57.5908010 105.8742340  77.8989760  56.8955400 106.2207530  76.5995850
  54.7187310 107.6415560  86.4111540  54.0045830 107.8412480  87.0164150
  55.1382350 106.8655130  86.7826340  66.2126090 110.1337870  84.1612990
  66.5806910 109.3133080  84.4892560  65.3524290 110.1939760  84.5768640
  69.5788120 109.0894810  74.9700550  68.9501280 109.1940480  74.2558780
  69.0840040 109.3091590  75.7594430  61.5472150 111.3680760  76.3858430
  60.8388300 111.8367100  76.8272040  61.8316630 110.7102770  77.0203620
  63.1728080 112.7877460  84.3850960  63.6713330 113.2623280  85.0502810
  63.3151030 111.8640980  84.5920990  65.5787580 108.0931420  77.8254220
  65.4555360 108.1117550  76.8763730  66.5272140 108.1410360  77.9452620
  59.7507170 109.6765840  73.7609140  60.5997700 110.1135990  73.6949330
  59.3838440 109.9886100  74.5881200  70.3794940 109.0045420  85.2279350
  69.8768540 109.7450820  85.5673160  71.1951600 109.3929420  84.9116140
  68.6716950 114.2478600  78.6740710  67.7307090 114.2628830  78.8488400
  68.9861020 113.4614560  79.1201010  57.3445350 113.3623270  72.9177560
  57.4248940 112.4150780  73.0294960  58.2365100 113.6930150  73.0238220
  56.9039230 113.3267780  89.0483800  56.9444570 113.0281650  89.9569030
  57.7584730 113.7275390  88.8891320  58.8445040 111.9059880  87.0158290
  58.3141500 111.4150830  86.3881630  59.5133110 112.3344080  86.4816220
  68.2145270 113.7125500  88.7838630  68.7966040 112.9577820  88.6959110
  68.3907040 114.2432940  88.0070110  59.3317340 108.8722250  87.0955580
  59.2374210 108.2543000  86.3706450  58.7514730 109.5988540  86.8685490
  62.0978780 107.4295490  84.1282970  61.6496080 107.4519750  83.2828520
  61.4643980 107.0314510  84.7253270  64.8402230 114.0566000  86.1333250
  64.9598440 113.4607140  86.8728090  65.6996230 114.0935690  85.7134550
  59.5776520 111.9996560  71.1545470  59.3765580 111.1363920  71.5158810
  59.4068570 111.9129920  70.2167070  61.6071000 110.5987350  87.3909070
  62.1970690 110.2903200  88.0786890  60.7891240 110.1267100  87.5468970
  66.4264430 110.2153160  87.6242090  65.7379950 109.5534700  87.5592080
  67.1470450 109.7691430  88.0690550  67.0564830 106.8104790  73.6832350
  67.3367120 105.9672690  74.0391770  66.2830560 107.0427900  74.1971100
  58.3759320 109.0997180  71.1423350  58.6785220 109.1064610  70.2342500
  59.1153910 108.7495040  71.6391010  61.5944250 108.0431800  72.1279550
  61.2466250 107.3655790  71.5482000  61.7957020 107.5821310  72.9422940
  54.9349890 114.5719450  78.5243920  54.2798730 114.3031090  77.8803620
  55.7727840 114.4623930  78.0745900  67.8840330 109.3660740  72.7462410
  68.3025210 109.1791720  71.9059070  67.5776390 108.5139790  73.0565340
  71.3830060 114.2784880  76.4438210  71.0073660 113.5112810  76.0119500
  70.6533180 114.6607580  76.9313140  55.9725820 114.9572020  83.0647260
  56.3398860 114.8699420  83.9443280  55.4036640 114.1938570  82.9654120
  70.7729680 113.4256400  86.0777730  70.5415770 113.1969150  85.1775680
  71.0334230 114.3455950  86.0322620  55.5241820 111.8681110  86.9705680
  54.6297870 111.8347870  87.3099390  56.0639370 112.0667900  87.7356930
  69.2117750 108.6512830  88.8557430  70.0887930 108.6596230  89.2391430
  69.2238590 107.9143670  88.2449780  54.1487970 111.7818380  74.4669250
  53.2452050 112.0448580  74.2920910  54.6328590 112.0529550  73.6869210
  70.6581020 112.5042370  79.7445450  71.1818500 112.0105020  79.1135620
  71.2440440 112.6392730  80.4893020  70.8370740 112.5882240  83.2665000
  69.8873450 112.5545780  83.3809990  71.0183750 113.4982350  83.0314770
  56.6915180 110.8383920  72.3763630  57.4006880 110.4167140  71.8910910
  55.9755120 110.9059150  71.7446980  56.3389340 106.8923250  71.4166280
  57.0617470 107.4332190  71.7347500  56.6113860 106.6186670  70.5407820
  70.1480990 111.7615720  75.6837860  70.6440110 111.5286590  76.4686740
  69.9497060 110.9227560  75.2675500  56.0281530 106.1429440  81.3188900
  56.6757720 105.5926820  80.8784060  56.4483370 106.3972590  82.1404710
  71.5768150 110.3976670  78.2175540  71.4667430 110.2432710  79.1557810
  72.3375740 109.8697610  77.9750950  69.9233870 106.3370800  84.6758540
  70.5606090 106.9504940  85.0417730  70.0708760 106.3731460  83.7307770
  72.4658420 108.2284590  71.4581680  73.3907730 108.0965770  71.2499970
  72.4434210 108.3077410  72.4118130  72.5396910 108.9995250  74.0838390
  71.7448410 108.9340370  74.6131300  72.7440190 109.9345890  74.0723740
  55.7813530 106.2985110  84.0614220  55.4328350 106.7548930  84.8272400
  55.4501230 105.4042240  84.1436650  63.2938350 107.4896990  87.5833640
  63.2327240 108.0818820  88.3329050  64.2338730 107.3822950  87.4383900
  65.9312910 107.1467050  87.2225930  66.5453320 107.4646340  86.5607010
  66.4762470 106.6615640  87.8421790  56.4534170 105.8261310  87.3364990
  57.0017160 105.6449360  86.5731100  56.5189480 105.0355420  87.8721300
  66.6720950 105.7099190  83.5495220  65.7980790 106.0434300  83.3468150
  66.5631700 105.2372370  84.3747090  67.5792930 107.9170060  84.9336940
  67.2506290 107.1021820  84.5538670  68.5275230 107.8739870  84.8102630
  64.4195770 106.6269030  82.4888130  63.6367560 107.1014530  82.7684890
  64.1258700 105.7223860  82.3801310  68.9716840 107.3292130  80.5337220
  69.4124930 107.2737230  79.6858820  68.7024430 108.2450140  80.6047400
  70.8355410 106.9607370  78.5446040  70.7743810 106.0168590  78.3977060
  71.6147440 107.0687460  79.0899500  55.7636180 106.9316510  75.0101850
  56.5215540 107.0445390  74.4365880  55.3013350 107.7685710  74.9645280
  62.3049990 109.0455780  78.0004160  61.4924500 108.6712670  77.6600040
  62.8091630 108.2900860  78.3025350  66.8074970 105.7098230  79.2387230
  67.4104340 106.2818440  79.7135750  66.0667960 106.2737670  79.0161130
  69.9509570 106.1119790  74.5127510  70.1460200 107.0103240  74.7794940
  69.1639440 105.8806870  75.0060460  58.1361330 107.4580560  73.5503820
  58.6654090 106.6710360  73.4211770  58.7689650 108.1371750  73.7839350
  60.3299170 107.1955700  76.6049210  59.7001910 106.4943010  76.7719340
  59.7904310 107.9559830  76.3882370  60.4554730 106.4739680  89.0401700
  60.1739000 106.9773280  88.2762520  60.8374430 105.6761430  88.6743830
  67.0570190 105.8893260  89.6182170  66.9435640 106.2087870  90.5133690
  67.8739930 106.2905770  89.3219450  65.9628340 113.9085730  59.9816910
  65.8822390 112.9940340  59.7108620  65.5492760 114.4052800  59.2756620
  56.5204160 110.9586450  56.5244330  55.6320860 111.3002420  56.4224210
  56.8045350 110.7586770  55.6325160  54.4837170 113.5592100  62.4084030
  55.0553280 112.7914300  62.4087670  54.4838710 113.8580860  61.4990640
  55.7262040 108.9676460  64.1952960  55.5464880 108.0702210  64.4755720
  55.3242120 109.5148330  64.8699910  64.5660540 111.1692320  62.0965270
  64.9425360 110.2964200  61.9838940  64.4680050 111.5051020  61.2055710
  58.6965550 109.5417950  57.5582710  58.8032300 110.4421680  57.8651470
  57.7857910 109.4935920  57.2677360  68.3484660 108.6642760  59.0293610
  69.1694280 108.1739330  59.0719090  68.3818740 109.2540420  59.7825450
  56.3448710 111.4636960  62.8035300  57.0258820 111.7275330  63.4222700
  56.0296760 110.6237830  63.1373310  60.5373280 112.5104320  61.8907890
  61.0451500 113.0085290  62.5312910  61.0686520 111.7339520  61.7147250
  72.6384210 110.6809510  65.5937240  71.9336380 111.0691220  65.0752350
  72.9042130 111.3759800  66.1958170  58.8209380 107.1502880  66.1571310
  58.8227820 107.6675270  65.3517210  57.9913690 106.6733060  66.1341240
  68.5846140 110.6043140  61.8021150  67.8801710 110.8928030  62.3824260
  68.9458300 111.4143250  61.4420710  58.5024710 108.8612840  64.1641760
  58.8441520 109.7054890  63.8695630  57.5640520 109.0096580  64.2807100
  71.6533060 110.0497930  62.1930360  70.7057970 110.0836910  62.3245790
  71.9783050 110.8636880  62.5779720  62.1852600 106.3495110  60.4886350
  62.4927580 105.7942000  59.7721850  61.2553300 106.4839570  60.3059340
  64.5602440 110.6860940  54.2213630  63.6206110 110.8474900  54.3066090
  64.8785700 111.4046620  53.6749620  68.0457210 112.1548780  65.1447530
  67.6328390 112.9802490  65.3987520  67.3133160 111.5693820  64.9523890
  60.1790000 114.9408680  60.0066200  59.7747000 114.2285930  59.5112100
  60.2653120 114.5961920  60.8954240  58.8918620 111.7151890  63.7865240
  59.4433210 111.8247230  63.0118490  59.4062130 112.0889490  64.5020470
  70.3612490 106.4693860  53.0495510  70.0485150 106.5620690  53.9494580
  71.1224960 107.0474890  52.9992940  56.8794630 113.8353660  57.5072850
  56.7592230 114.5615750  56.8954120  56.5695520 113.0656570  57.0300760
  71.5713780 111.2065360  69.0269650  70.9558050 111.7145030  68.4985110
  71.2510200 110.3063690  68.9695590  59.3458290 107.1788730  60.8896520
  58.9026440 107.9598270  60.5581040  59.9043280 107.5018620  61.5967460
  63.6328100 110.0457250  66.4931840  63.1707470 110.2540270  67.3051780
  63.2306210 109.2316600  66.1902510  68.6332610 111.2666200  67.6228500
  67.7826200 110.9671950  67.9437570  68.4734400 111.5108210  66.7112320
  65.7282320 112.7667950  69.7227290  66.0535730 111.9331700  69.3829520
  66.5162650 113.2896470  69.8705620  62.4617110 106.7999430  55.7702350
  61.8371290 106.7959300  56.4955660  62.3747230 105.9330390  55.3738320
  61.3834190 107.7236060  62.7486120  61.6806520 108.6298890  62.6678140
  61.9319750 107.2354840  62.1345690  59.1372510 112.3022300  58.6177770
  58.9113430 112.0859470  59.5224390  58.3565040 112.7350760  58.2723740
  66.3670270 112.3085670  57.2168420  65.7679160 113.0321470  57.0332040
  66.9149880 112.2462450  56.4344870  61.5771720 113.2007880  69.2838040
  61.4815320 112.2602610  69.1338440  62.4203700 113.4222950  68.8886110
  64.9735140 110.9449210  59.2471700  65.3664710 111.2621410  58.4340390
  65.3351990 110.0661090  59.3616220  56.7082260 109.6121550  67.4371820
  56.3145650 110.4596760  67.6444600  56.0200660 108.9747920  67.6280460
  63.2827310 109.6956520  70.5068560  62.5925630 109.5028720  71.1414650
  64.0259610 109.9791160  71.0392860  54.0099310 107.5350010  61.4701900
  53.7212360 108.1052870  62.1826880  54.7545070 107.0554460  61.8333130
  54.1969540 111.4770130  52.6804620  54.1144210 112.4200890  52.8219610
  53.8452600 111.3345040  51.8016970  65.5590280 113.5354960  63.3422480
  64.8271400 114.0441770  63.6912580  65.1614620 112.7184940  63.0411260
  61.9967670 110.2109160  61.7474970  62.0003730 109.7699110  60.8979510
  62.8918790 110.5326490  61.8546790  57.8470050 110.0935650  60.7069180
  57.5070100 110.5710880  61.4636230  57.0847370 109.6400770  60.3470280
  62.0587820 111.2121240  54.7381730  62.1800640 111.1707720  55.6867550
  61.6736330 112.0745390  54.5828460  66.0216190 108.9888640  62.7545420
  66.0388930 109.4397290  63.5987270  65.7731770 108.0894280  62.9678860
  61.0709320 113.5222380  54.1365030  60.5026220 113.0740630  53.5100940
  61.7798320 113.8815160  53.6030180  69.4486940 106.4020820  68.5931800
  69.7732710 105.6710480  69.1189780  69.4843450 106.0834460  67.6912790
  62.2975640 114.2710940  63.4940380  62.6645770 113.7969510  64.2401720
  62.1080700 115.1452510  63.8348720  55.1616130 109.0154630  59.6233850
  54.8763050 108.6510300  60.4612470  55.0994990 108.2835090  59.0096990
  60.0875010 113.3119580  65.8124590  59.7832080 114.1911560  66.0374950
  61.0421470 113.3719370  65.8482030  64.8354720 107.9083890  56.3447220
  64.0219330 107.4097060  56.2692530  64.6416670 108.7482140  55.9283570
  67.5503110 112.2803540  54.6409380  68.4382730 112.5920770  54.4660720
  67.5208200 111.4075790  54.2489960  56.1438740 114.1522320  66.9595950
  55.7853680 114.8176170  67.5469290  55.8493300 113.3205870  67.3308570
  59.3451860 114.6106560  69.8435500  59.0452000 114.7563740  68.9463320
  60.1163100 114.0511850  69.7508890  69.8217380 113.5915380  54.1089240
  69.7381100 114.0229600  53.2585680  70.5411570 114.0513730  54.5416060
  54.6546790 114.1513580  53.5830550  55.5241640 114.4338380  53.8666470
  54.1637110 114.9649450  53.4679360  57.7193380 105.8824440  58.1761350
  57.5908010 105.8742340  59.1246270  56.8955400 106.2207530  57.8252360
  54.7187310 107.6415560  67.6368050  54.0045830 107.8412480  68.2420660
  55.1382350 106.8655130  68.0082850  66.2126090 110.1337870  65.3869500
  66.5806910 109.3133080  65.7149070  65.3524290 110.1939760  65.8025150
  69.5788120 109.0894810  56.1957060  68.9501280 109.1940480  55.4815290
  69.0840040 109.3091590  56.9850940  61.5472150 111.3680760  57.6114940
  60.8388300 111.8367100  58.0528550  61.8316630 110.7102770  58.2460130
  63.1728080 112.7877460  65.6107470  63.6713330 113.2623280  66.2759320
  63.3151030 111.8640980  65.8177500  65.5787580 108.0931420  59.0510730
  65.4555360 108.1117550  58.1020240  66.5272140 108.1410360  59.1709130
  59.7507170 109.6765840  54.9865650  60.5997700 110.1135990  54.9205840
  59.3838440 109.9886100  55.8137710  70.3794940 109.0045420  66.4535860
  69.8768540 109.7450820  66.7929670  71.1951600 109.3929420  66.1372650
  68.6716950 114.2478600  59.8997220  67.7307090 114.2628830  60.0744910
  68.9861020 113.4614560  60.3457520  57.3445350 113.3623270  54.1434070
  57.4248940 112.4150780  54.2551470  58.2365100 113.6930150  54.2494730
  56.9039230 113.3267780  70.2740310  56.9444570 113.0281650  71.1825540
  57.7584730 113.7275390  70.1147830  58.8445040 111.9059880  68.2414800
  58.3141500 111.4150830  67.6138140  59.5133110 112.3344080  67.7072730
  68.2145270 113.7125500  70.0095140  68.7966040 112.9577820  69.9215620
  68.3907040 114.2432940  69.2326620  59.3317340 108.8722250  68.3212090
  59.2374210 108.2543000  67.5962960  58.7514730 109.5988540  68.0942000
  62.0978780 107.4295490  65.3539480  61.6496080 107.4519750  64.5085030
  61.4643980 107.0314510  65.9509780  64.8402230 114.0566000  67.3589760
  64.9598440 113.4607140  68.0984600  65.6996230 114.0935690  66.9391060
  59.5776520 111.9996560  52.3801980  59.3765580 111.1363920  52.7415320
  59.4068570 111.9129920  51.4423580  61.6071000 110.5987350  68.6165580
  62.1970690 110.2903200  69.3043400  60.7891240 110.1267100  68.7725480
  66.4264430 110.2153160  68.8498600  65.7379950 109.5534700  68.7848590
  67.1470450 109.7691430  69.2947060  67.0564830 106.8104790  54.9088860
  67.3367120 105.9672690  55.2648280  66.2830560 107.0427900  55.4227610
  58.3759320 109.0997180  52.3679860  58.6785220 109.1064610  51.4599010
  59.1153910 108.7495040  52.8647520  61.5944250 108.0431800  53.3536060
  61.2466250 107.3655790  52.7738510  61.7957020 107.5821310  54.1679450
  54.9349890 114.5719450  59.7500430  54.2798730 114.3031090  59.1060130
  55.7727840 114.4623930  59.3002410  67.8840330 109.3660740  53.9718920
  68.3025210 109.1791720  53.1315580  67.5776390 108.5139790  54.2821850
  71.3830060 114.2784880  57.6694720  71.0073660 113.5112810  57.2376010
  70.6533180 114.6607580  58.1569650  55.9725820 114.9572020  64.2903770
  56.3398860 114.8699420  65.1699790  55.4036640 114.1938570  64.1910630
  70.7729680 113.4256400  67.3034240  70.5415770 113.1969150  66.4032190
  71.0334230 114.3455950  67.2579130  55.5241820 111.8681110  68.1962190
  54.6297870 111.8347870  68.5355900  56.0639370 112.0667900  68.9613440
  69.2117750 108.6512830  70.0813940  70.0887930 108.6596230  70.4647940
  69.2238590 107.9143670  69.4706290  54.1487970 111.7818380  55.6925760
  53.2452050 112.0448580  55.5177420  54.6328590 112.0529550  54.9125720
  70.6581020 112.5042370  60.9701960  71.1818500 112.0105020  60.3392130
  71.2440440 112.6392730  61.7149530  70.8370740 112.5882240  64.4921510
  69.8873450 112.5545780  64.6066500  71.0183750 113.4982350  64.2571280
  56.6915180 110.8383920  53.6020140  57.4006880 110.4167140  53.1167420
  55.9755120 110.9059150  52.9703490  56.3389340 106.8923250  52.6422790
  57.0617470 107.4332190  52.9604010  56.6113860 106.6186670  51.7664330
  70.1480990 111.7615720  56.9094370  70.6440110 111.5286590  57.6943250
  69.9497060 110.9227560  56.4932010  56.0281530 106.1429440  62.5445410
  56.6757720 105.5926820  62.1040570  56.4483370 106.3972590  63.3661220
  71.5768150 110.3976670  59.4432050  71.4667430 110.2432710  60.3814320
  72.3375740 109.8697610  59.2007460  69.9233870 106.3370800  65.9015050
  70.5606090 106.9504940  66.2674240  70.0708760 106.3731460  64.9564280
  72.4658420 108.2284590  52.6838190  73.3907730 108.0965770  52.4756480
  72.4434210 108.3077410  53.6374640  72.5396910 108.9995250  55.3094900
  71.7448410 108.9340370  55.8387810  72.7440190 109.9345890  55.2980250
  55.7813530 106.2985110  65.2870730  55.4328350 106.7548930  66.0528910
  55.4501230 105.4042240  65.3693160  63.2938350 107.4896990  68.8090150
  63.2327240 108.0818820  69.5585560  64.2338730 107.3822950  68.6640410
  65.9312910 107.1467050  68.4482440  66.5453320 107.4646340  67.7863520
  66.4762470 106.6615640  69.0678300  56.4534170 105.8261310  68.5621500
  57.0017160 105.6449360  67.7987610  56.5189480 105.0355420  69.0977810
  66.6720950 105.7099190  64.7751730  65.7980790 106.0434300  64.5724660
  66.5631700 105.2372370  65.6003600  67.5792930 107.9170060  66.1593450
  67.2506290 107.1021820  65.7795180  68.5275230 107.8739870  66.0359140
  64.4195770 106.6269030  63.7144640  63.6367560 107.1014530  63.9941400
  64.1258700 105.7223860  63.6057820  68.9716840 107.3292130  61.7593730
  69.4124930 107.2737230  60.9115330  68.7024430 108.2450140  61.8303910
  70.8355410 106.9607370  59.7702550  70.7743810 106.0168590  59.6233570
  71.6147440 107.0687460  60.3156010  55.7636180 106.9316510  56.2358360
  56.5215540 107.0445390  55.6622390  55.3013350 107.7685710  56.1901790
  62.3049990 109.0455780  59.2260670  61.4924500 108.6712670  58.8856550
  62.8091630 108.2900860  59.5281860  66.8074970 105.7098230  60.4643740
  67.4104340 106.2818440  60.9392260  66.0667960 106.2737670  60.2417640
  69.9509570 106.1119790  55.7384020  70.1460200 107.0103240  56.0051450
  69.1639440 105.8806870  56.2316970  58.1361330 107.4580560  54.7760330
  58.6654090 106.6710360  54.6468280  58.7689650 108.1371750  55.0095860
  60.3299170 107.1955700  57.8305720  59.7001910 106.4943010  57.9975850
  59.7904310 107.9559830  57.6138880  60.4554730 106.4739680  70.2658210
  60.1739000 106.9773280  69.5019030  60.8374430 105.6761430  69.9000340
  67.0570190 105.8893260  70.8438680  66.9435640 106.2087870  71.7390200
  67.8739930 106.2905770  70.5475960  65.9628340 113.9085730  41.2073420
  65.8822390 112.9940340  40.9365130  65.5492760 114.4052800  40.5013130
  56.5204160 110.9586450  37.7500840  55.6320860 111.3002420  37.6480720
  56.8045350 110.7586770  36.8581670  54.4837170 113.5592100  43.6340540
  55.0553280 112.7914300  43.6344180  54.4838710 113.8580860  42.7247150
  55.7262040 108.9676460  45.4209470  55.5464880 108.0702210  45.7012230
  55.3242120 109.5148330  46.0956420  64.5660540 111.1692320  43.3221780
  64.9425360 110.2964200  43.2095450  64.4680050 111.5051020  42.4312220
  58.6965550 109.5417950  38.7839220  58.8032300 110.4421680  39.0907980
  57.7857910 109.4935920  38.4933870  68.3484660 108.6642760  40.2550120
  69.1694280 108.1739330  40.2975600  68.3818740 109.2540420  41.0081960
  56.3448710 111.4636960  44.0291810  57.0258820 111.7275330  44.6479210
  56.0296760 110.6237830  44.3629820  60.5373280 112.5104320  43.1164400
  61.0451500 113.0085290  43.7569420  61.0686520 111.7339520  42.9403760
  72.6384210 110.6809510  46.8193750  71.9336380 111.0691220  46.3008860
  72.9042130 111.3759800  47.4214680  58.8209380 107.1502880  47.3827820
  58.8227820 107.6675270  46.5773720  57.9913690 106.6733060  47.3597750
  68.5846140 110.6043140  43.0277660  67.8801710 110.8928030  43.6080770
  68.9458300 111.4143250  42.6677220  58.5024710 108.8612840  45.3898270
  58.8441520 109.7054890  45.0952140  57.5640520 109.0096580  45.5063610
  71.6533060 110.0497930  43.4186870  70.7057970 110.0836910  43.5502300
  71.9783050 110.8636880  43.8036230  62.1852600 106.3495110  41.7142860
  62.4927580 105.7942000  40.9978360  61.2553300 106.4839570  41.5315850
  64.5602440 110.6860940  35.4470140  63.6206110 110.8474900  35.5322600
  64.8785700 111.4046620  34.9006130  68.0457210 112.1548780  46.3704040
  67.6328390 112.9802490  46.6244030  67.3133160 111.5693820  46.1780400
  60.1790000 114.9408680  41.2322710  59.7747000 114.2285930  40.7368610
  60.2653120 114.5961920  42.1210750  58.8918620 111.7151890  45.0121750
  59.4433210 111.8247230  44.2375000  59.4062130 112.0889490  45.7276980
  70.3612490 106.4693860  34.2752020  70.0485150 106.5620690  35.1751090
  71.1224960 107.0474890  34.2249450  56.8794630 113.8353660  38.7329360
  56.7592230 114.5615750  38.1210630  56.5695520 113.0656570  38.2557270
  71.5713780 111.2065360  50.2526160  70.9558050 111.7145030  49.7241620
  71.2510200 110.3063690  50.1952100  59.3458290 107.1788730  42.1153030
  58.9026440 107.9598270  41.7837550  59.9043280 107.5018620  42.8223970
  63.6328100 110.0457250  47.7188350  63.1707470 110.2540270  48.5308290
  63.2306210 109.2316600  47.4159020  68.6332610 111.2666200  48.8485010
  67.7826200 110.9671950  49.1694080  68.4734400 111.5108210  47.9368830
  65.7282320 112.7667950  50.9483800  66.0535730 111.9331700  50.6086030
  66.5162650 113.2896470  51.0962130  62.4617110 106.7999430  36.9958860
  61.8371290 106.7959300  37.7212170  62.3747230 105.9330390  36.5994830
  61.3834190 107.7236060  43.9742630  61.6806520 108.6298890  43.8934650
  61.9319750 107.2354840  43.3602200  59.1372510 112.3022300  39.8434280
  58.9113430 112.0859470  40.7480900  58.3565040 112.7350760  39.4980250
  66.3670270 112.3085670  38.4424930  65.7679160 113.0321470  38.2588550
  66.9149880 112.2462450  37.6601380  61.5771720 113.2007880  50.5094550
  61.4815320 112.2602610  50.3594950  62.4203700 113.4222950  50.1142620
  64.9735140 110.9449210  40.4728210  65.3664710 111.2621410  39.6596900
  65.3351990 110.0661090  40.5872730  56.7082260 109.6121550  48.6628330
  56.3145650 110.4596760  48.8701110  56.0200660 108.9747920  48.8536970
  63.2827310 109.6956520  51.7325070  62.5925630 109.5028720  52.3671160
  64.0259610 109.9791160  52.2649370  54.0099310 107.5350010  42.6958410
  53.7212360 108.1052870  43.4083390  54.7545070 107.0554460  43.0589640
  54.1969540 111.4770130  33.9061130  54.1144210 112.4200890  34.0476120
  53.8452600 111.3345040  33.0273480  65.5590280 113.5354960  44.5678990
  64.8271400 114.0441770  44.9169090  65.1614620 112.7184940  44.2667770
  61.9967670 110.2109160  42.9731480  62.0003730 109.7699110  42.1236020
  62.8918790 110.5326490  43.0803300  57.8470050 110.0935650  41.9325690
  57.5070100 110.5710880  42.6892740  57.0847370 109.6400770  41.5726790
  62.0587820 111.2121240  35.9638240  62.1800640 111.1707720  36.9124060
  61.6736330 112.0745390  35.8084970  66.0216190 108.9888640  43.9801930
  66.0388930 109.4397290  44.8243780  65.7731770 108.0894280  44.1935370
  61.0709320 113.5222380  35.3621540  60.5026220 113.0740630  34.7357450
  61.7798320 113.8815160  34.8286690  69.4486940 106.4020820  49.8188310
  69.7732710 105.6710480  50.3446290  69.4843450 106.0834460  48.9169300
  62.2975640 114.2710940  44.7196890  62.6645770 113.7969510  45.4658230
  62.1080700 115.1452510  45.0605230  55.1616130 109.0154630  40.8490360
  54.8763050 108.6510300  41.6868980  55.0994990 108.2835090  40.2353500
  60.0875010 113.3119580  47.0381100  59.7832080 114.1911560  47.2631460
  61.0421470 113.3719370  47.0738540  64.8354720 107.9083890  37.5703730
  64.0219330 107.4097060  37.4949040  64.6416670 108.7482140  37.1540080
  67.5503110 112.2803540  35.8665890  68.4382730 112.5920770  35.6917230
  67.5208200 111.4075790  35.4746470  56.1438740 114.1522320  48.1852460
  55.7853680 114.8176170  48.7725800  55.8493300 113.3205870  48.5565080
  59.3451860 114.6106560  51.0692010  59.0452000 114.7563740  50.1719830
  60.1163100 114.0511850  50.9765400  69.8217380 113.5915380  35.3345750
  69.7381100 114.0229600  34.4842190  70.5411570 114.0513730  35.7672570
  54.6546790 114.1513580  34.8087060  55.5241640 114.4338380  35.0922980
  54.1637110 114.9649450  34.6935870  57.7193380 105.8824440  39.4017860
  57.5908010 105.8742340  40.3502780  56.8955400 106.2207530  39.0508870
  54.7187310 107.6415560  48.8624560  54.0045830 107.8412480  49.4677170
  55.1382350 106.8655130  49.2339360  66.2126090 110.1337870  46.6126010
  66.5806910 109.3133080  46.9405580  65.3524290 110.1939760  47.0281660
  69.5788120 109.0894810  37.4213570  68.9501280 109.1940480  36.7071800
  69.0840040 109.3091590  38.2107450  61.5472150 111.3680760  38.8371450
  60.8388300 111.8367100  39.2785060  61.8316630 110.7102770  39.4716640
  63.1728080 112.7877460  46.8363980  63.6713330 113.2623280  47.5015830
  63.3151030 111.8640980  47.0434010  65.5787580 108.0931420  40.2767240
  65.4555360 108.1117550  39.3276750  66.5272140 108.1410360  40.3965640
  59.7507170 109.6765840  36.2122160  60.5997700 110.1135990  36.1462350
  59.3838440 109.9886100  37.0394220  70.3794940 109.0045420  47.6792370
  69.8768540 109.7450820  48.0186180  71.1951600 109.3929420  47.3629160
  68.6716950 114.2478600  41.1253730  67.7307090 114.2628830  41.3001420
  68.9861020 113.4614560  41.5714030  57.3445350 113.3623270  35.3690580
  57.4248940 112.4150780  35.4807980  58.2365100 113.6930150  35.4751240
  56.9039230 113.3267780  51.4996820  56.9444570 113.0281650  52.4082050
  57.7584730 113.7275390  51.3404340  58.8445040 111.9059880  49.4671310
  58.3141500 111.4150830  48.8394650  59.5133110 112.3344080  48.9329240
  68.2145270 113.7125500  51.2351650  68.7966040 112.9577820  51.1472130
  68.3907040 114.2432940  50.4583130  59.3317340 108.8722250  49.5468600
  59.2374210 108.2543000  48.8219470  58.7514730 109.5988540  49.3198510
  62.0978780 107.4295490  46.5795990  61.6496080 107.4519750  45.7341540
  61.4643980 107.0314510  47.1766290  64.8402230 114.0566000  48.5846270
  64.9598440 113.4607140  49.3241110  65.6996230 114.0935690  48.1647570
  59.5776520 111.9996560  33.6058490  59.3765580 111.1363920  33.9671830
  59.4068570 111.9129920  32.6680090  61.6071000 110.5987350  49.8422090
  62.1970690 110.2903200  50.5299910  60.7891240 110.1267100  49.9981990
  66.4264430 110.2153160  50.0755110  65.7379950 109.5534700  50.0105100
  67.1470450 109.7691430  50.5203570  67.0564830 106.8104790  36.1345370
  67.3367120 105.9672690  36.4904790  66.2830560 107.0427900  36.6484120
  58.3759320 109.0997180  33.5936370  58.6785220 109.1064610  32.6855520
  59.1153910 108.7495040  34.0904030  61.5944250 108.0431800  34.5792570
  61.2466250 107.3655790  33.9995020  61.7957020 107.5821310  35.3935960
  54.9349890 114.5719450  40.9756940  54.2798730 114.3031090  40.3316640
  55.7727840 114.4623930  40.5258920  67.8840330 109.3660740  35.1975430
  68.3025210 109.1791720  34.3572090  67.5776390 108.5139790  35.5078360
  71.3830060 114.2784880  38.8951230  71.0073660 113.5112810  38.4632520
  70.6533180 114.6607580  39.3826160  55.9725820 114.9572020  45.5160280
  56.3398860 114.8699420  46.3956300  55.4036640 114.1938570  45.4167140
  70.7729680 113.4256400  48.5290750  70.5415770 113.1969150  47.6288700
  71.0334230 114.3455950  48.4835640  55.5241820 111.8681110  49.4218700
  54.6297870 111.8347870  49.7612410  56.0639370 112.0667900  50.1869950
  69.2117750 108.6512830  51.3070450  70.0887930 108.6596230  51.6904450
  69.2238590 107.9143670  50.6962800  54.1487970 111.7818380  36.9182270
  53.2452050 112.0448580  36.7433930  54.6328590 112.0529550  36.1382230
  70.6581020 112.5042370  42.1958470  71.1818500 112.0105020  41.5648640
  71.2440440 112.6392730  42.9406040  70.8370740 112.5882240  45.7178020
  69.8873450 112.5545780  45.8323010  71.0183750 113.4982350  45.4827790
  56.6915180 110.8383920  34.8276650  57.4006880 110.4167140  34.3423930
  55.9755120 110.9059150  34.1960000  56.3389340 106.8923250  33.8679300
  57.0617470 107.4332190  34.1860520  56.6113860 106.6186670  32.9920840
  70.1480990 111.7615720  38.1350880  70.6440110 111.5286590  38.9199760
  69.9497060 110.9227560  37.7188520  56.0281530 106.1429440  43.7701920
  56.6757720 105.5926820  43.3297080  56.4483370 106.3972590  44.5917730
  71.5768150 110.3976670  40.6688560  71.4667430 110.2432710  41.6070830
  72.3375740 109.8697610  40.4263970  69.9233870 106.3370800  47.1271560
  70.5606090 106.9504940  47.4930750  70.0708760 106.3731460  46.1820790
  72.4658420 108.2284590  33.9094700  73.3907730 108.0965770  33.7012990
  72.4434210 108.3077410  34.8631150  72.5396910 108.9995250  36.5351410
  71.7448410 108.9340370  37.0644320  72.7440190 109.9345890  36.5236760
  55.7813530 106.2985110  46.5127240  55.4328350 106.7548930  47.2785420
  55.4501230 105.4042240  46.5949670  63.2938350 107.4896990  50.0346660
  63.2327240 108.0818820  50.7842070  64.2338730 107.3822950  49.8896920
  65.9312910 107.1467050  49.6738950  66.5453320 107.4646340  49.0120030
  66.4762470 106.6615640  50.2934810  56.4534170 105.8261310  49.7878010
  57.0017160 105.6449360  49.0244120  56.5189480 105.0355420  50.3234320
  66.6720950 105.7099190  46.0008240  65.7980790 106.0434300  45.7981170
  66.5631700 105.2372370  46.8260110  67.5792930 107.9170060  47.3849960
  67.2506290 107.1021820  47.0051690  68.5275230 107.8739870  47.2615650
  64.4195770 106.6269030  44.9401150  63.6367560 107.1014530  45.2197910
  64.1258700 105.7223860  44.8314330  68.9716840 107.3292130  42.9850240
  69.4124930 107.2737230  42.1371840  68.7024430 108.2450140  43.0560420
  70.8355410 106.9607370  40.9959060  70.7743810 106.0168590  40.8490080
  71.6147440 107.0687460  41.5412520  55.7636180 106.9316510  37.4614870
  56.5215540 107.0445390  36.8878900  55.3013350 107.7685710  37.4158300
  62.3049990 109.0455780  40.4517180  61.4924500 108.6712670  40.1113060
  62.8091630 108.2900860  40.7538370  66.8074970 105.7098230  41.6900250
  67.4104340 106.2818440  42.1648770  66.0667960 106.2737670  41.4674150
  69.9509570 106.1119790  36.9640530  70.1460200 107.0103240  37.2307960
  69.1639440 105.8806870  37.4573480  58.1361330 107.4580560  36.0016840
  58.6654090 106.6710360  35.8724790  58.7689650 108.1371750  36.2352370
  60.3299170 107.1955700  39.0562230  59.7001910 106.4943010  39.2232360
  59.7904310 107.9559830  38.8395390  60.4554730 106.4739680  51.4914720
  60.1739000 106.9773280  50.7275540  60.8374430 105.6761430  51.1256850
  67.0570190 105.8893260  52.0695190  66.9435640 106.2087870  52.9646710
  67.8739930 106.2905770  51.7732470  65.9628340 113.9085730  22.4329930
  65.8822390 112.9940340  22.1621640  65.5492760 114.4052800  21.7269640
  56.5204160 110.9586450  18.9757350  55.6320860 111.3002420  18.8737230
  56.8045350 110.7586770  18.0838180  54.4837170 113.5592100  24.8597050
  55.0553280 112.7914300  24.8600690  54.4838710 113.8580860  23.9503660
  55.7262040 108.9676460  26.6465980  55.5464880 108.0702210  26.9268740
  55.3242120 109.5148330  27.3212930  64.5660540 111.1692320  24.5478290
  64.9425360 110.2964200  24.4351960  64.4680050 111.5051020  23.6568730
  58.6965550 109.5417950  20.0095730  58.8032300 110.4421680  20.3164490
  57.7857910 109.4935920  19.7190380  68.3484660 108.6642760  21.4806630
  69.1694280 108.1739330  21.5232110  68.3818740 109.2540420  22.2338470
  56.3448710 111.4636960  25.2548320  57.0258820 111.7275330  25.8735720
  56.0296760 110.6237830  25.5886330  60.5373280 112.5104320  24.3420910
  61.0451500 113.0085290  24.9825930  61.0686520 111.7339520  24.1660270
  72.6384210 110.6809510  28.0450260  71.9336380 111.0691220  27.5265370
  72.9042130 111.3759800  28.6471190  58.8209380 107.1502880  28.6084330
  58.8227820 107.6675270  27.8030230  57.9913690 106.6733060  28.5854260
  68.5846140 110.6043140  24.2534170  67.8801710 110.8928030  24.8337280
  68.9458300 111.4143250  23.8933730  58.5024710 108.8612840  26.6154780
  58.8441520 109.7054890  26.3208650  57.5640520 109.0096580  26.7320120
  71.6533060 110.0497930  24.6443380  70.7057970 110.0836910  24.7758810
  71.9783050 110.8636880  25.0292740  62.1852600 106.3495110  22.9399370
  62.4927580 105.7942000  22.2234870  61.2553300 106.4839570  22.7572360
  64.5602440 110.6860940  16.6726650  63.6206110 110.8474900  16.7579110
  64.8785700 111.4046620  16.1262640  68.0457210 112.1548780  27.5960550
  67.6328390 112.9802490  27.8500540  67.3133160 111.5693820  27.4036910
  60.1790000 114.9408680  22.4579220  59.7747000 114.2285930  21.9625120
  60.2653120 114.5961920  23.3467260  58.8918620 111.7151890  26.2378260
  59.4433210 111.8247230  25.4631510  59.4062130 112.0889490  26.9533490
  70.3612490 106.4693860  15.5008530  70.0485150 106.5620690  16.4007600
  71.1224960 107.0474890  15.4505960  56.8794630 113.8353660  19.9585870
  56.7592230 114.5615750  19.3467140  56.5695520 113.0656570  19.4813780
  71.5713780 111.2065360  31.4782670  70.9558050 111.7145030  30.9498130
  71.2510200 110.3063690  31.4208610  59.3458290 107.1788730  23.3409540
  58.9026440 107.9598270  23.0094060  59.9043280 107.5018620  24.0480480
  63.6328100 110.0457250  28.9444860  63.1707470 110.2540270  29.7564800
  63.2306210 109.2316600  28.6415530  68.6332610 111.2666200  30.0741520
  67.7826200 110.9671950  30.3950590  68.4734400 111.5108210  29.1625340
  65.7282320 112.7667950  32.1740310  66.0535730 111.9331700  31.8342540
  66.5162650 113.2896470  32.3218640  62.4617110 106.7999430  18.2215370
  61.8371290 106.7959300  18.9468680  62.3747230 105.9330390  17.8251340
  61.3834190 107.7236060  25.1999140  61.6806520 108.6298890  25.1191160
  61.9319750 107.2354840  24.5858710  59.1372510 112.3022300  21.0690790
  58.9113430 112.0859470  21.9737410  58.3565040 112.7350760  20.7236760
  66.3670270 112.3085670  19.6681440  65.7679160 113.0321470  19.4845060
  66.9149880 112.2462450  18.8857890  61.5771720 113.2007880  31.7351060
  61.4815320 112.2602610  31.5851460  62.4203700 113.4222950  31.3399130
  64.9735140 110.9449210  21.6984720  65.3664710 111.2621410  20.8853410
  65.3351990 110.0661090  21.8129240  56.7082260 109.6121550  29.8884840
  56.3145650 110.4596760  30.0957620  56.0200660 108.9747920  30.0793480
  63.2827310 109.6956520  32.9581580  62.5925630 109.5028720  33.5927670
  64.0259610 109.9791160  33.4905880  54.0099310 107.5350010  23.9214920
  53.7212360 108.1052870  24.6339900  54.7545070 107.0554460  24.2846150
  54.1969540 111.4770130  15.1317640  54.1144210 112.4200890  15.2732630
  53.8452600 111.3345040  14.2529990  65.5590280 113.5354960  25.7935500
  64.8271400 114.0441770  26.1425600  65.1614620 112.7184940  25.4924280
  61.9967670 110.2109160  24.1987990  62.0003730 109.7699110  23.3492530
  62.8918790 110.5326490  24.3059810  57.8470050 110.0935650  23.1582200
  57.5070100 110.5710880  23.9149250  57.0847370 109.6400770  22.7983300
  62.0587820 111.2121240  17.1894750  62.1800640 111.1707720  18.1380570
  61.6736330 112.0745390  17.0341480  66.0216190 108.9888640  25.2058440
  66.0388930 109.4397290  26.0500290  65.7731770 108.0894280  25.4191880
  61.0709320 113.5222380  16.5878050  60.5026220 113.0740630  15.9613960
  61.7798320 113.8815160  16.0543200  69.4486940 106.4020820  31.0444820
  69.7732710 105.6710480  31.5702800  69.4843450 106.0834460  30.1425810
  62.2975640 114.2710940  25.9453400  62.6645770 113.7969510  26.6914740
  62.1080700 115.1452510  26.2861740  55.1616130 109.0154630  22.0746870
  54.8763050 108.6510300  22.9125490  55.0994990 108.2835090  21.4610010
  60.0875010 113.3119580  28.2637610  59.7832080 114.1911560  28.4887970
  61.0421470 113.3719370  28.2995050  64.8354720 107.9083890  18.7960240
  64.0219330 107.4097060  18.7205550  64.6416670 108.7482140  18.3796590
  67.5503110 112.2803540  17.0922400  68.4382730 112.5920770  16.9173740
  67.5208200 111.4075790  16.7002980  56.1438740 114.1522320  29.4108970
  55.7853680 114.8176170  29.9982310  55.8493300 113.3205870  29.7821590
  59.3451860 114.6106560  32.2948520  59.0452000 114.7563740  31.3976340
  60.1163100 114.0511850  32.2021910  69.8217380 113.5915380  16.5602260
  69.7381100 114.0229600  15.7098700  70.5411570 114.0513730  16.9929080
  54.6546790 114.1513580  16.0343570  55.5241640 114.4338380  16.3179490
  54.1637110 114.9649450  15.9192380  57.7193380 105.8824440  20.6274370
  57.5908010 105.8742340  21.5759290  56.8955400 106.2207530  20.2765380
  54.7187310 107.6415560  30.0881070  54.0045830 107.8412480  30.6933680
  55.1382350 106.8655130  30.4595870  66.2126090 110.1337870  27.8382520
  66.5806910 109.3133080  28.1662090  65.3524290 110.1939760  28.2538170
  69.5788120 109.0894810  18.6470080  68.9501280 109.1940480  17.9328310
  69.0840040 109.3091590  19.4363960  61.5472150 111.3680760  20.0627960
  60.8388300 111.8367100  20.5041570  61.8316630 110.7102770  20.6973150
  63.1728080 112.7877460  28.0620490  63.6713330 113.2623280  28.7272340
  63.3151030 111.8640980  28.2690520  65.5787580 108.0931420  21.5023750
  65.4555360 108.1117550  20.5533260  66.5272140 108.1410360  21.6222150
  59.7507170 109.6765840  17.4378670  60.5997700 110.1135990  17.3718860
  59.3838440 109.9886100  18.2650730  70.3794940 109.0045420  28.9048880
  69.8768540 109.7450820  29.2442690  71.1951600 109.3929420  28.5885670
  68.6716950 114.2478600  22.3510240  67.7307090 114.2628830  22.5257930
  68.9861020 113.4614560  22.7970540  57.3445350 113.3623270  16.5947090
  57.4248940 112.4150780  16.7064490  58.2365100 113.6930150  16.7007750
  56.9039230 113.3267780  32.7253330  56.9444570 113.0281650  33.6338560
  57.7584730 113.7275390  32.5660850  58.8445040 111.9059880  30.6927820
  58.3141500 111.4150830  30.0651160  59.5133110 112.3344080  30.1585750
  68.2145270 113.7125500  32.4608160  68.7966040 112.9577820  32.3728640
  68.3907040 114.2432940  31.6839640  59.3317340 108.8722250  30.7725110
  59.2374210 108.2543000  30.0475980  58.7514730 109.5988540  30.5455020
  62.0978780 107.4295490  27.8052500  61.6496080 107.4519750  26.9598050
  61.4643980 107.0314510  28.4022800  64.8402230 114.0566000  29.8102780
  64.9598440 113.4607140  30.5497620  65.6996230 114.0935690  29.3904080
  59.5776520 111.9996560  14.8315000  59.3765580 111.1363920  15.1928340
  59.4068570 111.9129920  13.8936600  61.6071000 110.5987350  31.0678600
  62.1970690 110.2903200  31.7556420  60.7891240 110.1267100  31.2238500
  66.4264430 110.2153160  31.3011620  65.7379950 109.5534700  31.2361610
  67.1470450 109.7691430  31.7460080  67.0564830 106.8104790  17.3601880
  67.3367120 105.9672690  17.7161300  66.2830560 107.0427900  17.8740630
  58.3759320 109.0997180  14.8192880  58.6785220 109.1064610  13.9112030
  59.1153910 108.7495040  15.3160540  61.5944250 108.0431800  15.8049080
  61.2466250 107.3655790  15.2251530  61.7957020 107.5821310  16.6192470
  54.9349890 114.5719450  22.2013450  54.2798730 114.3031090  21.5573150
  55.7727840 114.4623930  21.7515430  67.8840330 109.3660740  16.4231940
  68.3025210 109.1791720  15.5828600  67.5776390 108.5139790  16.7334870
  71.3830060 114.2784880  20.1207740  71.0073660 113.5112810  19.6889030
  70.6533180 114.6607580  20.6082670  55.9725820 114.9572020  26.7416790
  56.3398860 114.8699420  27.6212810  55.4036640 114.1938570  26.6423650
  70.7729680 113.4256400  29.7547260  70.5415770 113.1969150  28.8545210
  71.0334230 114.3455950  29.7092150  55.5241820 111.8681110  30.6475210
  54.6297870 111.8347870  30.9868920  56.0639370 112.0667900  31.4126460
  69.2117750 108.6512830  32.5326960  70.0887930 108.6596230  32.9160960
  69.2238590 107.9143670  31.9219310  54.1487970 111.7818380  18.1438780
  53.2452050 112.0448580  17.9690440  54.6328590 112.0529550  17.3638740
  70.6581020 112.5042370  23.4214980  71.1818500 112.0105020  22.7905150
  71.2440440 112.6392730  24.1662550  70.8370740 112.5882240  26.9434530
  69.8873450 112.5545780  27.0579520  71.0183750 113.4982350  26.7084300
  56.6915180 110.8383920  16.0533160  57.4006880 110.4167140  15.5680440
  55.9755120 110.9059150  15.4216510  56.3389340 106.8923250  15.0935810
  57.0617470 107.4332190  15.4117030  56.6113860 106.6186670  14.2177350
  70.1480990 111.7615720  19.3607390  70.6440110 111.5286590  20.1456270
  69.9497060 110.9227560  18.9445030  56.0281530 106.1429440  24.9958430
  56.6757720 105.5926820  24.5553590  56.4483370 106.3972590  25.8174240
  71.5768150 110.3976670  21.8945070  71.4667430 110.2432710  22.8327340
  72.3375740 109.8697610  21.6520480  69.9233870 106.3370800  28.3528070
  70.5606090 106.9504940  28.7187260  70.0708760 106.3731460  27.4077300
  72.4658420 108.2284590  15.1351210  73.3907730 108.0965770  14.9269500
  72.4434210 108.3077410  16.0887660  72.5396910 108.9995250  17.7607920
  71.7448410 108.9340370  18.2900830  72.7440190 109.9345890  17.7493270
  55.7813530 106.2985110  27.7383750  55.4328350 106.7548930  28.5041930
  55.4501230 105.4042240  27.8206180  63.2938350 107.4896990  31.2603170
  63.2327240 108.0818820  32.0098580  64.2338730 107.3822950  31.1153430
  65.9312910 107.1467050  30.8995460  66.5453320 107.4646340  30.2376540
  66.4762470 106.6615640  31.5191320  56.4534170 105.8261310  31.0134520
  57.0017160 105.6449360  30.2500630  56.5189480 105.0355420  31.5490830
  66.6720950 105.7099190  27.2264750  65.7980790 106.0434300  27.0237680
  66.5631700 105.2372370  28.0516620  67.5792930 107.9170060  28.6106470
  67.2506290 107.1021820  28.2308200  68.5275230 107.8739870  28.4872160
  64.4195770 106.6269030  26.1657660  63.6367560 107.1014530  26.4454420
  64.1258700 105.7223860  26.0570840  68.9716840 107.3292130  24.2106750
  69.4124930 107.2737230  23.3628350  68.7024430 108.2450140  24.2816930
  70.8355410 106.9607370  22.2215570  70.7743810 106.0168590  22.0746590
  71.6147440 107.0687460  22.7669030  55.7636180 106.9316510  18.6871380
  56.5215540 107.0445390  18.1135410  55.3013350 107.7685710  18.6414810
  62.3049990 109.0455780  21.6773690  61.4924500 108.6712670  21.3369570
  62.8091630 108.2900860  21.9794880  66.8074970 105.7098230  22.9156760
  67.4104340 106.2818440  23.3905280  66.0667960 106.2737670  22.6930660
  69.9509570 106.1119790  18.1897040  70.1460200 107.0103240  18.4564470
  69.1639440 105.8806870  18.6829990  58.1361330 107.4580560  17.2273350
  58.6654090 106.6710360  17.0981300  58.7689650 108.1371750  17.4608880
  60.3299170 107.1955700  20.2818740  59.7001910 106.4943010  20.4488870
  59.7904310 107.9559830  20.0651900  60.4554730 106.4739680  32.7171230
  60.1739000 106.9773280  31.9532050  60.8374430 105.6761430  32.3513360
  67.0570190 105.8893260  33.2951700  66.9435640 106.2087870  34.1903220
  67.8739930 106.2905770  32.9988980  65.9628340 113.9085730   3.6586440
  65.8822390 112.9940340   3.3878150  65.5492760 114.4052800   2.9526150
  54.4837170 113.5592100   6.0853560  55.0553280 112.7914300   6.0857200
  54.4838710 113.8580860   5.1760170  55.7262040 108.9676460   7.8722490
  55.5464880 108.0702210   8.1525250  55.3242120 109.5148330   8.5469440
  64.5660540 111.1692320   5.7734800  64.9425360 110.2964200   5.6608470
  64.4680050 111.5051020   4.8825240  68.3484660 108.6642760   2.7063140
  69.1694280 108.1739330   2.7488620  68.3818740 109.2540420   3.4594980
  56.3448710 111.4636960   6.4804830  57.0258820 111.7275330   7.0992230
  56.0296760 110.6237830   6.8142840  60.5373280 112.5104320   5.5677420
  61.0451500 113.0085290   6.2082440  61.0686520 111.7339520   5.3916780
  72.6384210 110.6809510   9.2706770  71.9336380 111.0691220   8.7521880
  72.9042130 111.3759800   9.8727700  58.8209380 107.1502880   9.8340840
  58.8227820 107.6675270   9.0286740  57.9913690 106.6733060   9.8110770
  68.5846140 110.6043140   5.4790680  67.8801710 110.8928030   6.0593790
  68.9458300 111.4143250   5.1190240  58.5024710 108.8612840   7.8411290
  58.8441520 109.7054890   7.5465160  57.5640520 109.0096580   7.9576630
  71.6533060 110.0497930   5.8699890  70.7057970 110.0836910   6.0015320
  71.9783050 110.8636880   6.2549250  62.1852600 106.3495110   4.1655880
  62.4927580 105.7942000   3.4491380  61.2553300 106.4839570   3.9828870
  68.0457210 112.1548780   8.8217060  67.6328390 112.9802490   9.0757050
  67.3133160 111.5693820   8.6293420  60.1790000 114.9408680   3.6835730
  59.7747000 114.2285930   3.1881630  60.2653120 114.5961920   4.5723770
  58.8918620 111.7151890   7.4634770  59.4433210 111.8247230   6.6888020
  59.4062130 112.0889490   8.1790000  71.5713780 111.2065360  12.7039180
  70.9558050 111.7145030  12.1754640  71.2510200 110.3063690  12.6465120
  59.3458290 107.1788730   4.5666050  58.9026440 107.9598270   4.2350570
  59.9043280 107.5018620   5.2736990  63.6328100 110.0457250  10.1701370
  63.1707470 110.2540270  10.9821310  63.2306210 109.2316600   9.8672040
  68.6332610 111.2666200  11.2998030  67.7826200 110.9671950  11.6207100
  68.4734400 111.5108210  10.3881850  65.7282320 112.7667950  13.3996820
  66.0535730 111.9331700  13.0599050  66.5162650 113.2896470  13.5475150
  61.3834190 107.7236060   6.4255650  61.6806520 108.6298890   6.3447670
  61.9319750 107.2354840   5.8115220  59.1372510 112.3022300   2.2947300
  58.9113430 112.0859470   3.1993920  58.3565040 112.7350760   1.9493270
  61.5771720 113.2007880  12.9607570  61.4815320 112.2602610  12.8107970
  62.4203700 113.4222950  12.5655640  64.9735140 110.9449210   2.9241230
  65.3664710 111.2621410   2.1109920  65.3351990 110.0661090   3.0385750
  56.7082260 109.6121550  11.1141350  56.3145650 110.4596760  11.3214130
  56.0200660 108.9747920  11.3049990  63.2827310 109.6956520  14.1838090
  62.5925630 109.5028720  14.8184180  64.0259610 109.9791160  14.7162390
  54.0099310 107.5350010   5.1471430  53.7212360 108.1052870   5.8596410
  54.7545070 107.0554460   5.5102660  65.5590280 113.5354960   7.0192010
  64.8271400 114.0441770   7.3682110  65.1614620 112.7184940   6.7180790
  61.9967670 110.2109160   5.4244500  62.0003730 109.7699110   4.5749040
  62.8918790 110.5326490   5.5316320  57.8470050 110.0935650   4.3838710
  57.5070100 110.5710880   5.1405760  57.0847370 109.6400770   4.0239810
  66.0216190 108.9888640   6.4314950  66.0388930 109.4397290   7.2756800
  65.7731770 108.0894280   6.6448390  69.4486940 106.4020820  12.2701330
  69.7732710 105.6710480  12.7959310  69.4843450 106.0834460  11.3682320
  62.2975640 114.2710940   7.1709910  62.6645770 113.7969510   7.9171250
  62.1080700 115.1452510   7.5118250  55.1616130 109.0154630   3.3003380
  54.8763050 108.6510300   4.1382000  55.0994990 108.2835090   2.6866520
  60.0875010 113.3119580   9.4894120  59.7832080 114.1911560   9.7144480
  61.0421470 113.3719370   9.5251560  56.1438740 114.1522320  10.6365480
  55.7853680 114.8176170  11.2238820  55.8493300 113.3205870  11.0078100
  59.3451860 114.6106560  13.5205030  59.0452000 114.7563740  12.6232850
  60.1163100 114.0511850  13.4278420  54.7187310 107.6415560  11.3137580
  54.0045830 107.8412480  11.9190190  55.1382350 106.8655130  11.6852380
  66.2126090 110.1337870   9.0639030  66.5806910 109.3133080   9.3918600
  65.3524290 110.1939760   9.4794680  63.1728080 112.7877460   9.2877000
  63.6713330 113.2623280   9.9528850  63.3151030 111.8640980   9.4947030
  65.5787580 108.0931420   2.7280260  65.4555360 108.1117550   1.7789770
  66.5272140 108.1410360   2.8478660  70.3794940 109.0045420  10.1305390
  69.8768540 109.7450820  10.4699200  71.1951600 109.3929420   9.8142180
  68.6716950 114.2478600   3.5766750  67.7307090 114.2628830   3.7514440
  68.9861020 113.4614560   4.0227050  56.9039230 113.3267780  13.9509840
  56.9444570 113.0281650  14.8595070  57.7584730 113.7275390  13.7917360
  58.8445040 111.9059880  11.9184330  58.3141500 111.4150830  11.2907670
  59.5133110 112.3344080  11.3842260  68.2145270 113.7125500  13.6864670
  68.7966040 112.9577820  13.5985150  68.3907040 114.2432940  12.9096150
  59.3317340 108.8722250  11.9981620  59.2374210 108.2543000  11.2732490
  58.7514730 109.5988540  11.7711530  62.0978780 107.4295490   9.0309010
  61.6496080 107.4519750   8.1854560  61.4643980 107.0314510   9.6279310
  64.8402230 114.0566000  11.0359290  64.9598440 113.4607140  11.7754130
  65.6996230 114.0935690  10.6160590  61.6071000 110.5987350  12.2935110
  62.1970690 110.2903200  12.9812930  60.7891240 110.1267100  12.4495010
  66.4264430 110.2153160  12.5268130  65.7379950 109.5534700  12.4618120
  67.1470450 109.7691430  12.9716590  54.9349890 114.5719450   3.4269960
  54.2798730 114.3031090   2.7829660  55.7727840 114.4623930   2.9771940
  55.9725820 114.9572020   7.9673300  56.3398860 114.8699420   8.8469320
  55.4036640 114.1938570   7.8680160  70.7729680 113.4256400  10.9803770
  70.5415770 113.1969150  10.0801720  71.0334230 114.3455950  10.9348660
  55.5241820 111.8681110  11.8731720  54.6297870 111.8347870  12.2125430
  56.0639370 112.0667900  12.6382970  69.2117750 108.6512830  13.7583470
  70.0887930 108.6596230  14.1417470  69.2238590 107.9143670  13.1475820
  70.6581020 112.5042370   4.6471490  71.1818500 112.0105020   4.0161660
  71.2440440 112.6392730   5.3919060  70.8370740 112.5882240   8.1691040
  69.8873450 112.5545780   8.2836030  71.0183750 113.4982350   7.9340810
  56.0281530 106.1429440   6.2214940  56.6757720 105.5926820   5.7810100
  56.4483370 106.3972590   7.0430750  71.5768150 110.3976670   3.1201580
  71.4667430 110.2432710   4.0583850  72.3375740 109.8697610   2.8776990
  69.9233870 106.3370800   9.5784580  70.5606090 106.9504940   9.9443770
  70.0708760 106.3731460   8.6333810  55.7813530 106.2985110   8.9640260
  55.4328350 106.7548930   9.7298440  55.4501230 105.4042240   9.0462690
  63.2938350 107.4896990  12.4859680  63.2327240 108.0818820  13.2355090
  64.2338730 107.3822950  12.3409940  65.9312910 107.1467050  12.1251970
  66.5453320 107.4646340  11.4633050  66.4762470 106.6615640  12.7447830
  56.4534170 105.8261310  12.2391030  57.0017160 105.6449360  11.4757140
  56.5189480 105.0355420  12.7747340  66.6720950 105.7099190   8.4521260
  65.7980790 106.0434300   8.2494190  66.5631700 105.2372370   9.2773130
  67.5792930 107.9170060   9.8362980  67.2506290 107.1021820   9.4564710
  68.5275230 107.8739870   9.7128670  64.4195770 106.6269030   7.3914170
  63.6367560 107.1014530   7.6710930  64.1258700 105.7223860   7.2827350
  68.9716840 107.3292130   5.4363260  69.4124930 107.2737230   4.5884860
  68.7024430 108.2450140   5.5073440  70.8355410 106.9607370   3.4472080
  70.7743810 106.0168590   3.3003100  71.6147440 107.0687460   3.9925540
  62.3049990 109.0455780   2.9030200  61.4924500 108.6712670   2.5626080
  62.8091630 108.2900860   3.2051390  66.8074970 105.7098230   4.1413270
  67.4104340 106.2818440   4.6161790  66.0667960 106.2737670   3.9187170
  60.4554730 106.4739680  13.9427740  60.1739000 106.9773280  13.1788560
  60.8374430 105.6761430  13.5769870  67.0570190 105.8893260  14.5208210
  66.9435640 106.2087870  15.4159730  67.8739930 106.2905770  14.2245490
  65.9628340  95.1342240  97.5303890  65.8822390  94.2196850  97.2595600
  65.5492760  95.6309310  96.8243600  64.0946380  96.9121260  99.4113160
  63.3188480  96.4321700  99.7011730  64.7459310  96.2326910  99.2369320
  58.1112210  97.2241070 100.2888920  57.2797090  96.9689780 100.6885430
  58.7193190  97.2951840 101.0246840  68.1153810 101.3181450  98.1912290
  67.6535340 100.5468690  98.5199460  68.9279360 101.3447520  98.6964740
  58.0913470 101.2581160 100.4846940  58.3941510 100.3678900 100.3057160
  58.8357060 101.8151380 100.2569190  56.5204160  92.1842960  94.0731310
  55.6320860  92.5258930  93.9711190  56.8045350  91.9843280  93.1812140
  54.4837170  94.7848610  99.9571010  55.0553280  94.0170810  99.9574650
  54.4838710  95.0837370  99.0477620  64.3417120 103.6039460  97.8116280
  63.7228560 104.0596960  97.2410720  65.1968900 103.7590920  97.4105980
  63.5355370  99.5878450  99.4183320  63.4663650  98.6468390  99.2572450
  64.2975230  99.6779860  99.9905890  55.7262040  90.1932970 101.7439940
  55.5464880  89.2958720 102.0242700  55.3242120  90.7404840 102.4186890
  64.5660540  92.3948830  99.6452250  64.9425360  91.5220710  99.5325920
  64.4680050  92.7307530  98.7542690  58.6965550  90.7674460  95.1069690
  58.8032300  91.6678190  95.4138450  57.7857910  90.7192430  94.8164340
  68.3484660  89.8899270  96.5780590  69.1694280  89.3995840  96.6206070
  68.3818740  90.4796930  97.3312430  56.3448710  92.6893470 100.3522280
  57.0258820  92.9531840 100.9709680  56.0296760  91.8494340 100.6860290
  60.5373280  93.7360830  99.4394870  61.0451500  94.2341800 100.0799890
  61.0686520  92.9596030  99.2634230  65.2080470  98.4878700  95.2048190
  64.5897740  98.9528150  94.6410910  65.7203720  99.1806180  95.6217700
  60.0712230  98.0154570 101.8831790  59.7381610  98.6423490 102.5252860
  60.2478910  98.5416450 101.1033460  68.5846140  91.8299650  99.3508130
  67.8801710  92.1184540  99.9311240  68.9458300  92.6399760  98.9907690
  58.5024710  90.0869350 101.7128740  58.8441520  90.9311400 101.4182610
  57.5640520  90.2353090 101.8294080  54.5763670  99.1735230  92.5787820
  54.1991650  99.6622330  91.8472720  54.8336740  99.8460510  93.2094350
  70.2008920 101.4474780 101.6135610  69.5172440 102.1173890 101.6052280
  70.7403210 101.6455430 100.8480470  71.6533060  91.2754440  99.7417340
  70.7057970  91.3093420  99.8732770  71.9783050  92.0893390 100.1266700
  62.1852600  87.5751620  98.0373330  62.4927580  87.0198510  97.3208830
  61.2553300  87.7096080  97.8546320  67.7367660 103.2918910 100.3280790
  67.7494820 102.8881200  99.4603050  67.1842880 104.0666200 100.2242220
  69.0313080 100.0135130  95.4170960  68.9209410  99.0709460  95.5420380
  69.0281330 100.3750770  96.3033720  67.1353100  98.1948750 101.6563400
  67.5521890  97.9808860 100.8216860  67.8592920  98.4521540 102.2272020
  64.5733360  95.6400450  94.7733450  63.6462640  95.5737830  95.0021920
  64.7258180  96.5780580  94.6588690  64.5602440  91.9117450  91.7700610
  63.6206110  92.0731410  91.8553070  64.8785700  92.6303130  91.2236600
  71.0815200  96.5935970 101.7479640  70.2533830  96.6629060 101.2729770
  71.6765680  97.1790280 101.2795470  68.6030650  97.2020750  95.2768700
  67.9843070  96.8640300  94.6295000  68.5855100  96.5580510  95.9847890
  60.1790000  96.1665190  97.5553180  59.7747000  95.4542440  97.0599080
  60.2653120  95.8218430  98.4441220  60.6471700  99.8532750  99.7192390
  60.3499990  99.2478220  99.0400170  61.5971520  99.8910060  99.6081750
  58.8918620  92.9408400 101.3352220  59.4433210  93.0503740 100.5605470
  59.4062130  93.3146000 102.0507450  66.7795350  96.4407560  92.2841450
  67.2188630  95.6029990  92.1379270  67.4923770  97.0736960  92.3705590
  64.8890730 101.3803630  96.2522690  65.3286640 102.1227960  95.8378080
  64.8277620 101.6230200  97.1761650  70.3612490  87.6950370  90.5982490
  70.0485150  87.7877200  91.4981560  71.1224960  88.2731400  90.5479920
  56.8794630  95.0610170  95.0559830  56.7592230  95.7872260  94.4441100
  56.5695520  94.2913080  94.5787740  54.5180000  98.2325310 100.8628470
  54.5960420  98.3674080  99.9184190  55.1321680  97.5241200 101.0556590
  55.7627630  99.9325500  97.2734650  55.3555710 100.0740090  96.4188250
  56.6540640  99.6485660  97.0705860  67.5560910 104.3672750  93.6085700
  67.3962050 104.0775690  94.5067530  67.3907620 103.5912880  93.0730930
  60.0349290 104.1471280  95.3857320  59.8591770 103.2306820  95.1725120
  59.1805030 104.5058570  95.6255120  67.2587040 101.8760310  92.1683700
  66.5652200 101.8737600  91.5085980  68.0009900 101.4519630  91.7377870
  66.8236970 103.5023020  96.2432190  67.2793920 102.7212400  96.5570810
  67.1629490 104.2129840  96.7873370  59.3458290  88.4045240  98.4383500
  58.9026440  89.1854780  98.1068020  59.9043280  88.7275130  99.1454440
  62.4617110  88.0255940  93.3189330  61.8371290  88.0215810  94.0442640
  62.3747230  87.1586900  92.9225300  61.3834190  88.9492570 100.2973100
  61.6806520  89.8555400 100.2165120  61.9319750  88.4611350  99.6832670
  59.1372510  93.5278810  96.1664750  58.9113430  93.3115980  97.0711370
  58.3565040  93.9607270  95.8210720  66.3670270  93.5342180  94.7655400
  65.7679160  94.2577980  94.5819020  66.9149880  93.4718960  93.9831850
  64.9735140  92.1705720  96.7958680  65.3664710  92.4877920  95.9827370
  65.3351990  91.2917600  96.9103200  54.0099310  88.7606520  99.0188880
  53.7212360  89.3309380  99.7313860  54.7545070  88.2810970  99.3820110
  54.1969540  92.7026640  90.2291600  54.1144210  93.6457400  90.3706590
  53.8452600  92.5601550  89.3503950  65.5590280  94.7611470 100.8909460
  64.8271400  95.2698280 101.2399560  65.1614620  93.9441450 100.5898240
  61.9967670  91.4365670  99.2961950  62.0003730  90.9955620  98.4466490
  62.8918790  91.7583000  99.4033770  57.8470050  91.3192160  98.2556160
  57.5070100  91.7967390  99.0123210  57.0847370  90.8657280  97.8957260
  62.0587820  92.4377750  92.2868710  62.1800640  92.3964230  93.2354530
  61.6736330  93.3001900  92.1315440  66.0216190  90.2145150 100.3032400
  66.0388930  90.6653800 101.1474250  65.7731770  89.3150790 100.5165840
  61.0709320  94.7478890  91.6852010  60.5026220  94.2997140  91.0587920
  61.7798320  95.1071670  91.1517160  62.2975640  95.4967450 101.0427360
  62.6645770  95.0226020 101.7888700  62.1080700  96.3709020 101.3835700
  55.1616130  90.2411140  97.1720830  54.8763050  89.8766810  98.0099450
  55.0994990  89.5091600  96.5583970  58.6156800  98.7437080  93.9578420
  57.8419060  98.2034700  93.7977140  59.3451430  98.2243690  93.6196180
  69.3744780  97.7402440  99.7504810  70.0943900  98.2357730  99.3600920
  69.1726600  97.0620330  99.1058680  64.8354720  89.1340400  93.8934200
  64.0219330  88.6353570  93.8179510  64.6416670  89.9738650  93.4770550
  67.5503110  93.5060050  92.1896360  68.4382730  93.8177280  92.0147700
  67.5208200  92.6332300  91.7976940  58.6594200  98.4117460  97.5957230
  59.1772870  97.6085720  97.5414120  58.2078220  98.3496600  98.4374060
  63.5463700  99.6783740  92.8684530  63.8879400 100.4225970  92.3727850
  62.7176410  99.9914860  93.2309360  69.8217380  94.8171890  91.6576220
  69.7381100  95.2486110  90.8072660  70.5411570  95.2770240  92.0903040
  70.8504630 101.6714150  94.3858350  70.2080790 101.0169770  94.6602070
  70.4635290 102.0769240  93.6099020  66.4291110  98.9999580  98.2330040
  66.7814930  98.4027710  97.5731410  65.5453440  98.6743810  98.4038290
  62.5154390  99.7597270  95.6400450  63.2025520 100.3066480  96.0208040
  61.7286810 100.3038000  95.6750060  54.6546790  95.3770090  91.1317530
  55.5241640  95.6594890  91.4153450  54.1637110  96.1905960  91.0166340
  61.8181600  96.7643300  95.2525810  62.2744380  97.5748550  95.4786000
  61.4669810  96.4466440  96.0844300  57.7193380  87.1080950  95.7248330
  57.5908010  87.0998850  96.6733250  56.8955400  87.4464040  95.3739340
  65.3946290 100.2781990 101.1995560  66.0368520  99.5775150 101.3127730
  65.9195640 101.0580430 101.0192450  69.2402010 100.5630610  90.9234700
  69.0139590  99.8461050  91.5159340  68.8498210 100.3143050  90.0856450
  55.0218040 104.5897470  91.6979160  55.3815680 105.1886810  91.0436430
  54.8810380 105.1357360  92.4714190  68.8218260  98.4802550  92.5848860
  68.5339960  98.9415240  93.3726740  69.6170430  98.0200320  92.8533080
  61.0386660 101.9728670  92.5152830  61.0296760 102.7058360  91.8997340
  60.1185020 101.7260250  92.6079790  56.6393300  97.1943560  93.2599590
  56.0321250  97.9342460  93.2694890  57.1142650  97.2842920  92.4337790
  69.5788120  90.3151320  93.7444040  68.9501280  90.4196990  93.0302270
  69.0840040  90.5348100  94.5337920  64.0246260 102.0356910  91.1778020
  64.1258240 101.8320900  90.2480000  63.1248000 101.7815190  91.3825800
  61.5472150  92.5937270  95.1601920  60.8388300  93.0623610  95.6015530
  61.8316630  91.9359280  95.7947110  65.5787580  89.3187930  96.5997710
  65.4555360  89.3374060  95.6507220  66.5272140  89.3666870  96.7196110
  62.6664370 104.5543230  95.8725690  62.9205870 104.5164620  94.9505060
  61.7176850 104.4276560  95.8653940  59.7507170  90.9022350  92.5352630
  60.5997700  91.3392500  92.4692820  59.3838440  91.2142610  93.3624690
  68.6716950  95.4735110  97.4484200  67.7307090  95.4885340  97.6231890
  68.9861020  94.6871070  97.8944500  58.6498590  97.1554710  91.0088160
  59.4161860  97.0436070  91.5713590  58.7273280  96.4592680  90.3564930
  57.3445350  94.5879780  91.6921050  57.4248940  93.6407290  91.8038450
  58.2365100  94.9186660  91.7981710  70.6742530 102.6443960  99.1238460
  70.7989950 103.4675130  99.5962270  71.5408090 102.4334690  98.7762610
  58.1460060 104.7375170  98.7955590  58.8822540 104.1890630  99.0664160
  58.5300980 105.6031180  98.6561580  55.0305540 100.8048740  94.6697100
  54.1045320 101.0469880  94.6602510  55.4961970 101.6323000  94.5481850
  61.2562370 103.9105480  90.6181160  62.0490980 104.1994310  90.1662950
  60.7366720 103.4797650  89.9393640  70.3092540 103.1375610  92.0417900
  70.0234050 102.7240750  91.2272080  70.1112090 104.0663320  91.9218420
  61.7739770  99.1308890  90.4823510  61.6690410  98.5161240  91.2084890
  61.6063990  98.6074780  89.6986520  65.0142500  98.1928920  91.0865500
  64.4652600  98.6398220  91.7308240  65.6361760  97.6878170  91.6103170
  60.6817620  97.1519840  92.9830800  61.1034040  96.9859710  93.8262190
  60.8068460  96.3420070  92.4885940  63.1945260  96.1757450  90.2307900
  63.7150920  95.4606470  89.8649050  63.8413660  96.8143320  90.5308410
  59.5776520  93.2253070  89.9288960  59.3765580  92.3620430  90.2902300
  59.4068570  93.1386430  88.9910560  67.0564830  88.0361300  92.4575840
  67.3367120  87.1929200  92.8135260  66.2830560  88.2684410  92.9714590
  58.3759320  90.3253690  89.9166840  58.6785220  90.3321120  89.0085990
  59.1153910  89.9751550  90.4134500  61.5944250  89.2688310  90.9023040
  61.2466250  88.5912300  90.3225490  61.7957020  88.8077820  91.7166430
  63.7593290 104.2569060  92.5209640  64.6544080 104.5954030  92.5428400
  63.7910920 103.5348470  91.8933920  57.3989450  99.6296110  90.7496640
  57.8364320 100.1725780  91.4054220  57.8837180  98.8043060  90.7592980
  54.6135250 102.4185140  98.2016900  54.9438260 101.5506200  97.9695540
  55.0426250 102.6243660  99.0321860  59.2097170 100.7494150  95.8618870
  58.9092710 100.6259120  96.7622780  59.1034660  99.8902740  95.4534600
  55.1025460 103.2855730 100.9398530  54.6656450 103.4656530 101.7722680
  55.6703140 104.0430350 100.7980250  71.9789090 100.5290550  90.5645550
  71.1482050 100.5967200  91.0352780  72.1560920 101.4194670  90.2612410
  71.4345550  97.2738030  93.0679750  72.1964460  97.8434680  93.1739440
  71.4499920  96.7065230  93.8388060  54.9349890  95.7975960  97.2987410
  54.2798730  95.5287600  96.6547110  55.7727840  95.6880440  96.8489390
  72.4405520  98.1288130  97.9121680  72.8114350  97.3455450  97.5057650
  73.0807450  98.8177230  97.7338980  71.4864720  97.5672400  90.2252270
  71.7613560  98.4751280  90.0971490  71.2975460  97.5034930  91.1614260
  67.8840330  90.5917250  91.5205900  68.3025210  90.4048230  90.6802560
  67.5776390  89.7396300  91.8308830  71.3830060  95.5041390  95.2181700
  71.0073660  94.7369320  94.7862990  70.6533180  95.8864090  95.7056630
  55.9725820  96.1828530 101.8390750  56.3398860  96.0955930 102.7186770
  55.4036640  95.4195080 101.7397610  54.1487970  93.0074890  93.2412740
  53.2452050  93.2705090  93.0664400  54.6328590  93.2786060  92.4612700
  70.6581020  93.7298880  98.5188940  71.1818500  93.2361530  97.8879110
  71.2440440  93.8649240  99.2636510  70.8370740  93.8138750 102.0408490
  69.8873450  93.7802290 102.1553480  71.0183750  94.7238860 101.8058260
  56.6915180  92.0640430  91.1507120  57.4006880  91.6423650  90.6654400
  55.9755120  92.1315660  90.5190470  56.3389340  88.1179760  90.1909770
  57.0617470  88.6588700  90.5090990  56.6113860  87.8443180  89.3151310
  70.1480990  92.9872230  94.4581350  70.6440110  92.7543100  95.2430230
  69.9497060  92.1484070  94.0418990  56.0281530  87.3685950 100.0932390
  56.6757720  86.8183330  99.6527550  56.4483370  87.6229100 100.9148200
  71.5768150  91.6233180  96.9919030  71.4667430  91.4689220  97.9301300
  72.3375740  91.0954120  96.7494440  72.4658420  89.4541100  90.2325170
  73.3907730  89.3222280  90.0243460  72.4434210  89.5333920  91.1861620
  72.5396910  90.2251760  92.8581880  71.7448410  90.1596880  93.3874790
  72.7440190  91.1602400  92.8467230  69.4815330 104.2643310  96.8520270
  70.0774400 103.9427880  96.1754690  69.7393480 103.7915130  97.6433540
  61.0883930 102.2520810 102.6020620  60.8475290 102.5195370 101.7151140
  62.0286570 102.4226540 102.6571480  70.0327540 104.9138610 100.6818000
  69.5730510 105.6654420 100.3076020  69.4040000 104.1945080 100.6232800
  60.4623260 103.2226850  99.8566130  60.9788280 102.6114210  99.3314390
  61.1120640 103.7255630 100.3477140  63.2018760 104.1135340 100.6835110
  63.4896570 103.8589640  99.8068120  63.7141980 103.5612700 101.2740680
  64.4195770  87.8525540 101.2631620  63.6367560  88.3271040 101.5428380
  64.1258700  86.9480370 101.1544800  68.9716840  88.5548640  99.3080710
  69.4124930  88.4993740  98.4602310  68.7024430  89.4706650  99.3790890
  70.8355410  88.1863880  97.3189530  70.7743810  87.2425100  97.1720550
  71.6147440  88.2943970  97.8642990  55.1408160 104.3256240  96.2813480
  54.9730200 103.6926920  96.9795370  54.2742670 104.5315640  95.9307670
  55.7636180  88.1573020  93.7845340  56.5215540  88.2701900  93.2109370
  55.3013350  88.9942220  93.7388770  62.3049990  90.2712290  96.7747650
  61.4924500  89.8969180  96.4343530  62.8091630  89.5157370  97.0768840
  66.8074970  86.9354740  98.0130720  67.4104340  87.5074950  98.4879240
  66.0667960  87.4994180  97.7904620  69.9509570  87.3376300  93.2871000
  70.1460200  88.2359750  93.5538430  69.1639440  87.1063380  93.7803950
  56.7470860 103.0189470  93.7263620  56.2218480 103.3997500  93.0225580
  56.6715440 103.6440240  94.4473330  58.1361330  88.6837070  92.3247310
  58.6654090  87.8966870  92.1955260  58.7689650  89.3628260  92.5582840
  60.3299170  88.4212210  95.3792700  59.7001910  87.7199520  95.5462830
  59.7904310  89.1816340  95.1625860  71.5036180 104.5777010  95.0477560
  71.6788370 103.8914750  94.4038480  70.8057750 105.1024060  94.6554230
  59.3463830 104.9671850  92.6012870  60.0782650 104.6831130  92.0536760
  59.6057500 104.7285130  93.4912250  58.5078620 101.0836580  92.6059200
  57.8787500 101.5521680  93.1545030  58.6226450 100.2385800  93.0405390
  65.9628340  95.1342240  78.7560400  65.8822390  94.2196850  78.4852110
  65.5492760  95.6309310  78.0500110  64.0946380  96.9121260  80.6369670
  63.3188480  96.4321700  80.9268240  64.7459310  96.2326910  80.4625830
  58.1112210  97.2241070  81.5145430  57.2797090  96.9689780  81.9141940
  58.7193190  97.2951840  82.2503350  68.1153810 101.3181450  79.4168800
  67.6535340 100.5468690  79.7455970  68.9279360 101.3447520  79.9221250
  58.0913470 101.2581160  81.7103450  58.3941510 100.3678900  81.5313670
  58.8357060 101.8151380  81.4825700  56.5204160  92.1842960  75.2987820
  55.6320860  92.5258930  75.1967700  56.8045350  91.9843280  74.4068650
  54.4837170  94.7848610  81.1827520  55.0553280  94.0170810  81.1831160
  54.4838710  95.0837370  80.2734130  64.3417120 103.6039460  79.0372790
  63.7228560 104.0596960  78.4667230  65.1968900 103.7590920  78.6362490
  63.5355370  99.5878450  80.6439830  63.4663650  98.6468390  80.4828960
  64.2975230  99.6779860  81.2162400  55.7262040  90.1932970  82.9696450
  55.5464880  89.2958720  83.2499210  55.3242120  90.7404840  83.6443400
  64.5660540  92.3948830  80.8708760  64.9425360  91.5220710  80.7582430
  64.4680050  92.7307530  79.9799200  58.6965550  90.7674460  76.3326200
  58.8032300  91.6678190  76.6394960  57.7857910  90.7192430  76.0420850
  68.3484660  89.8899270  77.8037100  69.1694280  89.3995840  77.8462580
  68.3818740  90.4796930  78.5568940  56.3448710  92.6893470  81.5778790
  57.0258820  92.9531840  82.1966190  56.0296760  91.8494340  81.9116800
  60.5373280  93.7360830  80.6651380  61.0451500  94.2341800  81.3056400
  61.0686520  92.9596030  80.4890740  72.6384210  91.9066020  84.3680730
  71.9336380  92.2947730  83.8495840  72.9042130  92.6016310  84.9701660
  58.8209380  88.3759390  84.9314800  58.8227820  88.8931780  84.1260700
  57.9913690  87.8989570  84.9084730  65.2080470  98.4878700  76.4304700
  64.5897740  98.9528150  75.8667420  65.7203720  99.1806180  76.8474210
  60.0712230  98.0154570  83.1088300  59.7381610  98.6423490  83.7509370
  60.2478910  98.5416450  82.3289970  68.5846140  91.8299650  80.5764640
  67.8801710  92.1184540  81.1567750  68.9458300  92.6399760  80.2164200
  58.5024710  90.0869350  82.9385250  58.8441520  90.9311400  82.6439120
  57.5640520  90.2353090  83.0550590  59.2831330  99.9835370  84.9237480
  59.9005330 100.6586450  84.6421930  58.4224450 100.3923350  84.8324980
  54.5763670  99.1735230  73.8044330  54.1991650  99.6622330  73.0729230
  54.8336740  99.8460510  74.4350860  70.2008920 101.4474780  82.8392120
  69.5172440 102.1173890  82.8308790  70.7403210 101.6455430  82.0736980
  71.6533060  91.2754440  80.9673850  70.7057970  91.3093420  81.0989280
  71.9783050  92.0893390  81.3523210  62.1852600  87.5751620  79.2629840
  62.4927580  87.0198510  78.5465340  61.2553300  87.7096080  79.0802830
  67.7367660 103.2918910  81.5537300  67.7494820 102.8881200  80.6859560
  67.1842880 104.0666200  81.4498730  69.0313080 100.0135130  76.6427470
  68.9209410  99.0709460  76.7676890  69.0281330 100.3750770  77.5290230
  67.1353100  98.1948750  82.8819910  67.5521890  97.9808860  82.0473370
  67.8592920  98.4521540  83.4528530  64.5733360  95.6400450  75.9989960
  63.6462640  95.5737830  76.2278430  64.7258180  96.5780580  75.8845200
  64.5602440  91.9117450  72.9957120  63.6206110  92.0731410  73.0809580
  64.8785700  92.6303130  72.4493110  71.0815200  96.5935970  82.9736150
  70.2533830  96.6629060  82.4986280  71.6765680  97.1790280  82.5051980
  68.6030650  97.2020750  76.5025210  67.9843070  96.8640300  75.8551510
  68.5855100  96.5580510  77.2104400  68.0457210  93.3805290  83.9191020
  67.6328390  94.2059000  84.1731010  67.3133160  92.7950330  83.7267380
  60.1790000  96.1665190  78.7809690  59.7747000  95.4542440  78.2855590
  60.2653120  95.8218430  79.6697730  60.6471700  99.8532750  80.9448900
  60.3499990  99.2478220  80.2656680  61.5971520  99.8910060  80.8338260
  58.8918620  92.9408400  82.5608730  59.4433210  93.0503740  81.7861980
  59.4062130  93.3146000  83.2763960  68.7357310 103.4264620  84.6072000
  68.2587870 104.2336810  84.4144610  68.0519100 102.7742950  84.7598210
  59.7390130  99.5914440  87.5956700  58.8418660  99.8154410  87.8430100
  59.7643000  99.7149380  86.6468100  66.7795350  96.4407560  73.5097960
  67.2188630  95.6029990  73.3635780  67.4923770  97.0736960  73.5962100
  58.5661350  96.4627760  86.1714070  58.4269120  97.3350560  86.5401470
  57.6842710  96.1200570  86.0262010  64.8890730 101.3803630  77.4779200
  65.3286640 102.1227960  77.0634590  64.8277620 101.6230200  78.4018160
  60.3641700 102.4049460  88.3799220  60.3357130 102.8092410  87.5127650
  60.2006670 101.4759820  88.2170820  70.3612490  87.6950370  71.8239000
  70.0485150  87.7877200  72.7238070  71.1224960  88.2731400  71.7736430
  56.8794630  95.0610170  76.2816340  56.7592230  95.7872260  75.6697610
  56.5695520  94.2913080  75.8044250  72.3156520 103.1876560  89.6763390
  72.7916240 103.6659450  90.3552470  72.9363680 103.1194050  88.9508890
  54.5180000  98.2325310  82.0884980  54.5960420  98.3674080  81.1440700
  55.1321680  97.5241200  82.2813100  55.7627630  99.9325500  78.4991160
  55.3555710 100.0740090  77.6444760  56.6540640  99.6485660  78.2962370
  71.7189770 100.3789410  86.8363400  71.8452830 100.1401290  85.9180580
  71.7611150  99.5473950  87.3085480  65.5806510 104.0817410  85.4058210
  66.0951180 103.9925420  86.2080640  64.7375590 104.4277110  85.6986120
  67.5560910 104.3672750  74.8342210  67.3962050 104.0775690  75.7324040
  67.3907620 103.5912880  74.2987440  60.0349290 104.1471280  76.6113830
  59.8591770 103.2306820  76.3981630  59.1805030 104.5058570  76.8511630
  67.2587040 101.8760310  73.3940210  66.5652200 101.8737600  72.7342490
  68.0009900 101.4519630  72.9634380  66.8236970 103.5023020  77.4688700
  67.2793920 102.7212400  77.7827320  67.1629490 104.2129840  78.0129880
  71.5713780  92.4321870  87.8013140  70.9558050  92.9401540  87.2728600
  71.2510200  91.5320200  87.7439080  54.5739520  99.2739480  84.6279440
  54.7370560  98.8044840  83.8098810  55.0391970  98.7663040  85.2928280
  59.3458290  88.4045240  79.6640010  58.9026440  89.1854780  79.3324530
  59.9043280  88.7275130  80.3710950  63.6328100  91.2713760  85.2675330
  63.1707470  91.4796780  86.0795270  63.2306210  90.4573110  84.9646000
  68.6332610  92.4922710  86.3971990  67.7826200  92.1928460  86.7181060
  68.4734400  92.7364720  85.4855810  65.7282320  93.9924460  88.4970780
  66.0535730  93.1588210  88.1573010  66.5162650  94.5152980  88.6449110
  62.4617110  88.0255940  74.5445840  61.8371290  88.0215810  75.2699150
  62.3747230  87.1586900  74.1481810  61.3834190  88.9492570  81.5229610
  61.6806520  89.8555400  81.4421630  61.9319750  88.4611350  80.9089180
  59.1372510  93.5278810  77.3921260  58.9113430  93.3115980  78.2967880
  58.3565040  93.9607270  77.0467230  66.3670270  93.5342180  75.9911910
  65.7679160  94.2577980  75.8075530  66.9149880  93.4718960  75.2088360
  61.5771720  94.4264390  88.0581530  61.4815320  93.4859120  87.9081930
  62.4203700  94.6479460  87.6629600  64.9735140  92.1705720  78.0215190
  65.3664710  92.4877920  77.2083880  65.3351990  91.2917600  78.1359710
  56.7082260  90.8378060  86.2115310  56.3145650  91.6853270  86.4188090
  56.0200660  90.2004430  86.4023950  63.2827310  90.9213030  89.2812050
  62.5925630  90.7285230  89.9158140  64.0259610  91.2047670  89.8136350
  54.0099310  88.7606520  80.2445390  53.7212360  89.3309380  80.9570370
  54.7545070  88.2810970  80.6076620  54.1969540  92.7026640  71.4548110
  54.1144210  93.6457400  71.5963100  53.8452600  92.5601550  70.5760460
  65.5590280  94.7611470  82.1165970  64.8271400  95.2698280  82.4656070
  65.1614620  93.9441450  81.8154750  61.9967670  91.4365670  80.5218460
  62.0003730  90.9955620  79.6723000  62.8918790  91.7583000  80.6290280
  57.8470050  91.3192160  79.4812670  57.5070100  91.7967390  80.2379720
  57.0847370  90.8657280  79.1213770  62.0587820  92.4377750  73.5125220
  62.1800640  92.3964230  74.4611040  61.6736330  93.3001900  73.3571950
  66.0216190  90.2145150  81.5288910  66.0388930  90.6653800  82.3730760
  65.7731770  89.3150790  81.7422350  61.0709320  94.7478890  72.9108520
  60.5026220  94.2997140  72.2844430  61.7798320  95.1071670  72.3773670
  69.4486940  87.6277330  87.3675290  69.7732710  86.8966990  87.8933270
  69.4843450  87.3090970  86.4656280  56.1478500  98.6490910  86.7875250
  55.7633290  98.0084580  87.3858210  56.4590690  99.3527030  87.3569980
  62.2975640  95.4967450  82.2683870  62.6645770  95.0226020  83.0145210
  62.1080700  96.3709020  82.6092210  55.1616130  90.2411140  78.3977340
  54.8763050  89.8766810  79.2355960  55.0994990  89.5091600  77.7840480
  60.0875010  94.5376090  84.5868080  59.7832080  95.4168070  84.8118440
  61.0421470  94.5975880  84.6225520  58.6156800  98.7437080  75.1834930
  57.8419060  98.2034700  75.0233650  59.3451430  98.2243690  74.8452690
  69.3744780  97.7402440  80.9761320  70.0943900  98.2357730  80.5857430
  69.1726600  97.0620330  80.3315190  64.8354720  89.1340400  75.1190710
  64.0219330  88.6353570  75.0436020  64.6416670  89.9738650  74.7027060
  64.7563580  97.8111500  86.8630320  64.6900890  96.8907170  86.6087910
  64.1268720  97.9086940  87.5774960  67.5503110  93.5060050  73.4152870
  68.4382730  93.8177280  73.2404210  67.5208200  92.6332300  73.0233450
  58.6594200  98.4117460  78.8213740  59.1772870  97.6085720  78.7670630
  58.2078220  98.3496600  79.6630570  63.5463700  99.6783740  74.0941040
  63.8879400 100.4225970  73.5984360  62.7176410  99.9914860  74.4565870
  56.1438740  95.3778830  85.7339440  55.7853680  96.0432680  86.3212780
  55.8493300  94.5462380  86.1052060  59.3451860  95.8363070  88.6178990
  59.0452000  95.9820250  87.7206810  60.1163100  95.2768360  88.5252380
  64.6880310 100.6332070  86.6134120  64.7024850  99.7013030  86.3953030
  63.9805410 100.7191830  87.2523890  69.8217380  94.8171890  72.8832730
  69.7381100  95.2486110  72.0329170  70.5411570  95.2770240  73.3159550
  70.8991520  97.2739410  85.9602700  70.1739710  97.8668190  85.7632090
  71.4266980  97.2662950  85.1616070  70.8504630 101.6714150  75.6114860
  70.2080790 101.0169770  75.8858580  70.4635290 102.0769240  74.8355530
  66.4291110  98.9999580  79.4586550  66.7814930  98.4027710  78.7987920
  65.5453440  98.6743810  79.6294800  62.5154390  99.7597270  76.8656960
  63.2025520 100.3066480  77.2464550  61.7286810 100.3038000  76.9006570
  54.6546790  95.3770090  72.3574040  55.5241640  95.6594890  72.6409960
  54.1637110  96.1905960  72.2422850  61.8181600  96.7643300  76.4782320
  62.2744380  97.5748550  76.7042510  61.4669810  96.4466440  77.3100810
  64.1214210 102.2749640  83.7074620  64.7656430 102.4809020  84.3848040
  64.4843650 101.5138040  83.2545470  57.7193380  87.1080950  76.9504840
  57.5908010  87.0998850  77.8989760  56.8955400  87.4464040  76.5995850
  65.3946290 100.2781990  82.4252070  66.0368520  99.5775150  82.5384240
  65.9195640 101.0580430  82.2448960  69.2402010 100.5630610  72.1491210
  69.0139590  99.8461050  72.7415850  68.8498210 100.3143050  71.3112960
  67.1683910 101.0776890  85.6288130  67.5040150 101.6643580  86.3066050
  66.2484250 100.9469600  85.8585920  55.0218040 104.5897470  72.9235670
  55.3815680 105.1886810  72.2692940  54.8810380 105.1357360  73.6970700
  54.7187310  88.8672070  86.4111540  54.0045830  89.0668990  87.0164150
  55.1382350  88.0911640  86.7826340  68.8218260  98.4802550  73.8105370
  68.5339960  98.9415240  74.5983250  69.6170430  98.0200320  74.0789590
  55.0059900 102.8552330  87.3978070  55.1151020 101.9147070  87.2573460
  54.3540460 103.1207080  86.7491800  62.9972490 101.1268220  88.7976190
  62.6769360 100.4077460  89.3421880  62.3230850 101.8023290  88.8712250
  61.0386660 101.9728670  73.7409340  61.0296760 102.7058360  73.1253850
  60.1185020 101.7260250  73.8336300  56.6393300  97.1943560  74.4856100
  56.0321250  97.9342460  74.4951400  57.1142650  97.2842920  73.6594300
  66.2126090  91.3594380  84.1612990  66.5806910  90.5389590  84.4892560
  65.3524290  91.4196270  84.5768640  69.5788120  90.3151320  74.9700550
  68.9501280  90.4196990  74.2558780  69.0840040  90.5348100  75.7594430
  64.0246260 102.0356910  72.4034530  64.1258240 101.8320900  71.4736510
  63.1248000 101.7815190  72.6082310  61.5472150  92.5937270  76.3858430
  60.8388300  93.0623610  76.8272040  61.8316630  91.9359280  77.0203620
  63.1728080  94.0133970  84.3850960  63.6713330  94.4879790  85.0502810
  63.3151030  93.0897490  84.5920990  65.5787580  89.3187930  77.8254220
  65.4555360  89.3374060  76.8763730  66.5272140  89.3666870  77.9452620
  62.6664370 104.5543230  77.0982200  62.9205870 104.5164620  76.1761570
  61.7176850 104.4276560  77.0910450  59.7507170  90.9022350  73.7609140
  60.5997700  91.3392500  73.6949330  59.3838440  91.2142610  74.5881200
  70.3794940  90.2301930  85.2279350  69.8768540  90.9707330  85.5673160
  71.1951600  90.6185930  84.9116140  68.6716950  95.4735110  78.6740710
  67.7307090  95.4885340  78.8488400  68.9861020  94.6871070  79.1201010
  58.6498590  97.1554710  72.2344670  59.4161860  97.0436070  72.7970100
  58.7273280  96.4592680  71.5821440  57.3445350  94.5879780  72.9177560
  57.4248940  93.6407290  73.0294960  58.2365100  94.9186660  73.0238220
  70.6742530 102.6443960  80.3494970  70.7989950 103.4675130  80.8218780
  71.5408090 102.4334690  80.0019120  58.1460060 104.7375170  80.0212100
  58.8822540 104.1890630  80.2920670  58.5300980 105.6031180  79.8818090
  55.0305540 100.8048740  75.8953610  54.1045320 101.0469880  75.8859020
  55.4961970 101.6323000  75.7738360  57.1518340 103.9221240  89.2097680
  57.9531070 104.2433290  89.6233080  56.6370160 103.5616820  89.9317590
  61.2562370 103.9105480  71.8437670  62.0490980 104.1994310  71.3919460
  60.7366720 103.4797650  71.1650150  65.9882970 100.0301110  89.1573090
  65.3821130 100.0532710  88.4168840  65.6837080  99.2984150  89.6940340
  67.4183340 103.7581400  87.7682500  68.3705090 103.6739420  87.7182740
  67.2711560 104.4223110  88.4416290  70.3092540 103.1375610  73.2674410
  70.0234050 102.7240750  72.4528590  70.1112090 104.0663320  73.1474930
  54.8716150  96.4094700  88.1533730  55.3755170  95.8301980  88.7249960
  54.1323570  96.6934930  88.6910100  61.7739770  99.1308890  71.7080020
  61.6690410  98.5161240  72.4341400  61.6063990  98.6074780  70.9243030
  61.9254090  97.8165690  87.6869250  61.1599760  98.3850690  87.6023920
  62.1070050  97.5241900  86.7937480  65.0142500  98.1928920  72.3122010
  64.4652600  98.6398220  72.9564750  65.6361760  97.6878170  72.8359680
  69.0677440  99.5471020  88.2444270  69.8086910  99.8846780  87.7411730
  68.3050120  99.7163080  87.6914040  56.9039230  94.5524290  89.0483800
  56.9444570  94.2538160  89.9569030  57.7584730  94.9531900  88.8891320
  60.6817620  97.1519840  74.2087310  61.1034040  96.9859710  75.0518700
  60.8068460  96.3420070  73.7142450  58.8445040  93.1316390  87.0158290
  58.3141500  92.6407340  86.3881630  59.5133110  93.5600590  86.4816220
  63.1945260  96.1757450  71.4564410  63.7150920  95.4606470  71.0905560
  63.8413660  96.8143320  71.7564920  67.7423100  97.5985850  86.7799480
  68.1564120  97.7530930  87.6289900  66.8074100  97.7241070  86.9425260
  68.2145270  94.9382010  88.7838630  68.7966040  94.1834330  88.6959110
  68.3907040  95.4689450  88.0070110  59.3317340  90.0978760  87.0955580
  59.2374210  89.4799510  86.3706450  58.7514730  90.8245050  86.8685490
  62.0978780  88.6552000  84.1282970  61.6496080  88.6776260  83.2828520
  61.4643980  88.2571020  84.7253270  62.5038330  97.5506330  84.7495410
  62.9226440  98.3939060  84.5771650  61.5846960  97.6878370  84.5202190
  64.8402230  95.2822510  86.1333250  64.9598440  94.6863650  86.8728090
  65.6996230  95.3192200  85.7134550  67.1790130  95.8359700  84.7095760
  66.6525350  96.3602320  84.1060900  67.5221470  96.4687090  85.3405490
  59.5776520  93.2253070  71.1545470  59.3765580  92.3620430  71.5158810
  59.4068570  93.1386430  70.2167070  60.3545750 103.8559340  85.8653140
  59.8166840 104.5805400  85.5461840  60.6079710 103.3789680  85.0750480
  61.6071000  91.8243860  87.3909070  62.1970690  91.5159710  88.0786890
  60.7891240  91.3523610  87.5468970  66.4264430  91.4409670  87.6242090
  65.7379950  90.7791210  87.5592080  67.1470450  90.9947940  88.0690550
  67.0564830  88.0361300  73.6832350  67.3367120  87.1929200  74.0391770
  66.2830560  88.2684410  74.1971100  58.3759320  90.3253690  71.1423350
  58.6785220  90.3321120  70.2342500  59.1153910  89.9751550  71.6391010
  63.2107960 105.0910550  86.1239790  63.1366660 105.9945690  86.4312160
  62.3086800 104.7722450  86.0961860  61.5944250  89.2688310  72.1279550
  61.2466250  88.5912300  71.5482000  61.7957020  88.8077820  72.9422940
  63.7593290 104.2569060  73.7466150  64.6544080 104.5954030  73.7684910
  63.7910920 103.5348470  73.1190430  57.3989450  99.6296110  71.9753150
  57.8364320 100.1725780  72.6310730  57.8837180  98.8043060  71.9849490
  54.6135250 102.4185140  79.4273410  54.9438260 101.5506200  79.1952050
  55.0426250 102.6243660  80.2578370  59.2097170 100.7494150  77.0875380
  58.9092710 100.6259120  77.9879290  59.1034660  99.8902740  76.6791110
  55.1025460 103.2855730  82.1655040  54.6656450 103.4656530  82.9979190
  55.6703140 104.0430350  82.0236760  70.7387640 102.7872730  86.4532350
  70.1389630 102.8465290  85.7096270  70.8681540 101.8477710  86.5829200
  71.9789090 100.5290550  71.7902060  71.1482050 100.5967200  72.2609290
  72.1560920 101.4194670  71.4868920  71.4345550  97.2738030  74.2936260
  72.1964460  97.8434680  74.3995950  71.4499920  96.7065230  75.0644570
  54.9349890  95.7975960  78.5243920  54.2798730  95.5287600  77.8803620
  55.7727840  95.6880440  78.0745900  72.4405520  98.1288130  79.1378190
  72.8114350  97.3455450  78.7314160  73.0807450  98.8177230  78.9595490
  69.4239280  99.5124710  84.5508510  68.6099120  99.9421870  84.8134300
  69.8313480 100.1243120  83.9377560  71.4864720  97.5672400  71.4508780
  71.7613560  98.4751280  71.3228000  71.2975460  97.5034930  72.3870770
  67.8840330  90.5917250  72.7462410  68.3025210  90.4048230  71.9059070
  67.5776390  89.7396300  73.0565340  71.3830060  95.5041390  76.4438210
  71.0073660  94.7369320  76.0119500  70.6533180  95.8864090  76.9313140
  55.9725820  96.1828530  83.0647260  56.3398860  96.0955930  83.9443280
  55.4036640  95.4195080  82.9654120  70.7729680  94.6512910  86.0777730
  70.5415770  94.4225660  85.1775680  71.0334230  95.5712460  86.0322620
  55.5241820  93.0937620  86.9705680  54.6297870  93.0604380  87.3099390
  56.0639370  93.2924410  87.7356930  69.2117750  89.8769340  88.8557430
  70.0887930  89.8852740  89.2391430  69.2238590  89.1400180  88.2449780
  54.1487970  93.0074890  74.4669250  53.2452050  93.2705090  74.2920910
  54.6328590  93.2786060  73.6869210  70.6581020  93.7298880  79.7445450
  71.1818500  93.2361530  79.1135620  71.2440440  93.8649240  80.4893020
  70.8370740  93.8138750  83.2665000  69.8873450  93.7802290  83.3809990
  71.0183750  94.7238860  83.0314770  56.6915180  92.0640430  72.3763630
  57.4006880  91.6423650  71.8910910  55.9755120  92.1315660  71.7446980
  56.3389340  88.1179760  71.4166280  57.0617470  88.6588700  71.7347500
  56.6113860  87.8443180  70.5407820  70.1480990  92.9872230  75.6837860
  70.6440110  92.7543100  76.4686740  69.9497060  92.1484070  75.2675500
  56.0281530  87.3685950  81.3188900  56.6757720  86.8183330  80.8784060
  56.4483370  87.6229100  82.1404710  71.5768150  91.6233180  78.2175540
  71.4667430  91.4689220  79.1557810  72.3375740  91.0954120  77.9750950
  69.9233870  87.5627310  84.6758540  70.5606090  88.1761450  85.0417730
  70.0708760  87.5987970  83.7307770  72.4658420  89.4541100  71.4581680
  73.3907730  89.3222280  71.2499970  72.4434210  89.5333920  72.4118130
  72.5396910  90.2251760  74.0838390  71.7448410  90.1596880  74.6131300
  72.7440190  91.1602400  74.0723740  69.4815330 104.2643310  78.0776780
  70.0774400 103.9427880  77.4011200  69.7393480 103.7915130  78.8690050
  55.7813530  87.5241620  84.0614220  55.4328350  87.9805440  84.8272400
  55.4501230  86.6298750  84.1436650  57.3877900 100.6961220  88.2267410
  57.3447530 100.3254130  89.1081870  57.5188910 101.6338790  88.3669230
  61.0883930 102.2520810  83.8277130  60.8475290 102.5195370  82.9407650
  62.0286570 102.4226540  83.8827990  63.2938350  88.7153500  87.5833640
  63.2327240  89.3075330  88.3329050  64.2338730  88.6079460  87.4383900
  65.9312910  88.3723560  87.2225930  66.5453320  88.6902850  86.5607010
  66.4762470  87.8872150  87.8421790  72.3488090 104.2715190  84.6287770
  71.8546370 104.6684060  83.9114900  71.7401380 103.6464400  85.0225050
  56.4534170  87.0517820  87.3364990  57.0017160  86.8705870  86.5731100
  56.5189480  86.2611930  87.8721300  57.2265930 103.6423470  85.3465190
  56.6326250 103.5108170  86.0855230  57.2189770 102.8061610  84.8807290
  66.6720950  86.9355700  83.5495220  65.7980790  87.2690810  83.3468150
  66.5631700  86.4628880  84.3747090  67.5792930  89.1426570  84.9336940
  67.2506290  88.3278330  84.5538670  68.5275230  89.0996380  84.8102630
  70.0327540 104.9138610  81.9074510  69.5730510 105.6654420  81.5332530
  69.4040000 104.1945080  81.8489310  56.8578160 101.0081850  84.2973230
  56.1312220 100.3887140  84.2299180  56.9187310 101.4022460  83.4271310
  60.4623260 103.2226850  81.0822640  60.9788280 102.6114210  80.5570900
  61.1120640 103.7255630  81.5733650  63.2018760 104.1135340  81.9091620
  63.4896570 103.8589640  81.0324630  63.7141980 103.5612700  82.4997190
  64.4195770  87.8525540  82.4888130  63.6367560  88.3271040  82.7684890
  64.1258700  86.9480370  82.3801310  68.9716840  88.5548640  80.5337220
  69.4124930  88.4993740  79.6858820  68.7024430  89.4706650  80.6047400
  70.8355410  88.1863880  78.5446040  70.7743810  87.2425100  78.3977060
  71.6147440  88.2943970  79.0899500  55.1408160 104.3256240  77.5069990
  54.9730200 103.6926920  78.2051880  54.2742670 104.5315640  77.1564180
  55.7636180  88.1573020  75.0101850  56.5215540  88.2701900  74.4365880
  55.3013350  88.9942220  74.9645280  62.3049990  90.2712290  78.0004160
  61.4924500  89.8969180  77.6600040  62.8091630  89.5157370  78.3025350
  66.8074970  86.9354740  79.2387230  67.4104340  87.5074950  79.7135750
  66.0667960  87.4994180  79.0161130  69.9509570  87.3376300  74.5127510
  70.1460200  88.2359750  74.7794940  69.1639440  87.1063380  75.0060460
  56.7470860 103.0189470  74.9520130  56.2218480 103.3997500  74.2482090
  56.6715440 103.6440240  75.6729840  58.1361330  88.6837070  73.5503820
  58.6654090  87.8966870  73.4211770  58.7689650  89.3628260  73.7839350
  60.3299170  88.4212210  76.6049210  59.7001910  87.7199520  76.7719340
  59.7904310  89.1816340  76.3882370  63.2691120 105.0351440  89.2759820
  64.1958430 104.7995710  89.3195780  63.2541550 105.8623440  88.7945850
  71.5036180 104.5777010  76.2734070  71.6788370 103.8914750  75.6294990
  70.8057750 105.1024060  75.8810740  60.4554730  87.6996190  89.0401700
  60.1739000  88.2029790  88.2762520  60.8374430  86.9017940  88.6743830
  59.3463830 104.9671850  73.8269380  60.0782650 104.6831130  73.2793270
  59.6057500 104.7285130  74.7168760  58.5078620 101.0836580  73.8315710
  57.8787500 101.5521680  74.3801540  58.6226450 100.2385800  74.2661900
  67.0570190  87.1149770  89.6182170  66.9435640  87.4344380  90.5133690
  67.8739930  87.5162280  89.3219450  69.8368680 104.2621300  89.1000860
  70.6294000 103.7670530  88.8926820  70.1301830 104.9411440  89.7076470
  65.9628340  95.1342240  59.9816910  65.8822390  94.2196850  59.7108620
  65.5492760  95.6309310  59.2756620  64.0946380  96.9121260  61.8626180
  63.3188480  96.4321700  62.1524750  64.7459310  96.2326910  61.6882340
  58.1112210  97.2241070  62.7401940  57.2797090  96.9689780  63.1398450
  58.7193190  97.2951840  63.4759860  68.1153810 101.3181450  60.6425310
  67.6535340 100.5468690  60.9712480  68.9279360 101.3447520  61.1477760
  58.0913470 101.2581160  62.9359960  58.3941510 100.3678900  62.7570180
  58.8357060 101.8151380  62.7082210  56.5204160  92.1842960  56.5244330
  55.6320860  92.5258930  56.4224210  56.8045350  91.9843280  55.6325160
  54.4837170  94.7848610  62.4084030  55.0553280  94.0170810  62.4087670
  54.4838710  95.0837370  61.4990640  64.3417120 103.6039460  60.2629300
  63.7228560 104.0596960  59.6923740  65.1968900 103.7590920  59.8619000
  63.5355370  99.5878450  61.8696340  63.4663650  98.6468390  61.7085470
  64.2975230  99.6779860  62.4418910  55.7262040  90.1932970  64.1952960
  55.5464880  89.2958720  64.4755720  55.3242120  90.7404840  64.8699910
  64.5660540  92.3948830  62.0965270  64.9425360  91.5220710  61.9838940
  64.4680050  92.7307530  61.2055710  58.6965550  90.7674460  57.5582710
  58.8032300  91.6678190  57.8651470  57.7857910  90.7192430  57.2677360
  68.3484660  89.8899270  59.0293610  69.1694280  89.3995840  59.0719090
  68.3818740  90.4796930  59.7825450  56.3448710  92.6893470  62.8035300
  57.0258820  92.9531840  63.4222700  56.0296760  91.8494340  63.1373310
  60.5373280  93.7360830  61.8907890  61.0451500  94.2341800  62.5312910
  61.0686520  92.9596030  61.7147250  72.6384210  91.9066020  65.5937240
  71.9336380  92.2947730  65.0752350  72.9042130  92.6016310  66.1958170
  65.2080470  98.4878700  57.6561210  64.5897740  98.9528150  57.0923930
  65.7203720  99.1806180  58.0730720  60.0712230  98.0154570  64.3344810
  59.7381610  98.6423490  64.9765880  60.2478910  98.5416450  63.5546480
  68.5846140  91.8299650  61.8021150  67.8801710  92.1184540  62.3824260
  68.9458300  92.6399760  61.4420710  59.2831330  99.9835370  66.1493990
  59.9005330 100.6586450  65.8678440  58.4224450 100.3923350  66.0581490
  54.5763670  99.1735230  55.0300840  54.1991650  99.6622330  54.2985740
  54.8336740  99.8460510  55.6607370  70.2008920 101.4474780  64.0648630
  69.5172440 102.1173890  64.0565300  70.7403210 101.6455430  63.2993490
  71.6533060  91.2754440  62.1930360  70.7057970  91.3093420  62.3245790
  71.9783050  92.0893390  62.5779720  67.7367660 103.2918910  62.7793810
  67.7494820 102.8881200  61.9116070  67.1842880 104.0666200  62.6755240
  69.0313080 100.0135130  57.8683980  68.9209410  99.0709460  57.9933400
  69.0281330 100.3750770  58.7546740  67.1353100  98.1948750  64.1076420
  67.5521890  97.9808860  63.2729880  67.8592920  98.4521540  64.6785040
  64.5733360  95.6400450  57.2246470  63.6462640  95.5737830  57.4534940
  64.7258180  96.5780580  57.1101710  64.5602440  91.9117450  54.2213630
  63.6206110  92.0731410  54.3066090  64.8785700  92.6303130  53.6749620
  71.0815200  96.5935970  64.1992660  70.2533830  96.6629060  63.7242790
  71.6765680  97.1790280  63.7308490  68.6030650  97.2020750  57.7281720
  67.9843070  96.8640300  57.0808020  68.5855100  96.5580510  58.4360910
  68.0457210  93.3805290  65.1447530  67.6328390  94.2059000  65.3987520
  67.3133160  92.7950330  64.9523890  60.1790000  96.1665190  60.0066200
  59.7747000  95.4542440  59.5112100  60.2653120  95.8218430  60.8954240
  60.6471700  99.8532750  62.1705410  60.3499990  99.2478220  61.4913190
  61.5971520  99.8910060  62.0594770  58.8918620  92.9408400  63.7865240
  59.4433210  93.0503740  63.0118490  59.4062130  93.3146000  64.5020470
  68.7357310 103.4264620  65.8328510  68.2587870 104.2336810  65.6401120
  68.0519100 102.7742950  65.9854720  59.7390130  99.5914440  68.8213210
  58.8418660  99.8154410  69.0686610  59.7643000  99.7149380  67.8724610
  66.7795350  96.4407560  54.7354470  67.2188630  95.6029990  54.5892290
  67.4923770  97.0736960  54.8218610  58.5661350  96.4627760  67.3970580
  58.4269120  97.3350560  67.7657980  57.6842710  96.1200570  67.2518520
  64.8890730 101.3803630  58.7035710  65.3286640 102.1227960  58.2891100
  64.8277620 101.6230200  59.6274670  60.3641700 102.4049460  69.6055730
  60.3357130 102.8092410  68.7384160  60.2006670 101.4759820  69.4427330
  70.3612490  87.6950370  53.0495510  70.0485150  87.7877200  53.9494580
  71.1224960  88.2731400  52.9992940  56.8794630  95.0610170  57.5072850
  56.7592230  95.7872260  56.8954120  56.5695520  94.2913080  57.0300760
  72.3156520 103.1876560  70.9019900  72.7916240 103.6659450  71.5808980
  72.9363680 103.1194050  70.1765400  54.5180000  98.2325310  63.3141490
  54.5960420  98.3674080  62.3697210  55.1321680  97.5241200  63.5069610
  55.7627630  99.9325500  59.7247670  55.3555710 100.0740090  58.8701270
  56.6540640  99.6485660  59.5218880  71.7189770 100.3789410  68.0619910
  71.8452830 100.1401290  67.1437090  71.7611150  99.5473950  68.5341990
  65.5806510 104.0817410  66.6314720  66.0951180 103.9925420  67.4337150
  64.7375590 104.4277110  66.9242630  67.5560910 104.3672750  56.0598720
  67.3962050 104.0775690  56.9580550  67.3907620 103.5912880  55.5243950
  60.0349290 104.1471280  57.8370340  59.8591770 103.2306820  57.6238140
  59.1805030 104.5058570  58.0768140  67.2587040 101.8760310  54.6196720
  66.5652200 101.8737600  53.9599000  68.0009900 101.4519630  54.1890890
  66.8236970 103.5023020  58.6945210  67.2793920 102.7212400  59.0083830
  67.1629490 104.2129840  59.2386390  71.5713780  92.4321870  69.0269650
  70.9558050  92.9401540  68.4985110  71.2510200  91.5320200  68.9695590
  54.5739520  99.2739480  65.8535950  54.7370560  98.8044840  65.0355320
  55.0391970  98.7663040  66.5184790  63.6328100  91.2713760  66.4931840
  63.1707470  91.4796780  67.3051780  63.2306210  90.4573110  66.1902510
  68.6332610  92.4922710  67.6228500  67.7826200  92.1928460  67.9437570
  68.4734400  92.7364720  66.7112320  65.7282320  93.9924460  69.7227290
  66.0535730  93.1588210  69.3829520  66.5162650  94.5152980  69.8705620
  59.1372510  93.5278810  58.6177770  58.9113430  93.3115980  59.5224390
  58.3565040  93.9607270  58.2723740  66.3670270  93.5342180  57.2168420
  65.7679160  94.2577980  57.0332040  66.9149880  93.4718960  56.4344870
  61.5771720  94.4264390  69.2838040  61.4815320  93.4859120  69.1338440
  62.4203700  94.6479460  68.8886110  64.9735140  92.1705720  59.2471700
  65.3664710  92.4877920  58.4340390  65.3351990  91.2917600  59.3616220
  56.7082260  90.8378060  67.4371820  56.3145650  91.6853270  67.6444600
  56.0200660  90.2004430  67.6280460  63.2827310  90.9213030  70.5068560
  62.5925630  90.7285230  71.1414650  64.0259610  91.2047670  71.0392860
  54.0099310  88.7606520  61.4701900  53.7212360  89.3309380  62.1826880
  54.7545070  88.2810970  61.8333130  54.1969540  92.7026640  52.6804620
  54.1144210  93.6457400  52.8219610  53.8452600  92.5601550  51.8016970
  65.5590280  94.7611470  63.3422480  64.8271400  95.2698280  63.6912580
  65.1614620  93.9441450  63.0411260  57.8470050  91.3192160  60.7069180
  57.5070100  91.7967390  61.4636230  57.0847370  90.8657280  60.3470280
  62.0587820  92.4377750  54.7381730  62.1800640  92.3964230  55.6867550
  61.6736330  93.3001900  54.5828460  66.0216190  90.2145150  62.7545420
  66.0388930  90.6653800  63.5987270  65.7731770  89.3150790  62.9678860
  61.0709320  94.7478890  54.1365030  60.5026220  94.2997140  53.5100940
  61.7798320  95.1071670  53.6030180  69.4486940  87.6277330  68.5931800
  69.7732710  86.8966990  69.1189780  69.4843450  87.3090970  67.6912790
  56.1478500  98.6490910  68.0131760  55.7633290  98.0084580  68.6114720
  56.4590690  99.3527030  68.5826490  62.2975640  95.4967450  63.4940380
  62.6645770  95.0226020  64.2401720  62.1080700  96.3709020  63.8348720
  55.1616130  90.2411140  59.6233850  54.8763050  89.8766810  60.4612470
  55.0994990  89.5091600  59.0096990  60.0875010  94.5376090  65.8124590
  59.7832080  95.4168070  66.0374950  61.0421470  94.5975880  65.8482030
  58.6156800  98.7437080  56.4091440  57.8419060  98.2034700  56.2490160
  59.3451430  98.2243690  56.0709200  69.3744780  97.7402440  62.2017830
  70.0943900  98.2357730  61.8113940  69.1726600  97.0620330  61.5571700
  64.7563580  97.8111500  68.0886830  64.6900890  96.8907170  67.8344420
  64.1268720  97.9086940  68.8031470  67.5503110  93.5060050  54.6409380
  68.4382730  93.8177280  54.4660720  67.5208200  92.6332300  54.2489960
  58.6594200  98.4117460  60.0470250  59.1772870  97.6085720  59.9927140
  58.2078220  98.3496600  60.8887080  63.5463700  99.6783740  55.3197550
  63.8879400 100.4225970  54.8240870  62.7176410  99.9914860  55.6822380
  56.1438740  95.3778830  66.9595950  55.7853680  96.0432680  67.5469290
  55.8493300  94.5462380  67.3308570  59.3451860  95.8363070  69.8435500
  59.0452000  95.9820250  68.9463320  60.1163100  95.2768360  69.7508890
  64.6880310 100.6332070  67.8390630  64.7024850  99.7013030  67.6209540
  63.9805410 100.7191830  68.4780400  69.8217380  94.8171890  54.1089240
  69.7381100  95.2486110  53.2585680  70.5411570  95.2770240  54.5416060
  70.8991520  97.2739410  67.1859210  70.1739710  97.8668190  66.9888600
  71.4266980  97.2662950  66.3872580  70.8504630 101.6714150  56.8371370
  70.2080790 101.0169770  57.1115090  70.4635290 102.0769240  56.0612040
  66.4291110  98.9999580  60.6843060  66.7814930  98.4027710  60.0244430
  65.5453440  98.6743810  60.8551310  62.5154390  99.7597270  58.0913470
  63.2025520 100.3066480  58.4721060  61.7286810 100.3038000  58.1263080
  54.6546790  95.3770090  53.5830550  55.5241640  95.6594890  53.8666470
  54.1637110  96.1905960  53.4679360  61.8181600  96.7643300  57.7038830
  62.2744380  97.5748550  57.9299020  61.4669810  96.4466440  58.5357320
  64.1214210 102.2749640  64.9331130  64.7656430 102.4809020  65.6104550
  64.4843650 101.5138040  64.4801980  57.7193380  87.1080950  58.1761350
  57.5908010  87.0998850  59.1246270  56.8955400  87.4464040  57.8252360
  65.3946290 100.2781990  63.6508580  66.0368520  99.5775150  63.7640750
  65.9195640 101.0580430  63.4705470  69.2402010 100.5630610  53.3747720
  69.0139590  99.8461050  53.9672360  68.8498210 100.3143050  52.5369470
  67.1683910 101.0776890  66.8544640  67.5040150 101.6643580  67.5322560
  66.2484250 100.9469600  67.0842430  55.0218040 104.5897470  54.1492180
  55.3815680 105.1886810  53.4949450  54.8810380 105.1357360  54.9227210
  54.7187310  88.8672070  67.6368050  54.0045830  89.0668990  68.2420660
  55.1382350  88.0911640  68.0082850  68.8218260  98.4802550  55.0361880
  68.5339960  98.9415240  55.8239760  69.6170430  98.0200320  55.3046100
  55.0059900 102.8552330  68.6234580  55.1151020 101.9147070  68.4829970
  54.3540460 103.1207080  67.9748310  62.9972490 101.1268220  70.0232700
  62.6769360 100.4077460  70.5678390  62.3230850 101.8023290  70.0968760
  61.0386660 101.9728670  54.9665850  61.0296760 102.7058360  54.3510360
  60.1185020 101.7260250  55.0592810  56.6393300  97.1943560  55.7112610
  56.0321250  97.9342460  55.7207910  57.1142650  97.2842920  54.8850810
  66.2126090  91.3594380  65.3869500  66.5806910  90.5389590  65.7149070
  65.3524290  91.4196270  65.8025150  69.5788120  90.3151320  56.1957060
  68.9501280  90.4196990  55.4815290  69.0840040  90.5348100  56.9850940
  64.0246260 102.0356910  53.6291040  64.1258240 101.8320900  52.6993020
  63.1248000 101.7815190  53.8338820  61.5472150  92.5937270  57.6114940
  60.8388300  93.0623610  58.0528550  61.8316630  91.9359280  58.2460130
  63.1728080  94.0133970  65.6107470  63.6713330  94.4879790  66.2759320
  63.3151030  93.0897490  65.8177500  65.5787580  89.3187930  59.0510730
  65.4555360  89.3374060  58.1020240  66.5272140  89.3666870  59.1709130
  62.6664370 104.5543230  58.3238710  62.9205870 104.5164620  57.4018080
  61.7176850 104.4276560  58.3166960  59.7507170  90.9022350  54.9865650
  60.5997700  91.3392500  54.9205840  59.3838440  91.2142610  55.8137710
  70.3794940  90.2301930  66.4535860  69.8768540  90.9707330  66.7929670
  71.1951600  90.6185930  66.1372650  68.6716950  95.4735110  59.8997220
  67.7307090  95.4885340  60.0744910  68.9861020  94.6871070  60.3457520
  58.6498590  97.1554710  53.4601180  59.4161860  97.0436070  54.0226610
  58.7273280  96.4592680  52.8077950  57.3445350  94.5879780  54.1434070
  57.4248940  93.6407290  54.2551470  58.2365100  94.9186660  54.2494730
  70.6742530 102.6443960  61.5751480  70.7989950 103.4675130  62.0475290
  71.5408090 102.4334690  61.2275630  58.1460060 104.7375170  61.2468610
  58.8822540 104.1890630  61.5177180  58.5300980 105.6031180  61.1074600
  55.0305540 100.8048740  57.1210120  54.1045320 101.0469880  57.1115530
  55.4961970 101.6323000  56.9994870  57.1518340 103.9221240  70.4354190
  57.9531070 104.2433290  70.8489590  56.6370160 103.5616820  71.1574100
  61.2562370 103.9105480  53.0694180  62.0490980 104.1994310  52.6175970
  60.7366720 103.4797650  52.3906660  65.9882970 100.0301110  70.3829600
  65.3821130 100.0532710  69.6425350  65.6837080  99.2984150  70.9196850
  67.4183340 103.7581400  68.9939010  68.3705090 103.6739420  68.9439250
  67.2711560 104.4223110  69.6672800  70.3092540 103.1375610  54.4930920
  70.0234050 102.7240750  53.6785100  70.1112090 104.0663320  54.3731440
  54.8716150  96.4094700  69.3790240  55.3755170  95.8301980  69.9506470
  54.1323570  96.6934930  69.9166610  61.7739770  99.1308890  52.9336530
  61.6690410  98.5161240  53.6597910  61.6063990  98.6074780  52.1499540
  61.9254090  97.8165690  68.9125760  61.1599760  98.3850690  68.8280430
  62.1070050  97.5241900  68.0193990  65.0142500  98.1928920  53.5378520
  64.4652600  98.6398220  54.1821260  65.6361760  97.6878170  54.0616190
  69.0677440  99.5471020  69.4700780  69.8086910  99.8846780  68.9668240
  68.3050120  99.7163080  68.9170550  56.9039230  94.5524290  70.2740310
  56.9444570  94.2538160  71.1825540  57.7584730  94.9531900  70.1147830
  60.6817620  97.1519840  55.4343820  61.1034040  96.9859710  56.2775210
  60.8068460  96.3420070  54.9398960  58.8445040  93.1316390  68.2414800
  58.3141500  92.6407340  67.6138140  59.5133110  93.5600590  67.7072730
  63.1945260  96.1757450  52.6820920  63.7150920  95.4606470  52.3162070
  63.8413660  96.8143320  52.9821430  67.7423100  97.5985850  68.0055990
  68.1564120  97.7530930  68.8546410  66.8074100  97.7241070  68.1681770
  68.2145270  94.9382010  70.0095140  68.7966040  94.1834330  69.9215620
  68.3907040  95.4689450  69.2326620  59.3317340  90.0978760  68.3212090
  59.2374210  89.4799510  67.5962960  58.7514730  90.8245050  68.0942000
  62.5038330  97.5506330  65.9751920  62.9226440  98.3939060  65.8028160
  61.5846960  97.6878370  65.7458700  64.8402230  95.2822510  67.3589760
  64.9598440  94.6863650  68.0984600  65.6996230  95.3192200  66.9391060
  67.1790130  95.8359700  65.9352270  66.6525350  96.3602320  65.3317410
  67.5221470  96.4687090  66.5662000  59.5776520  93.2253070  52.3801980
  59.3765580  92.3620430  52.7415320  59.4068570  93.1386430  51.4423580
  60.3545750 103.8559340  67.0909650  59.8166840 104.5805400  66.7718350
  60.6079710 103.3789680  66.3006990  61.6071000  91.8243860  68.6165580
  62.1970690  91.5159710  69.3043400  60.7891240  91.3523610  68.7725480
  66.4264430  91.4409670  68.8498600  65.7379950  90.7791210  68.7848590
  67.1470450  90.9947940  69.2947060  58.3759320  90.3253690  52.3679860
  58.6785220  90.3321120  51.4599010  59.1153910  89.9751550  52.8647520
  63.2107960 105.0910550  67.3496300  63.1366660 105.9945690  67.6568670
  62.3086800 104.7722450  67.3218370  61.5944250  89.2688310  53.3536060
  61.2466250  88.5912300  52.7738510  61.7957020  88.8077820  54.1679450
  63.7593290 104.2569060  54.9722660  64.6544080 104.5954030  54.9941420
  63.7910920 103.5348470  54.3446940  57.3989450  99.6296110  53.2009660
  57.8364320 100.1725780  53.8567240  57.8837180  98.8043060  53.2106000
  54.6135250 102.4185140  60.6529920  54.9438260 101.5506200  60.4208560
  55.0426250 102.6243660  61.4834880  59.2097170 100.7494150  58.3131890
  58.9092710 100.6259120  59.2135800  59.1034660  99.8902740  57.9047620
  55.1025460 103.2855730  63.3911550  54.6656450 103.4656530  64.2235700
  55.6703140 104.0430350  63.2493270  70.7387640 102.7872730  67.6788860
  70.1389630 102.8465290  66.9352780  70.8681540 101.8477710  67.8085710
  71.9789090 100.5290550  53.0158570  71.1482050 100.5967200  53.4865800
  72.1560920 101.4194670  52.7125430  71.4345550  97.2738030  55.5192770
  72.1964460  97.8434680  55.6252460  71.4499920  96.7065230  56.2901080
  54.9349890  95.7975960  59.7500430  54.2798730  95.5287600  59.1060130
  55.7727840  95.6880440  59.3002410  72.4405520  98.1288130  60.3634700
  72.8114350  97.3455450  59.9570670  73.0807450  98.8177230  60.1852000
  69.4239280  99.5124710  65.7765020  68.6099120  99.9421870  66.0390810
  69.8313480 100.1243120  65.1634070  71.4864720  97.5672400  52.6765290
  71.7613560  98.4751280  52.5484510  71.2975460  97.5034930  53.6127280
  67.8840330  90.5917250  53.9718920  68.3025210  90.4048230  53.1315580
  67.5776390  89.7396300  54.2821850  71.3830060  95.5041390  57.6694720
  71.0073660  94.7369320  57.2376010  70.6533180  95.8864090  58.1569650
  55.9725820  96.1828530  64.2903770  56.3398860  96.0955930  65.1699790
  55.4036640  95.4195080  64.1910630  70.7729680  94.6512910  67.3034240
  70.5415770  94.4225660  66.4032190  71.0334230  95.5712460  67.2579130
  55.5241820  93.0937620  68.1962190  54.6297870  93.0604380  68.5355900
  56.0639370  93.2924410  68.9613440  69.2117750  89.8769340  70.0813940
  70.0887930  89.8852740  70.4647940  69.2238590  89.1400180  69.4706290
  54.1487970  93.0074890  55.6925760  53.2452050  93.2705090  55.5177420
  54.6328590  93.2786060  54.9125720  70.6581020  93.7298880  60.9701960
  71.1818500  93.2361530  60.3392130  71.2440440  93.8649240  61.7149530
  70.8370740  93.8138750  64.4921510  69.8873450  93.7802290  64.6066500
  71.0183750  94.7238860  64.2571280  56.6915180  92.0640430  53.6020140
  57.4006880  91.6423650  53.1167420  55.9755120  92.1315660  52.9703490
  56.3389340  88.1179760  52.6422790  57.0617470  88.6588700  52.9604010
  56.6113860  87.8443180  51.7664330  70.1480990  92.9872230  56.9094370
  70.6440110  92.7543100  57.6943250  69.9497060  92.1484070  56.4932010
  71.5768150  91.6233180  59.4432050  71.4667430  91.4689220  60.3814320
  72.3375740  91.0954120  59.2007460  72.4658420  89.4541100  52.6838190
  73.3907730  89.3222280  52.4756480  72.4434210  89.5333920  53.6374640
  72.5396910  90.2251760  55.3094900  71.7448410  90.1596880  55.8387810
  72.7440190  91.1602400  55.2980250  69.4815330 104.2643310  59.3033290
  70.0774400 103.9427880  58.6267710  69.7393480 103.7915130  60.0946560
  55.7813530  87.5241620  65.2870730  55.4328350  87.9805440  66.0528910
  55.4501230  86.6298750  65.3693160  57.3877900 100.6961220  69.4523920
  57.3447530 100.3254130  70.3338380  57.5188910 101.6338790  69.5925740
  61.0883930 102.2520810  65.0533640  60.8475290 102.5195370  64.1664160
  62.0286570 102.4226540  65.1084500  63.2938350  88.7153500  68.8090150
  63.2327240  89.3075330  69.5585560  64.2338730  88.6079460  68.6640410
  65.9312910  88.3723560  68.4482440  66.5453320  88.6902850  67.7863520
  66.4762470  87.8872150  69.0678300  72.3488090 104.2715190  65.8544280
  71.8546370 104.6684060  65.1371410  71.7401380 103.6464400  66.2481560
  56.4534170  87.0517820  68.5621500  57.0017160  86.8705870  67.7987610
  56.5189480  86.2611930  69.0977810  57.2265930 103.6423470  66.5721700
  56.6326250 103.5108170  67.3111740  57.2189770 102.8061610  66.1063800
  67.5792930  89.1426570  66.1593450  67.2506290  88.3278330  65.7795180
  68.5275230  89.0996380  66.0359140  70.0327540 104.9138610  63.1331020
  69.5730510 105.6654420  62.7589040  69.4040000 104.1945080  63.0745820
  56.8578160 101.0081850  65.5229740  56.1312220 100.3887140  65.4555690
  56.9187310 101.4022460  64.6527820  60.4623260 103.2226850  62.3079150
  60.9788280 102.6114210  61.7827410  61.1120640 103.7255630  62.7990160
  63.2018760 104.1135340  63.1348130  63.4896570 103.8589640  62.2581140
  63.7141980 103.5612700  63.7253700  55.1408160 104.3256240  58.7326500
  54.9730200 103.6926920  59.4308390  54.2742670 104.5315640  58.3820690
  55.7636180  88.1573020  56.2358360  56.5215540  88.2701900  55.6622390
  55.3013350  88.9942220  56.1901790  69.9509570  87.3376300  55.7384020
  70.1460200  88.2359750  56.0051450  69.1639440  87.1063380  56.2316970
  56.7470860 103.0189470  56.1776640  56.2218480 103.3997500  55.4738600
  56.6715440 103.6440240  56.8986350  58.1361330  88.6837070  54.7760330
  58.6654090  87.8966870  54.6468280  58.7689650  89.3628260  55.0095860
  60.3299170  88.4212210  57.8305720  59.7001910  87.7199520  57.9975850
  59.7904310  89.1816340  57.6138880  63.2691120 105.0351440  70.5016330
  64.1958430 104.7995710  70.5452290  63.2541550 105.8623440  70.0202360
  71.5036180 104.5777010  57.4990580  71.6788370 103.8914750  56.8551500
  70.8057750 105.1024060  57.1067250  60.4554730  87.6996190  70.2658210
  60.1739000  88.2029790  69.5019030  60.8374430  86.9017940  69.9000340
  59.3463830 104.9671850  55.0525890  60.0782650 104.6831130  54.5049780
  59.6057500 104.7285130  55.9425270  58.5078620 101.0836580  55.0572220
  57.8787500 101.5521680  55.6058050  58.6226450 100.2385800  55.4918410
  67.0570190  87.1149770  70.8438680  66.9435640  87.4344380  71.7390200
  67.8739930  87.5162280  70.5475960  69.8368680 104.2621300  70.3257370
  70.6294000 103.7670530  70.1183330  70.1301830 104.9411440  70.9332980
  65.9628340  95.1342240  41.2073420  65.8822390  94.2196850  40.9365130
  65.5492760  95.6309310  40.5013130  64.0946380  96.9121260  43.0882690
  63.3188480  96.4321700  43.3781260  64.7459310  96.2326910  42.9138850
  58.1112210  97.2241070  43.9658450  57.2797090  96.9689780  44.3654960
  58.7193190  97.2951840  44.7016370  68.1153810 101.3181450  41.8681820
  67.6535340 100.5468690  42.1968990  68.9279360 101.3447520  42.3734270
  58.0913470 101.2581160  44.1616470  58.3941510 100.3678900  43.9826690
  58.8357060 101.8151380  43.9338720  56.5204160  92.1842960  37.7500840
  55.6320860  92.5258930  37.6480720  56.8045350  91.9843280  36.8581670
  54.4837170  94.7848610  43.6340540  55.0553280  94.0170810  43.6344180
  54.4838710  95.0837370  42.7247150  64.3417120 103.6039460  41.4885810
  63.7228560 104.0596960  40.9180250  65.1968900 103.7590920  41.0875510
  63.5355370  99.5878450  43.0952850  63.4663650  98.6468390  42.9341980
  64.2975230  99.6779860  43.6675420  55.7262040  90.1932970  45.4209470
  55.5464880  89.2958720  45.7012230  55.3242120  90.7404840  46.0956420
  64.5660540  92.3948830  43.3221780  64.9425360  91.5220710  43.2095450
  64.4680050  92.7307530  42.4312220  58.6965550  90.7674460  38.7839220
  58.8032300  91.6678190  39.0907980  57.7857910  90.7192430  38.4933870
  68.3484660  89.8899270  40.2550120  69.1694280  89.3995840  40.2975600
  68.3818740  90.4796930  41.0081960  56.3448710  92.6893470  44.0291810
  57.0258820  92.9531840  44.6479210  56.0296760  91.8494340  44.3629820
  60.5373280  93.7360830  43.1164400  61.0451500  94.2341800  43.7569420
  61.0686520  92.9596030  42.9403760  72.6384210  91.9066020  46.8193750
  71.9336380  92.2947730  46.3008860  72.9042130  92.6016310  47.4214680
  58.8209380  88.3759390  47.3827820  58.8227820  88.8931780  46.5773720
  57.9913690  87.8989570  47.3597750  65.2080470  98.4878700  38.8817720
  64.5897740  98.9528150  38.3180440  65.7203720  99.1806180  39.2987230
  60.0712230  98.0154570  45.5601320  59.7381610  98.6423490  46.2022390
  60.2478910  98.5416450  44.7802990  68.5846140  91.8299650  43.0277660
  67.8801710  92.1184540  43.6080770  68.9458300  92.6399760  42.6677220
  58.5024710  90.0869350  45.3898270  58.8441520  90.9311400  45.0952140
  57.5640520  90.2353090  45.5063610  59.2831330  99.9835370  47.3750500
  59.9005330 100.6586450  47.0934950  58.4224450 100.3923350  47.2838000
  54.5763670  99.1735230  36.2557350  54.1991650  99.6622330  35.5242250
  54.8336740  99.8460510  36.8863880  70.2008920 101.4474780  45.2905140
  69.5172440 102.1173890  45.2821810  70.7403210 101.6455430  44.5250000
  71.6533060  91.2754440  43.4186870  70.7057970  91.3093420  43.5502300
  71.9783050  92.0893390  43.8036230  62.1852600  87.5751620  41.7142860
  62.4927580  87.0198510  40.9978360  61.2553300  87.7096080  41.5315850
  67.7367660 103.2918910  44.0050320  67.7494820 102.8881200  43.1372580
  67.1842880 104.0666200  43.9011750  69.0313080 100.0135130  39.0940490
  68.9209410  99.0709460  39.2189910  69.0281330 100.3750770  39.9803250
  67.1353100  98.1948750  45.3332930  67.5521890  97.9808860  44.4986390
  67.8592920  98.4521540  45.9041550  64.5733360  95.6400450  38.4502980
  63.6462640  95.5737830  38.6791450  64.7258180  96.5780580  38.3358220
  64.5602440  91.9117450  35.4470140  63.6206110  92.0731410  35.5322600
  64.8785700  92.6303130  34.9006130  71.0815200  96.5935970  45.4249170
  70.2533830  96.6629060  44.9499300  71.6765680  97.1790280  44.9565000
  68.6030650  97.2020750  38.9538230  67.9843070  96.8640300  38.3064530
  68.5855100  96.5580510  39.6617420  68.0457210  93.3805290  46.3704040
  67.6328390  94.2059000  46.6244030  67.3133160  92.7950330  46.1780400
  60.1790000  96.1665190  41.2322710  59.7747000  95.4542440  40.7368610
  60.2653120  95.8218430  42.1210750  60.6471700  99.8532750  43.3961920
  60.3499990  99.2478220  42.7169700  61.5971520  99.8910060  43.2851280
  58.8918620  92.9408400  45.0121750  59.4433210  93.0503740  44.2375000
  59.4062130  93.3146000  45.7276980  68.7357310 103.4264620  47.0585020
  68.2587870 104.2336810  46.8657630  68.0519100 102.7742950  47.2111230
  59.7390130  99.5914440  50.0469720  58.8418660  99.8154410  50.2943120
  59.7643000  99.7149380  49.0981120  66.7795350  96.4407560  35.9610980
  67.2188630  95.6029990  35.8148800  67.4923770  97.0736960  36.0475120
  58.5661350  96.4627760  48.6227090  58.4269120  97.3350560  48.9914490
  57.6842710  96.1200570  48.4775030  64.8890730 101.3803630  39.9292220
  65.3286640 102.1227960  39.5147610  64.8277620 101.6230200  40.8531180
  60.3641700 102.4049460  50.8312240  60.3357130 102.8092410  49.9640670
  60.2006670 101.4759820  50.6683840  70.3612490  87.6950370  34.2752020
  70.0485150  87.7877200  35.1751090  71.1224960  88.2731400  34.2249450
  56.8794630  95.0610170  38.7329360  56.7592230  95.7872260  38.1210630
  56.5695520  94.2913080  38.2557270  72.3156520 103.1876560  52.1276410
  72.7916240 103.6659450  52.8065490  72.9363680 103.1194050  51.4021910
  54.5180000  98.2325310  44.5398000  54.5960420  98.3674080  43.5953720
  55.1321680  97.5241200  44.7326120  55.7627630  99.9325500  40.9504180
  55.3555710 100.0740090  40.0957780  56.6540640  99.6485660  40.7475390
  71.7189770 100.3789410  49.2876420  71.8452830 100.1401290  48.3693600
  71.7611150  99.5473950  49.7598500  65.5806510 104.0817410  47.8571230
  66.0951180 103.9925420  48.6593660  64.7375590 104.4277110  48.1499140
  67.5560910 104.3672750  37.2855230  67.3962050 104.0775690  38.1837060
  67.3907620 103.5912880  36.7500460  60.0349290 104.1471280  39.0626850
  59.8591770 103.2306820  38.8494650  59.1805030 104.5058570  39.3024650
  67.2587040 101.8760310  35.8453230  66.5652200 101.8737600  35.1855510
  68.0009900 101.4519630  35.4147400  66.8236970 103.5023020  39.9201720
  67.2793920 102.7212400  40.2340340  67.1629490 104.2129840  40.4642900
  71.5713780  92.4321870  50.2526160  70.9558050  92.9401540  49.7241620
  71.2510200  91.5320200  50.1952100  54.5739520  99.2739480  47.0792460
  54.7370560  98.8044840  46.2611830  55.0391970  98.7663040  47.7441300
  59.3458290  88.4045240  42.1153030  58.9026440  89.1854780  41.7837550
  59.9043280  88.7275130  42.8223970  63.6328100  91.2713760  47.7188350
  63.1707470  91.4796780  48.5308290  63.2306210  90.4573110  47.4159020
  68.6332610  92.4922710  48.8485010  67.7826200  92.1928460  49.1694080
  68.4734400  92.7364720  47.9368830  65.7282320  93.9924460  50.9483800
  66.0535730  93.1588210  50.6086030  66.5162650  94.5152980  51.0962130
  62.4617110  88.0255940  36.9958860  61.8371290  88.0215810  37.7212170
  62.3747230  87.1586900  36.5994830  61.3834190  88.9492570  43.9742630
  61.6806520  89.8555400  43.8934650  61.9319750  88.4611350  43.3602200
  59.1372510  93.5278810  39.8434280  58.9113430  93.3115980  40.7480900
  58.3565040  93.9607270  39.4980250  66.3670270  93.5342180  38.4424930
  65.7679160  94.2577980  38.2588550  66.9149880  93.4718960  37.6601380
  61.5771720  94.4264390  50.5094550  61.4815320  93.4859120  50.3594950
  62.4203700  94.6479460  50.1142620  64.9735140  92.1705720  40.4728210
  65.3664710  92.4877920  39.6596900  65.3351990  91.2917600  40.5872730
  56.7082260  90.8378060  48.6628330  56.3145650  91.6853270  48.8701110
  56.0200660  90.2004430  48.8536970  63.2827310  90.9213030  51.7325070
  62.5925630  90.7285230  52.3671160  64.0259610  91.2047670  52.2649370
  54.0099310  88.7606520  42.6958410  53.7212360  89.3309380  43.4083390
  54.7545070  88.2810970  43.0589640  54.1969540  92.7026640  33.9061130
  54.1144210  93.6457400  34.0476120  53.8452600  92.5601550  33.0273480
  65.5590280  94.7611470  44.5678990  64.8271400  95.2698280  44.9169090
  65.1614620  93.9441450  44.2667770  61.9967670  91.4365670  42.9731480
  62.0003730  90.9955620  42.1236020  62.8918790  91.7583000  43.0803300
  57.8470050  91.3192160  41.9325690  57.5070100  91.7967390  42.6892740
  57.0847370  90.8657280  41.5726790  62.0587820  92.4377750  35.9638240
  62.1800640  92.3964230  36.9124060  61.6736330  93.3001900  35.8084970
  66.0216190  90.2145150  43.9801930  66.0388930  90.6653800  44.8243780
  65.7731770  89.3150790  44.1935370  61.0709320  94.7478890  35.3621540
  60.5026220  94.2997140  34.7357450  61.7798320  95.1071670  34.8286690
  69.4486940  87.6277330  49.8188310  69.7732710  86.8966990  50.3446290
  69.4843450  87.3090970  48.9169300  56.1478500  98.6490910  49.2388270
  55.7633290  98.0084580  49.8371230  56.4590690  99.3527030  49.8083000
  62.2975640  95.4967450  44.7196890  62.6645770  95.0226020  45.4658230
  62.1080700  96.3709020  45.0605230  55.1616130  90.2411140  40.8490360
  54.8763050  89.8766810  41.6868980  55.0994990  89.5091600  40.2353500
  60.0875010  94.5376090  47.0381100  59.7832080  95.4168070  47.2631460
  61.0421470  94.5975880  47.0738540  58.6156800  98.7437080  37.6347950
  57.8419060  98.2034700  37.4746670  59.3451430  98.2243690  37.2965710
  69.3744780  97.7402440  43.4274340  70.0943900  98.2357730  43.0370450
  69.1726600  97.0620330  42.7828210  64.8354720  89.1340400  37.5703730
  64.0219330  88.6353570  37.4949040  64.6416670  89.9738650  37.1540080
  64.7563580  97.8111500  49.3143340  64.6900890  96.8907170  49.0600930
  64.1268720  97.9086940  50.0287980  67.5503110  93.5060050  35.8665890
  68.4382730  93.8177280  35.6917230  67.5208200  92.6332300  35.4746470
  58.6594200  98.4117460  41.2726760  59.1772870  97.6085720  41.2183650
  58.2078220  98.3496600  42.1143590  63.5463700  99.6783740  36.5454060
  63.8879400 100.4225970  36.0497380  62.7176410  99.9914860  36.9078890
  56.1438740  95.3778830  48.1852460  55.7853680  96.0432680  48.7725800
  55.8493300  94.5462380  48.5565080  59.3451860  95.8363070  51.0692010
  59.0452000  95.9820250  50.1719830  60.1163100  95.2768360  50.9765400
  64.6880310 100.6332070  49.0647140  64.7024850  99.7013030  48.8466050
  63.9805410 100.7191830  49.7036910  69.8217380  94.8171890  35.3345750
  69.7381100  95.2486110  34.4842190  70.5411570  95.2770240  35.7672570
  70.8991520  97.2739410  48.4115720  70.1739710  97.8668190  48.2145110
  71.4266980  97.2662950  47.6129090  70.8504630 101.6714150  38.0627880
  70.2080790 101.0169770  38.3371600  70.4635290 102.0769240  37.2868550
  66.4291110  98.9999580  41.9099570  66.7814930  98.4027710  41.2500940
  65.5453440  98.6743810  42.0807820  62.5154390  99.7597270  39.3169980
  63.2025520 100.3066480  39.6977570  61.7286810 100.3038000  39.3519590
  54.6546790  95.3770090  34.8087060  55.5241640  95.6594890  35.0922980
  54.1637110  96.1905960  34.6935870  61.8181600  96.7643300  38.9295340
  62.2744380  97.5748550  39.1555530  61.4669810  96.4466440  39.7613830
  64.1214210 102.2749640  46.1587640  64.7656430 102.4809020  46.8361060
  64.4843650 101.5138040  45.7058490  57.7193380  87.1080950  39.4017860
  57.5908010  87.0998850  40.3502780  56.8955400  87.4464040  39.0508870
  65.3946290 100.2781990  44.8765090  66.0368520  99.5775150  44.9897260
  65.9195640 101.0580430  44.6961980  69.2402010 100.5630610  34.6004230
  69.0139590  99.8461050  35.1928870  68.8498210 100.3143050  33.7625980
  67.1683910 101.0776890  48.0801150  67.5040150 101.6643580  48.7579070
  66.2484250 100.9469600  48.3098940  55.0218040 104.5897470  35.3748690
  55.3815680 105.1886810  34.7205960  54.8810380 105.1357360  36.1483720
  54.7187310  88.8672070  48.8624560  54.0045830  89.0668990  49.4677170
  55.1382350  88.0911640  49.2339360  68.8218260  98.4802550  36.2618390
  68.5339960  98.9415240  37.0496270  69.6170430  98.0200320  36.5302610
  55.0059900 102.8552330  49.8491090  55.1151020 101.9147070  49.7086480
  54.3540460 103.1207080  49.2004820  62.9972490 101.1268220  51.2489210
  62.6769360 100.4077460  51.7934900  62.3230850 101.8023290  51.3225270
  61.0386660 101.9728670  36.1922360  61.0296760 102.7058360  35.5766870
  60.1185020 101.7260250  36.2849320  56.6393300  97.1943560  36.9369120
  56.0321250  97.9342460  36.9464420  57.1142650  97.2842920  36.1107320
  66.2126090  91.3594380  46.6126010  66.5806910  90.5389590  46.9405580
  65.3524290  91.4196270  47.0281660  69.5788120  90.3151320  37.4213570
  68.9501280  90.4196990  36.7071800  69.0840040  90.5348100  38.2107450
  64.0246260 102.0356910  34.8547550  64.1258240 101.8320900  33.9249530
  63.1248000 101.7815190  35.0595330  61.5472150  92.5937270  38.8371450
  60.8388300  93.0623610  39.2785060  61.8316630  91.9359280  39.4716640
  63.1728080  94.0133970  46.8363980  63.6713330  94.4879790  47.5015830
  63.3151030  93.0897490  47.0434010  65.5787580  89.3187930  40.2767240
  65.4555360  89.3374060  39.3276750  66.5272140  89.3666870  40.3965640
  62.6664370 104.5543230  39.5495220  62.9205870 104.5164620  38.6274590
  61.7176850 104.4276560  39.5423470  59.7507170  90.9022350  36.2122160
  60.5997700  91.3392500  36.1462350  59.3838440  91.2142610  37.0394220
  70.3794940  90.2301930  47.6792370  69.8768540  90.9707330  48.0186180
  71.1951600  90.6185930  47.3629160  68.6716950  95.4735110  41.1253730
  67.7307090  95.4885340  41.3001420  68.9861020  94.6871070  41.5714030
  58.6498590  97.1554710  34.6857690  59.4161860  97.0436070  35.2483120
  58.7273280  96.4592680  34.0334460  57.3445350  94.5879780  35.3690580
  57.4248940  93.6407290  35.4807980  58.2365100  94.9186660  35.4751240
  70.6742530 102.6443960  42.8007990  70.7989950 103.4675130  43.2731800
  71.5408090 102.4334690  42.4532140  58.1460060 104.7375170  42.4725120
  58.8822540 104.1890630  42.7433690  58.5300980 105.6031180  42.3331110
  55.0305540 100.8048740  38.3466630  54.1045320 101.0469880  38.3372040
  55.4961970 101.6323000  38.2251380  57.1518340 103.9221240  51.6610700
  57.9531070 104.2433290  52.0746100  56.6370160 103.5616820  52.3830610
  61.2562370 103.9105480  34.2950690  62.0490980 104.1994310  33.8432480
  60.7366720 103.4797650  33.6163170  65.9882970 100.0301110  51.6086110
  65.3821130 100.0532710  50.8681860  65.6837080  99.2984150  52.1453360
  67.4183340 103.7581400  50.2195520  68.3705090 103.6739420  50.1695760
  67.2711560 104.4223110  50.8929310  70.3092540 103.1375610  35.7187430
  70.0234050 102.7240750  34.9041610  70.1112090 104.0663320  35.5987950
  54.8716150  96.4094700  50.6046750  55.3755170  95.8301980  51.1762980
  54.1323570  96.6934930  51.1423120  61.7739770  99.1308890  34.1593040
  61.6690410  98.5161240  34.8854420  61.6063990  98.6074780  33.3756050
  61.9254090  97.8165690  50.1382270  61.1599760  98.3850690  50.0536940
  62.1070050  97.5241900  49.2450500  65.0142500  98.1928920  34.7635030
  64.4652600  98.6398220  35.4077770  65.6361760  97.6878170  35.2872700
  69.0677440  99.5471020  50.6957290  69.8086910  99.8846780  50.1924750
  68.3050120  99.7163080  50.1427060  56.9039230  94.5524290  51.4996820
  56.9444570  94.2538160  52.4082050  57.7584730  94.9531900  51.3404340
  60.6817620  97.1519840  36.6600330  61.1034040  96.9859710  37.5031720
  60.8068460  96.3420070  36.1655470  58.8445040  93.1316390  49.4671310
  58.3141500  92.6407340  48.8394650  59.5133110  93.5600590  48.9329240
  63.1945260  96.1757450  33.9077430  63.7150920  95.4606470  33.5418580
  63.8413660  96.8143320  34.2077940  67.7423100  97.5985850  49.2312500
  68.1564120  97.7530930  50.0802920  66.8074100  97.7241070  49.3938280
  68.2145270  94.9382010  51.2351650  68.7966040  94.1834330  51.1472130
  68.3907040  95.4689450  50.4583130  59.3317340  90.0978760  49.5468600
  59.2374210  89.4799510  48.8219470  58.7514730  90.8245050  49.3198510
  62.0978780  88.6552000  46.5795990  61.6496080  88.6776260  45.7341540
  61.4643980  88.2571020  47.1766290  62.5038330  97.5506330  47.2008430
  62.9226440  98.3939060  47.0284670  61.5846960  97.6878370  46.9715210
  64.8402230  95.2822510  48.5846270  64.9598440  94.6863650  49.3241110
  65.6996230  95.3192200  48.1647570  67.1790130  95.8359700  47.1608780
  66.6525350  96.3602320  46.5573920  67.5221470  96.4687090  47.7918510
  59.5776520  93.2253070  33.6058490  59.3765580  92.3620430  33.9671830
  59.4068570  93.1386430  32.6680090  60.3545750 103.8559340  48.3166160
  59.8166840 104.5805400  47.9974860  60.6079710 103.3789680  47.5263500
  61.6071000  91.8243860  49.8422090  62.1970690  91.5159710  50.5299910
  60.7891240  91.3523610  49.9981990  66.4264430  91.4409670  50.0755110
  65.7379950  90.7791210  50.0105100  67.1470450  90.9947940  50.5203570
  67.0564830  88.0361300  36.1345370  67.3367120  87.1929200  36.4904790
  66.2830560  88.2684410  36.6484120  58.3759320  90.3253690  33.5936370
  58.6785220  90.3321120  32.6855520  59.1153910  89.9751550  34.0904030
  63.2107960 105.0910550  48.5752810  63.1366660 105.9945690  48.8825180
  62.3086800 104.7722450  48.5474880  61.5944250  89.2688310  34.5792570
  61.2466250  88.5912300  33.9995020  61.7957020  88.8077820  35.3935960
  63.7593290 104.2569060  36.1979170  64.6544080 104.5954030  36.2197930
  63.7910920 103.5348470  35.5703450  57.3989450  99.6296110  34.4266170
  57.8364320 100.1725780  35.0823750  57.8837180  98.8043060  34.4362510
  54.6135250 102.4185140  41.8786430  54.9438260 101.5506200  41.6465070
  55.0426250 102.6243660  42.7091390  59.2097170 100.7494150  39.5388400
  58.9092710 100.6259120  40.4392310  59.1034660  99.8902740  39.1304130
  55.1025460 103.2855730  44.6168060  54.6656450 103.4656530  45.4492210
  55.6703140 104.0430350  44.4749780  70.7387640 102.7872730  48.9045370
  70.1389630 102.8465290  48.1609290  70.8681540 101.8477710  49.0342220
  71.9789090 100.5290550  34.2415080  71.1482050 100.5967200  34.7122310
  72.1560920 101.4194670  33.9381940  71.4345550  97.2738030  36.7449280
  72.1964460  97.8434680  36.8508970  71.4499920  96.7065230  37.5157590
  54.9349890  95.7975960  40.9756940  54.2798730  95.5287600  40.3316640
  55.7727840  95.6880440  40.5258920  72.4405520  98.1288130  41.5891210
  72.8114350  97.3455450  41.1827180  73.0807450  98.8177230  41.4108510
  69.4239280  99.5124710  47.0021530  68.6099120  99.9421870  47.2647320
  69.8313480 100.1243120  46.3890580  71.4864720  97.5672400  33.9021800
  71.7613560  98.4751280  33.7741020  71.2975460  97.5034930  34.8383790
  67.8840330  90.5917250  35.1975430  68.3025210  90.4048230  34.3572090
  67.5776390  89.7396300  35.5078360  71.3830060  95.5041390  38.8951230
  71.0073660  94.7369320  38.4632520  70.6533180  95.8864090  39.3826160
  55.9725820  96.1828530  45.5160280  56.3398860  96.0955930  46.3956300
  55.4036640  95.4195080  45.4167140  70.7729680  94.6512910  48.5290750
  70.5415770  94.4225660  47.6288700  71.0334230  95.5712460  48.4835640
  55.5241820  93.0937620  49.4218700  54.6297870  93.0604380  49.7612410
  56.0639370  93.2924410  50.1869950  69.2117750  89.8769340  51.3070450
  70.0887930  89.8852740  51.6904450  69.2238590  89.1400180  50.6962800
  54.1487970  93.0074890  36.9182270  53.2452050  93.2705090  36.7433930
  54.6328590  93.2786060  36.1382230  70.6581020  93.7298880  42.1958470
  71.1818500  93.2361530  41.5648640  71.2440440  93.8649240  42.9406040
  70.8370740  93.8138750  45.7178020  69.8873450  93.7802290  45.8323010
  71.0183750  94.7238860  45.4827790  56.6915180  92.0640430  34.8276650
  57.4006880  91.6423650  34.3423930  55.9755120  92.1315660  34.1960000
  56.3389340  88.1179760  33.8679300  57.0617470  88.6588700  34.1860520
  56.6113860  87.8443180  32.9920840  70.1480990  92.9872230  38.1350880
  70.6440110  92.7543100  38.9199760  69.9497060  92.1484070  37.7188520
  56.0281530  87.3685950  43.7701920  56.6757720  86.8183330  43.3297080
  56.4483370  87.6229100  44.5917730  71.5768150  91.6233180  40.6688560
  71.4667430  91.4689220  41.6070830  72.3375740  91.0954120  40.4263970
  69.9233870  87.5627310  47.1271560  70.5606090  88.1761450  47.4930750
  70.0708760  87.5987970  46.1820790  72.4658420  89.4541100  33.9094700
  73.3907730  89.3222280  33.7012990  72.4434210  89.5333920  34.8631150
  72.5396910  90.2251760  36.5351410  71.7448410  90.1596880  37.0644320
  72.7440190  91.1602400  36.5236760  69.4815330 104.2643310  40.5289800
  70.0774400 103.9427880  39.8524220  69.7393480 103.7915130  41.3203070
  55.7813530  87.5241620  46.5127240  55.4328350  87.9805440  47.2785420
  55.4501230  86.6298750  46.5949670  57.3877900 100.6961220  50.6780430
  57.3447530 100.3254130  51.5594890  57.5188910 101.6338790  50.8182250
  61.0883930 102.2520810  46.2790150  60.8475290 102.5195370  45.3920670
  62.0286570 102.4226540  46.3341010  63.2938350  88.7153500  50.0346660
  63.2327240  89.3075330  50.7842070  64.2338730  88.6079460  49.8896920
  65.9312910  88.3723560  49.6738950  66.5453320  88.6902850  49.0120030
  66.4762470  87.8872150  50.2934810  72.3488090 104.2715190  47.0800790
  71.8546370 104.6684060  46.3627920  71.7401380 103.6464400  47.4738070
  56.4534170  87.0517820  49.7878010  57.0017160  86.8705870  49.0244120
  56.5189480  86.2611930  50.3234320  57.2265930 103.6423470  47.7978210
  56.6326250 103.5108170  48.5368250  57.2189770 102.8061610  47.3320310
  66.6720950  86.9355700  46.0008240  65.7980790  87.2690810  45.7981170
  66.5631700  86.4628880  46.8260110  67.5792930  89.1426570  47.3849960
  67.2506290  88.3278330  47.0051690  68.5275230  89.0996380  47.2615650
  70.0327540 104.9138610  44.3587530  69.5730510 105.6654420  43.9845550
  69.4040000 104.1945080  44.3002330  56.8578160 101.0081850  46.7486250
  56.1312220 100.3887140  46.6812200  56.9187310 101.4022460  45.8784330
  60.4623260 103.2226850  43.5335660  60.9788280 102.6114210  43.0083920
  61.1120640 103.7255630  44.0246670  63.2018760 104.1135340  44.3604640
  63.4896570 103.8589640  43.4837650  63.7141980 103.5612700  44.9510210
  64.4195770  87.8525540  44.9401150  63.6367560  88.3271040  45.2197910
  64.1258700  86.9480370  44.8314330  68.9716840  88.5548640  42.9850240
  69.4124930  88.4993740  42.1371840  68.7024430  89.4706650  43.0560420
  70.8355410  88.1863880  40.9959060  70.7743810  87.2425100  40.8490080
  71.6147440  88.2943970  41.5412520  55.1408160 104.3256240  39.9583010
  54.9730200 103.6926920  40.6564900  54.2742670 104.5315640  39.6077200
  55.7636180  88.1573020  37.4614870  56.5215540  88.2701900  36.8878900
  55.3013350  88.9942220  37.4158300  62.3049990  90.2712290  40.4517180
  61.4924500  89.8969180  40.1113060  62.8091630  89.5157370  40.7538370
  66.8074970  86.9354740  41.6900250  67.4104340  87.5074950  42.1648770
  66.0667960  87.4994180  41.4674150  69.9509570  87.3376300  36.9640530
  70.1460200  88.2359750  37.2307960  69.1639440  87.1063380  37.4573480
  56.7470860 103.0189470  37.4033150  56.2218480 103.3997500  36.6995110
  56.6715440 103.6440240  38.1242860  58.1361330  88.6837070  36.0016840
  58.6654090  87.8966870  35.8724790  58.7689650  89.3628260  36.2352370
  60.3299170  88.4212210  39.0562230  59.7001910  87.7199520  39.2232360
  59.7904310  89.1816340  38.8395390  63.2691120 105.0351440  51.7272840
  64.1958430 104.7995710  51.7708800  63.2541550 105.8623440  51.2458870
  71.5036180 104.5777010  38.7247090  71.6788370 103.8914750  38.0808010
  70.8057750 105.1024060  38.3323760  60.4554730  87.6996190  51.4914720
  60.1739000  88.2029790  50.7275540  60.8374430  86.9017940  51.1256850
  59.3463830 104.9671850  36.2782400  60.0782650 104.6831130  35.7306290
  59.6057500 104.7285130  37.1681780  58.5078620 101.0836580  36.2828730
  57.8787500 101.5521680  36.8314560  58.6226450 100.2385800  36.7174920
  69.8368680 104.2621300  51.5513880  70.6294000 103.7670530  51.3439840
  70.1301830 104.9411440  52.1589490  65.9628340  95.1342240  22.4329930
  65.8822390  94.2196850  22.1621640  65.5492760  95.6309310  21.7269640
  64.0946380  96.9121260  24.3139200  63.3188480  96.4321700  24.6037770
  64.7459310  96.2326910  24.1395360  58.1112210  97.2241070  25.1914960
  57.2797090  96.9689780  25.5911470  58.7193190  97.2951840  25.9272880
  68.1153810 101.3181450  23.0938330  67.6535340 100.5468690  23.4225500
  68.9279360 101.3447520  23.5990780  58.0913470 101.2581160  25.3872980
  58.3941510 100.3678900  25.2083200  58.8357060 101.8151380  25.1595230
  56.5204160  92.1842960  18.9757350  55.6320860  92.5258930  18.8737230
  56.8045350  91.9843280  18.0838180  54.4837170  94.7848610  24.8597050
  55.0553280  94.0170810  24.8600690  54.4838710  95.0837370  23.9503660
  64.3417120 103.6039460  22.7142320  63.7228560 104.0596960  22.1436760
  65.1968900 103.7590920  22.3132020  63.5355370  99.5878450  24.3209360
  63.4663650  98.6468390  24.1598490  64.2975230  99.6779860  24.8931930
  55.7262040  90.1932970  26.6465980  55.5464880  89.2958720  26.9268740
  55.3242120  90.7404840  27.3212930  64.5660540  92.3948830  24.5478290
  64.9425360  91.5220710  24.4351960  64.4680050  92.7307530  23.6568730
  58.6965550  90.7674460  20.0095730  58.8032300  91.6678190  20.3164490
  57.7857910  90.7192430  19.7190380  68.3484660  89.8899270  21.4806630
  69.1694280  89.3995840  21.5232110  68.3818740  90.4796930  22.2338470
  56.3448710  92.6893470  25.2548320  57.0258820  92.9531840  25.8735720
  56.0296760  91.8494340  25.5886330  60.5373280  93.7360830  24.3420910
  61.0451500  94.2341800  24.9825930  61.0686520  92.9596030  24.1660270
  72.6384210  91.9066020  28.0450260  71.9336380  92.2947730  27.5265370
  72.9042130  92.6016310  28.6471190  58.8209380  88.3759390  28.6084330
  58.8227820  88.8931780  27.8030230  57.9913690  87.8989570  28.5854260
  65.2080470  98.4878700  20.1074230  64.5897740  98.9528150  19.5436950
  65.7203720  99.1806180  20.5243740  60.0712230  98.0154570  26.7857830
  59.7381610  98.6423490  27.4278900  60.2478910  98.5416450  26.0059500
  68.5846140  91.8299650  24.2534170  67.8801710  92.1184540  24.8337280
  68.9458300  92.6399760  23.8933730  58.5024710  90.0869350  26.6154780
  58.8441520  90.9311400  26.3208650  57.5640520  90.2353090  26.7320120
  59.2831330  99.9835370  28.6007010  59.9005330 100.6586450  28.3191460
  58.4224450 100.3923350  28.5094510  54.5763670  99.1735230  17.4813860
  54.1991650  99.6622330  16.7498760  54.8336740  99.8460510  18.1120390
  70.2008920 101.4474780  26.5161650  69.5172440 102.1173890  26.5078320
  70.7403210 101.6455430  25.7506510  71.6533060  91.2754440  24.6443380
  70.7057970  91.3093420  24.7758810  71.9783050  92.0893390  25.0292740
  62.1852600  87.5751620  22.9399370  62.4927580  87.0198510  22.2234870
  61.2553300  87.7096080  22.7572360  67.7367660 103.2918910  25.2306830
  67.7494820 102.8881200  24.3629090  67.1842880 104.0666200  25.1268260
  69.0313080 100.0135130  20.3197000  68.9209410  99.0709460  20.4446420
  69.0281330 100.3750770  21.2059760  64.5733360  95.6400450  19.6759490
  63.6462640  95.5737830  19.9047960  64.7258180  96.5780580  19.5614730
  64.5602440  91.9117450  16.6726650  63.6206110  92.0731410  16.7579110
  64.8785700  92.6303130  16.1262640  71.0815200  96.5935970  26.6505680
  70.2533830  96.6629060  26.1755810  71.6765680  97.1790280  26.1821510
  68.6030650  97.2020750  20.1794740  67.9843070  96.8640300  19.5321040
  68.5855100  96.5580510  20.8873930  68.0457210  93.3805290  27.5960550
  67.6328390  94.2059000  27.8500540  67.3133160  92.7950330  27.4036910
  60.1790000  96.1665190  22.4579220  59.7747000  95.4542440  21.9625120
  60.2653120  95.8218430  23.3467260  60.6471700  99.8532750  24.6218430
  60.3499990  99.2478220  23.9426210  61.5971520  99.8910060  24.5107790
  58.8918620  92.9408400  26.2378260  59.4433210  93.0503740  25.4631510
  59.4062130  93.3146000  26.9533490  68.7357310 103.4264620  28.2841530
  68.2587870 104.2336810  28.0914140  68.0519100 102.7742950  28.4367740
  59.7390130  99.5914440  31.2726230  58.8418660  99.8154410  31.5199630
  59.7643000  99.7149380  30.3237630  66.7795350  96.4407560  17.1867490
  67.2188630  95.6029990  17.0405310  67.4923770  97.0736960  17.2731630
  58.5661350  96.4627760  29.8483600  58.4269120  97.3350560  30.2171000
  57.6842710  96.1200570  29.7031540  64.8890730 101.3803630  21.1548730
  65.3286640 102.1227960  20.7404120  64.8277620 101.6230200  22.0787690
  60.3641700 102.4049460  32.0568750  60.3357130 102.8092410  31.1897180
  60.2006670 101.4759820  31.8940350  70.3612490  87.6950370  15.5008530
  70.0485150  87.7877200  16.4007600  71.1224960  88.2731400  15.4505960
  56.8794630  95.0610170  19.9585870  56.7592230  95.7872260  19.3467140
  56.5695520  94.2913080  19.4813780  72.3156520 103.1876560  33.3532920
  72.7916240 103.6659450  34.0322000  72.9363680 103.1194050  32.6278420
  54.5180000  98.2325310  25.7654510  54.5960420  98.3674080  24.8210230
  55.1321680  97.5241200  25.9582630  55.7627630  99.9325500  22.1760690
  55.3555710 100.0740090  21.3214290  56.6540640  99.6485660  21.9731900
  71.7189770 100.3789410  30.5132930  71.8452830 100.1401290  29.5950110
  71.7611150  99.5473950  30.9855010  65.5806510 104.0817410  29.0827740
  66.0951180 103.9925420  29.8850170  64.7375590 104.4277110  29.3755650
  67.5560910 104.3672750  18.5111740  67.3962050 104.0775690  19.4093570
  67.3907620 103.5912880  17.9756970  60.0349290 104.1471280  20.2883360
  59.8591770 103.2306820  20.0751160  59.1805030 104.5058570  20.5281160
  67.2587040 101.8760310  17.0709740  66.5652200 101.8737600  16.4112020
  68.0009900 101.4519630  16.6403910  66.8236970 103.5023020  21.1458230
  67.2793920 102.7212400  21.4596850  67.1629490 104.2129840  21.6899410
  71.5713780  92.4321870  31.4782670  70.9558050  92.9401540  30.9498130
  71.2510200  91.5320200  31.4208610  54.5739520  99.2739480  28.3048970
  54.7370560  98.8044840  27.4868340  55.0391970  98.7663040  28.9697810
  59.3458290  88.4045240  23.3409540  58.9026440  89.1854780  23.0094060
  59.9043280  88.7275130  24.0480480  63.6328100  91.2713760  28.9444860
  63.1707470  91.4796780  29.7564800  63.2306210  90.4573110  28.6415530
  68.6332610  92.4922710  30.0741520  67.7826200  92.1928460  30.3950590
  68.4734400  92.7364720  29.1625340  65.7282320  93.9924460  32.1740310
  66.0535730  93.1588210  31.8342540  66.5162650  94.5152980  32.3218640
  62.4617110  88.0255940  18.2215370  61.8371290  88.0215810  18.9468680
  62.3747230  87.1586900  17.8251340  61.3834190  88.9492570  25.1999140
  61.6806520  89.8555400  25.1191160  61.9319750  88.4611350  24.5858710
  59.1372510  93.5278810  21.0690790  58.9113430  93.3115980  21.9737410
  58.3565040  93.9607270  20.7236760  66.3670270  93.5342180  19.6681440
  65.7679160  94.2577980  19.4845060  66.9149880  93.4718960  18.8857890
  61.5771720  94.4264390  31.7351060  61.4815320  93.4859120  31.5851460
  62.4203700  94.6479460  31.3399130  64.9735140  92.1705720  21.6984720
  65.3664710  92.4877920  20.8853410  65.3351990  91.2917600  21.8129240
  56.7082260  90.8378060  29.8884840  56.3145650  91.6853270  30.0957620
  56.0200660  90.2004430  30.0793480  63.2827310  90.9213030  32.9581580
  62.5925630  90.7285230  33.5927670  64.0259610  91.2047670  33.4905880
  54.0099310  88.7606520  23.9214920  53.7212360  89.3309380  24.6339900
  54.7545070  88.2810970  24.2846150  54.1969540  92.7026640  15.1317640
  54.1144210  93.6457400  15.2732630  53.8452600  92.5601550  14.2529990
  65.5590280  94.7611470  25.7935500  64.8271400  95.2698280  26.1425600
  65.1614620  93.9441450  25.4924280  61.9967670  91.4365670  24.1987990
  62.0003730  90.9955620  23.3492530  62.8918790  91.7583000  24.3059810
  57.8470050  91.3192160  23.1582200  57.5070100  91.7967390  23.9149250
  57.0847370  90.8657280  22.7983300  62.0587820  92.4377750  17.1894750
  62.1800640  92.3964230  18.1380570  61.6736330  93.3001900  17.0341480
  66.0216190  90.2145150  25.2058440  66.0388930  90.6653800  26.0500290
  65.7731770  89.3150790  25.4191880  61.0709320  94.7478890  16.5878050
  60.5026220  94.2997140  15.9613960  61.7798320  95.1071670  16.0543200
  69.4486940  87.6277330  31.0444820  69.7732710  86.8966990  31.5702800
  69.4843450  87.3090970  30.1425810  56.1478500  98.6490910  30.4644780
  55.7633290  98.0084580  31.0627740  56.4590690  99.3527030  31.0339510
  62.2975640  95.4967450  25.9453400  62.6645770  95.0226020  26.6914740
  62.1080700  96.3709020  26.2861740  55.1616130  90.2411140  22.0746870
  54.8763050  89.8766810  22.9125490  55.0994990  89.5091600  21.4610010
  60.0875010  94.5376090  28.2637610  59.7832080  95.4168070  28.4887970
  61.0421470  94.5975880  28.2995050  58.6156800  98.7437080  18.8604460
  57.8419060  98.2034700  18.7003180  59.3451430  98.2243690  18.5222220
  69.3744780  97.7402440  24.6530850  70.0943900  98.2357730  24.2626960
  69.1726600  97.0620330  24.0084720  64.8354720  89.1340400  18.7960240
  64.0219330  88.6353570  18.7205550  64.6416670  89.9738650  18.3796590
  67.5503110  93.5060050  17.0922400  68.4382730  93.8177280  16.9173740
  67.5208200  92.6332300  16.7002980  58.6594200  98.4117460  22.4983270
  59.1772870  97.6085720  22.4440160  58.2078220  98.3496600  23.3400100
  63.5463700  99.6783740  17.7710570  63.8879400 100.4225970  17.2753890
  62.7176410  99.9914860  18.1335400  56.1438740  95.3778830  29.4108970
  55.7853680  96.0432680  29.9982310  55.8493300  94.5462380  29.7821590
  59.3451860  95.8363070  32.2948520  59.0452000  95.9820250  31.3976340
  60.1163100  95.2768360  32.2021910  69.8217380  94.8171890  16.5602260
  69.7381100  95.2486110  15.7098700  70.5411570  95.2770240  16.9929080
  70.8991520  97.2739410  29.6372230  70.1739710  97.8668190  29.4401620
  71.4266980  97.2662950  28.8385600  70.8504630 101.6714150  19.2884390
  70.2080790 101.0169770  19.5628110  70.4635290 102.0769240  18.5125060
  66.4291110  98.9999580  23.1356080  66.7814930  98.4027710  22.4757450
  65.5453440  98.6743810  23.3064330  62.5154390  99.7597270  20.5426490
  63.2025520 100.3066480  20.9234080  61.7286810 100.3038000  20.5776100
  54.6546790  95.3770090  16.0343570  55.5241640  95.6594890  16.3179490
  54.1637110  96.1905960  15.9192380  61.8181600  96.7643300  20.1551850
  62.2744380  97.5748550  20.3812040  61.4669810  96.4466440  20.9870340
  64.1214210 102.2749640  27.3844150  64.7656430 102.4809020  28.0617570
  64.4843650 101.5138040  26.9315000  57.7193380  87.1080950  20.6274370
  57.5908010  87.0998850  21.5759290  56.8955400  87.4464040  20.2765380
  65.3946290 100.2781990  26.1021600  66.0368520  99.5775150  26.2153770
  65.9195640 101.0580430  25.9218490  69.2402010 100.5630610  15.8260740
  69.0139590  99.8461050  16.4185380  68.8498210 100.3143050  14.9882490
  55.0218040 104.5897470  16.6005200  55.3815680 105.1886810  15.9462470
  54.8810380 105.1357360  17.3740230  54.7187310  88.8672070  30.0881070
  54.0045830  89.0668990  30.6933680  55.1382350  88.0911640  30.4595870
  68.8218260  98.4802550  17.4874900  68.5339960  98.9415240  18.2752780
  69.6170430  98.0200320  17.7559120  55.0059900 102.8552330  31.0747600
  55.1151020 101.9147070  30.9342990  54.3540460 103.1207080  30.4261330
  62.9972490 101.1268220  32.4745720  62.6769360 100.4077460  33.0191410
  62.3230850 101.8023290  32.5481780  61.0386660 101.9728670  17.4178870
  61.0296760 102.7058360  16.8023380  60.1185020 101.7260250  17.5105830
  56.6393300  97.1943560  18.1625630  56.0321250  97.9342460  18.1720930
  57.1142650  97.2842920  17.3363830  66.2126090  91.3594380  27.8382520
  66.5806910  90.5389590  28.1662090  65.3524290  91.4196270  28.2538170
  69.5788120  90.3151320  18.6470080  68.9501280  90.4196990  17.9328310
  69.0840040  90.5348100  19.4363960  64.0246260 102.0356910  16.0804060
  64.1258240 101.8320900  15.1506040  63.1248000 101.7815190  16.2851840
  61.5472150  92.5937270  20.0627960  60.8388300  93.0623610  20.5041570
  61.8316630  91.9359280  20.6973150  63.1728080  94.0133970  28.0620490
  63.6713330  94.4879790  28.7272340  63.3151030  93.0897490  28.2690520
  65.5787580  89.3187930  21.5023750  65.4555360  89.3374060  20.5533260
  66.5272140  89.3666870  21.6222150  62.6664370 104.5543230  20.7751730
  62.9205870 104.5164620  19.8531100  61.7176850 104.4276560  20.7679980
  59.7507170  90.9022350  17.4378670  60.5997700  91.3392500  17.3718860
  59.3838440  91.2142610  18.2650730  70.3794940  90.2301930  28.9048880
  69.8768540  90.9707330  29.2442690  71.1951600  90.6185930  28.5885670
  68.6716950  95.4735110  22.3510240  67.7307090  95.4885340  22.5257930
  68.9861020  94.6871070  22.7970540  58.6498590  97.1554710  15.9114200
  59.4161860  97.0436070  16.4739630  58.7273280  96.4592680  15.2590970
  57.3445350  94.5879780  16.5947090  57.4248940  93.6407290  16.7064490
  58.2365100  94.9186660  16.7007750  70.6742530 102.6443960  24.0264500
  70.7989950 103.4675130  24.4988310  71.5408090 102.4334690  23.6788650
  58.1460060 104.7375170  23.6981630  58.8822540 104.1890630  23.9690200
  58.5300980 105.6031180  23.5587620  55.0305540 100.8048740  19.5723140
  54.1045320 101.0469880  19.5628550  55.4961970 101.6323000  19.4507890
  57.1518340 103.9221240  32.8867210  57.9531070 104.2433290  33.3002610
  56.6370160 103.5616820  33.6087120  61.2562370 103.9105480  15.5207200
  62.0490980 104.1994310  15.0688990  60.7366720 103.4797650  14.8419680
  67.4183340 103.7581400  31.4452030  68.3705090 103.6739420  31.3952270
  67.2711560 104.4223110  32.1185820  70.3092540 103.1375610  16.9443940
  70.0234050 102.7240750  16.1298120  70.1112090 104.0663320  16.8244460
  54.8716150  96.4094700  31.8303260  55.3755170  95.8301980  32.4019490
  54.1323570  96.6934930  32.3679630  61.7739770  99.1308890  15.3849550
  61.6690410  98.5161240  16.1110930  61.6063990  98.6074780  14.6012560
  61.9254090  97.8165690  31.3638780  61.1599760  98.3850690  31.2793450
  62.1070050  97.5241900  30.4707010  65.0142500  98.1928920  15.9891540
  64.4652600  98.6398220  16.6334280  65.6361760  97.6878170  16.5129210
  56.9039230  94.5524290  32.7253330  56.9444570  94.2538160  33.6338560
  57.7584730  94.9531900  32.5660850  60.6817620  97.1519840  17.8856840
  61.1034040  96.9859710  18.7288230  60.8068460  96.3420070  17.3911980
  58.8445040  93.1316390  30.6927820  58.3141500  92.6407340  30.0651160
  59.5133110  93.5600590  30.1585750  63.1945260  96.1757450  15.1333940
  63.7150920  95.4606470  14.7675090  63.8413660  96.8143320  15.4334450
  68.2145270  94.9382010  32.4608160  68.7966040  94.1834330  32.3728640
  68.3907040  95.4689450  31.6839640  59.3317340  90.0978760  30.7725110
  59.2374210  89.4799510  30.0475980  58.7514730  90.8245050  30.5455020
  62.0978780  88.6552000  27.8052500  61.6496080  88.6776260  26.9598050
  61.4643980  88.2571020  28.4022800  59.5776520  93.2253070  14.8315000
  59.3765580  92.3620430  15.1928340  59.4068570  93.1386430  13.8936600
  60.3545750 103.8559340  29.5422670  59.8166840 104.5805400  29.2231370
  60.6079710 103.3789680  28.7520010  61.6071000  91.8243860  31.0678600
  62.1970690  91.5159710  31.7556420  60.7891240  91.3523610  31.2238500
  66.4264430  91.4409670  31.3011620  65.7379950  90.7791210  31.2361610
  67.1470450  90.9947940  31.7460080  67.0564830  88.0361300  17.3601880
  67.3367120  87.1929200  17.7161300  66.2830560  88.2684410  17.8740630
  58.3759320  90.3253690  14.8192880  58.6785220  90.3321120  13.9112030
  59.1153910  89.9751550  15.3160540  63.2107960 105.0910550  29.8009320
  63.1366660 105.9945690  30.1081690  62.3086800 104.7722450  29.7731390
  61.5944250  89.2688310  15.8049080  61.2466250  88.5912300  15.2251530
  61.7957020  88.8077820  16.6192470  63.7593290 104.2569060  17.4235680
  64.6544080 104.5954030  17.4454440  63.7910920 103.5348470  16.7959960
  57.3989450  99.6296110  15.6522680  57.8364320 100.1725780  16.3080260
  57.8837180  98.8043060  15.6619020  54.6135250 102.4185140  23.1042940
  54.9438260 101.5506200  22.8721580  55.0426250 102.6243660  23.9347900
  59.2097170 100.7494150  20.7644910  58.9092710 100.6259120  21.6648820
  59.1034660  99.8902740  20.3560640  55.1025460 103.2855730  25.8424570
  54.6656450 103.4656530  26.6748720  55.6703140 104.0430350  25.7006290
  70.7387640 102.7872730  30.1301880  70.1389630 102.8465290  29.3865800
  70.8681540 101.8477710  30.2598730  71.9789090 100.5290550  15.4671590
  71.1482050 100.5967200  15.9378820  72.1560920 101.4194670  15.1638450
  71.4345550  97.2738030  17.9705790  72.1964460  97.8434680  18.0765480
  71.4499920  96.7065230  18.7414100  54.9349890  95.7975960  22.2013450
  54.2798730  95.5287600  21.5573150  55.7727840  95.6880440  21.7515430
  72.4405520  98.1288130  22.8147720  72.8114350  97.3455450  22.4083690
  73.0807450  98.8177230  22.6365020  71.4864720  97.5672400  15.1278310
  71.7613560  98.4751280  14.9997530  71.2975460  97.5034930  16.0640300
  67.8840330  90.5917250  16.4231940  68.3025210  90.4048230  15.5828600
  67.5776390  89.7396300  16.7334870  71.3830060  95.5041390  20.1207740
  71.0073660  94.7369320  19.6889030  70.6533180  95.8864090  20.6082670
  55.9725820  96.1828530  26.7416790  56.3398860  96.0955930  27.6212810
  55.4036640  95.4195080  26.6423650  70.7729680  94.6512910  29.7547260
  70.5415770  94.4225660  28.8545210  71.0334230  95.5712460  29.7092150
  55.5241820  93.0937620  30.6475210  54.6297870  93.0604380  30.9868920
  56.0639370  93.2924410  31.4126460  69.2117750  89.8769340  32.5326960
  70.0887930  89.8852740  32.9160960  69.2238590  89.1400180  31.9219310
  54.1487970  93.0074890  18.1438780  53.2452050  93.2705090  17.9690440
  54.6328590  93.2786060  17.3638740  70.6581020  93.7298880  23.4214980
  71.1818500  93.2361530  22.7905150  71.2440440  93.8649240  24.1662550
  70.8370740  93.8138750  26.9434530  69.8873450  93.7802290  27.0579520
  71.0183750  94.7238860  26.7084300  56.6915180  92.0640430  16.0533160
  57.4006880  91.6423650  15.5680440  55.9755120  92.1315660  15.4216510
  56.3389340  88.1179760  15.0935810  57.0617470  88.6588700  15.4117030
  56.6113860  87.8443180  14.2177350  70.1480990  92.9872230  19.3607390
  70.6440110  92.7543100  20.1456270  69.9497060  92.1484070  18.9445030
  56.0281530  87.3685950  24.9958430  56.6757720  86.8183330  24.5553590
  56.4483370  87.6229100  25.8174240  71.5768150  91.6233180  21.8945070
  71.4667430  91.4689220  22.8327340  72.3375740  91.0954120  21.6520480
  69.9233870  87.5627310  28.3528070  70.5606090  88.1761450  28.7187260
  70.0708760  87.5987970  27.4077300  72.4658420  89.4541100  15.1351210
  73.3907730  89.3222280  14.9269500  72.4434210  89.5333920  16.0887660
  72.5396910  90.2251760  17.7607920  71.7448410  90.1596880  18.2900830
  72.7440190  91.1602400  17.7493270  69.4815330 104.2643310  21.7546310
  70.0774400 103.9427880  21.0780730  69.7393480 103.7915130  22.5459580
  55.7813530  87.5241620  27.7383750  55.4328350  87.9805440  28.5041930
  55.4501230  86.6298750  27.8206180  57.3877900 100.6961220  31.9036940
  57.3447530 100.3254130  32.7851400  57.5188910 101.6338790  32.0438760
  61.0883930 102.2520810  27.5046660  60.8475290 102.5195370  26.6177180
  62.0286570 102.4226540  27.5597520  63.2938350  88.7153500  31.2603170
  63.2327240  89.3075330  32.0098580  64.2338730  88.6079460  31.1153430
  65.9312910  88.3723560  30.8995460  66.5453320  88.6902850  30.2376540
  66.4762470  87.8872150  31.5191320  72.3488090 104.2715190  28.3057300
  71.8546370 104.6684060  27.5884430  71.7401380 103.6464400  28.6994580
  56.4534170  87.0517820  31.0134520  57.0017160  86.8705870  30.2500630
  56.5189480  86.2611930  31.5490830  57.2265930 103.6423470  29.0234720
  56.6326250 103.5108170  29.7624760  57.2189770 102.8061610  28.5576820
  66.6720950  86.9355700  27.2264750  65.7980790  87.2690810  27.0237680
  66.5631700  86.4628880  28.0516620  67.5792930  89.1426570  28.6106470
  67.2506290  88.3278330  28.2308200  68.5275230  89.0996380  28.4872160
  70.0327540 104.9138610  25.5844040  69.5730510 105.6654420  25.2102060
  69.4040000 104.1945080  25.5258840  56.8578160 101.0081850  27.9742760
  56.1312220 100.3887140  27.9068710  56.9187310 101.4022460  27.1040840
  60.4623260 103.2226850  24.7592170  60.9788280 102.6114210  24.2340430
  61.1120640 103.7255630  25.2503180  63.2018760 104.1135340  25.5861150
  63.4896570 103.8589640  24.7094160  63.7141980 103.5612700  26.1766720
  64.4195770  87.8525540  26.1657660  63.6367560  88.3271040  26.4454420
  64.1258700  86.9480370  26.0570840  68.9716840  88.5548640  24.2106750
  69.4124930  88.4993740  23.3628350  68.7024430  89.4706650  24.2816930
  70.8355410  88.1863880  22.2215570  70.7743810  87.2425100  22.0746590
  71.6147440  88.2943970  22.7669030  55.1408160 104.3256240  21.1839520
  54.9730200 103.6926920  21.8821410  54.2742670 104.5315640  20.8333710
  55.7636180  88.1573020  18.6871380  56.5215540  88.2701900  18.1135410
  55.3013350  88.9942220  18.6414810  62.3049990  90.2712290  21.6773690
  61.4924500  89.8969180  21.3369570  62.8091630  89.5157370  21.9794880
  66.8074970  86.9354740  22.9156760  67.4104340  87.5074950  23.3905280
  66.0667960  87.4994180  22.6930660  69.9509570  87.3376300  18.1897040
  70.1460200  88.2359750  18.4564470  69.1639440  87.1063380  18.6829990
  56.7470860 103.0189470  18.6289660  56.2218480 103.3997500  17.9251620
  56.6715440 103.6440240  19.3499370  58.1361330  88.6837070  17.2273350
  58.6654090  87.8966870  17.0981300  58.7689650  89.3628260  17.4608880
  60.3299170  88.4212210  20.2818740  59.7001910  87.7199520  20.4488870
  59.7904310  89.1816340  20.0651900  63.2691120 105.0351440  32.9529350
  64.1958430 104.7995710  32.9965310  63.2541550 105.8623440  32.4715380
  71.5036180 104.5777010  19.9503600  71.6788370 103.8914750  19.3064520
  70.8057750 105.1024060  19.5580270  60.4554730  87.6996190  32.7171230
  60.1739000  88.2029790  31.9532050  60.8374430  86.9017940  32.3513360
  59.3463830 104.9671850  17.5038910  60.0782650 104.6831130  16.9562800
  59.6057500 104.7285130  18.3938290  58.5078620 101.0836580  17.5085240
  57.8787500 101.5521680  18.0571070  58.6226450 100.2385800  17.9431430
  67.0570190  87.1149770  33.2951700  66.9435640  87.4344380  34.1903220
  67.8739930  87.5162280  32.9988980  69.8368680 104.2621300  32.7770390
  70.6294000 103.7670530  32.5696350  70.1301830 104.9411440  33.3846000
  65.9628340  95.1342240   3.6586440  65.8822390  94.2196850   3.3878150
  65.5492760  95.6309310   2.9526150  64.0946380  96.9121260   5.5395710
  63.3188480  96.4321700   5.8294280  64.7459310  96.2326910   5.3651870
  58.1112210  97.2241070   6.4171470  57.2797090  96.9689780   6.8167980
  58.7193190  97.2951840   7.1529390  68.1153810 101.3181450   4.3194840
  67.6535340 100.5468690   4.6482010  68.9279360 101.3447520   4.8247290
  58.0913470 101.2581160   6.6129490  58.3941510 100.3678900   6.4339710
  58.8357060 101.8151380   6.3851740  54.4837170  94.7848610   6.0853560
  55.0553280  94.0170810   6.0857200  54.4838710  95.0837370   5.1760170
  64.3417120 103.6039460   3.9398830  63.7228560 104.0596960   3.3693270
  65.1968900 103.7590920   3.5388530  63.5355370  99.5878450   5.5465870
  63.4663650  98.6468390   5.3855000  64.2975230  99.6779860   6.1188440
  55.7262040  90.1932970   7.8722490  55.5464880  89.2958720   8.1525250
  55.3242120  90.7404840   8.5469440  64.5660540  92.3948830   5.7734800
  64.9425360  91.5220710   5.6608470  64.4680050  92.7307530   4.8825240
  68.3484660  89.8899270   2.7063140  69.1694280  89.3995840   2.7488620
  68.3818740  90.4796930   3.4594980  56.3448710  92.6893470   6.4804830
  57.0258820  92.9531840   7.0992230  56.0296760  91.8494340   6.8142840
  60.5373280  93.7360830   5.5677420  61.0451500  94.2341800   6.2082440
  61.0686520  92.9596030   5.3916780  72.6384210  91.9066020   9.2706770
  71.9336380  92.2947730   8.7521880  72.9042130  92.6016310   9.8727700
  58.8209380  88.3759390   9.8340840  58.8227820  88.8931780   9.0286740
  57.9913690  87.8989570   9.8110770  60.0712230  98.0154570   8.0114340
  59.7381610  98.6423490   8.6535410  60.2478910  98.5416450   7.2316010
  68.5846140  91.8299650   5.4790680  67.8801710  92.1184540   6.0593790
  68.9458300  92.6399760   5.1190240  58.5024710  90.0869350   7.8411290
  58.8441520  90.9311400   7.5465160  57.5640520  90.2353090   7.9576630
  59.2831330  99.9835370   9.8263520  59.9005330 100.6586450   9.5447970
  58.4224450 100.3923350   9.7351020  70.2008920 101.4474780   7.7418160
  69.5172440 102.1173890   7.7334830  70.7403210 101.6455430   6.9763020
  71.6533060  91.2754440   5.8699890  70.7057970  91.3093420   6.0015320
  71.9783050  92.0893390   6.2549250  62.1852600  87.5751620   4.1655880
  62.4927580  87.0198510   3.4491380  61.2553300  87.7096080   3.9828870
  67.7367660 103.2918910   6.4563340  67.7494820 102.8881200   5.5885600
  67.1842880 104.0666200   6.3524770  67.1353100  98.1948750   7.7845950
  67.5521890  97.9808860   6.9499410  67.8592920  98.4521540   8.3554570
  71.0815200  96.5935970   7.8762190  70.2533830  96.6629060   7.4012320
  71.6765680  97.1790280   7.4078020  68.0457210  93.3805290   8.8217060
  67.6328390  94.2059000   9.0757050  67.3133160  92.7950330   8.6293420
  60.1790000  96.1665190   3.6835730  59.7747000  95.4542440   3.1881630
  60.2653120  95.8218430   4.5723770  60.6471700  99.8532750   5.8474940
  60.3499990  99.2478220   5.1682720  61.5971520  99.8910060   5.7364300
  58.8918620  92.9408400   7.4634770  59.4433210  93.0503740   6.6888020
  59.4062130  93.3146000   8.1790000  68.7357310 103.4264620   9.5098040
  68.2587870 104.2336810   9.3170650  68.0519100 102.7742950   9.6624250
  59.7390130  99.5914440  12.4982740  58.8418660  99.8154410  12.7456140
  59.7643000  99.7149380  11.5494140  58.5661350  96.4627760  11.0740110
  58.4269120  97.3350560  11.4427510  57.6842710  96.1200570  10.9288050
  64.8890730 101.3803630   2.3805240  65.3286640 102.1227960   1.9660630
  64.8277620 101.6230200   3.3044200  60.3641700 102.4049460  13.2825260
  60.3357130 102.8092410  12.4153690  60.2006670 101.4759820  13.1196860
  72.3156520 103.1876560  14.5789430  72.7916240 103.6659450  15.2578510
  72.9363680 103.1194050  13.8534930  54.5180000  98.2325310   6.9911020
  54.5960420  98.3674080   6.0466740  55.1321680  97.5241200   7.1839140
  55.7627630  99.9325500   3.4017200  55.3555710 100.0740090   2.5470800
  56.6540640  99.6485660   3.1988410  71.7189770 100.3789410  11.7389440
  71.8452830 100.1401290  10.8206620  71.7611150  99.5473950  12.2111520
  65.5806510 104.0817410  10.3084250  66.0951180 103.9925420  11.1106680
  64.7375590 104.4277110  10.6012160  66.8236970 103.5023020   2.3714740
  67.2793920 102.7212400   2.6853360  67.1629490 104.2129840   2.9155920
  71.5713780  92.4321870  12.7039180  70.9558050  92.9401540  12.1754640
  71.2510200  91.5320200  12.6465120  54.5739520  99.2739480   9.5305480
  54.7370560  98.8044840   8.7124850  55.0391970  98.7663040  10.1954320
  59.3458290  88.4045240   4.5666050  58.9026440  89.1854780   4.2350570
  59.9043280  88.7275130   5.2736990  63.6328100  91.2713760  10.1701370
  63.1707470  91.4796780  10.9821310  63.2306210  90.4573110   9.8672040
  68.6332610  92.4922710  11.2998030  67.7826200  92.1928460  11.6207100
  68.4734400  92.7364720  10.3881850  65.7282320  93.9924460  13.3996820
  66.0535730  93.1588210  13.0599050  66.5162650  94.5152980  13.5475150
  61.3834190  88.9492570   6.4255650  61.6806520  89.8555400   6.3447670
  61.9319750  88.4611350   5.8115220  59.1372510  93.5278810   2.2947300
  58.9113430  93.3115980   3.1993920  58.3565040  93.9607270   1.9493270
  61.5771720  94.4264390  12.9607570  61.4815320  93.4859120  12.8107970
  62.4203700  94.6479460  12.5655640  64.9735140  92.1705720   2.9241230
  65.3664710  92.4877920   2.1109920  65.3351990  91.2917600   3.0385750
  56.7082260  90.8378060  11.1141350  56.3145650  91.6853270  11.3214130
  56.0200660  90.2004430  11.3049990  63.2827310  90.9213030  14.1838090
  62.5925630  90.7285230  14.8184180  64.0259610  91.2047670  14.7162390
  54.0099310  88.7606520   5.1471430  53.7212360  89.3309380   5.8596410
  54.7545070  88.2810970   5.5102660  65.5590280  94.7611470   7.0192010
  64.8271400  95.2698280   7.3682110  65.1614620  93.9441450   6.7180790
  61.9967670  91.4365670   5.4244500  62.0003730  90.9955620   4.5749040
  62.8918790  91.7583000   5.5316320  57.8470050  91.3192160   4.3838710
  57.5070100  91.7967390   5.1405760  57.0847370  90.8657280   4.0239810
  66.0216190  90.2145150   6.4314950  66.0388930  90.6653800   7.2756800
  65.7731770  89.3150790   6.6448390  69.4486940  87.6277330  12.2701330
  69.7732710  86.8966990  12.7959310  69.4843450  87.3090970  11.3682320
  56.1478500  98.6490910  11.6901290  55.7633290  98.0084580  12.2884250
  56.4590690  99.3527030  12.2596020  62.2975640  95.4967450   7.1709910
  62.6645770  95.0226020   7.9171250  62.1080700  96.3709020   7.5118250
  55.1616130  90.2411140   3.3003380  54.8763050  89.8766810   4.1382000
  55.0994990  89.5091600   2.6866520  60.0875010  94.5376090   9.4894120
  59.7832080  95.4168070   9.7144480  61.0421470  94.5975880   9.5251560
  69.3744780  97.7402440   5.8787360  70.0943900  98.2357730   5.4883470
  69.1726600  97.0620330   5.2341230  64.7563580  97.8111500  11.7656360
  64.6900890  96.8907170  11.5113950  64.1268720  97.9086940  12.4801000
  58.6594200  98.4117460   3.7239780  59.1772870  97.6085720   3.6696670
  58.2078220  98.3496600   4.5656610  56.1438740  95.3778830  10.6365480
  55.7853680  96.0432680  11.2238820  55.8493300  94.5462380  11.0078100
  59.3451860  95.8363070  13.5205030  59.0452000  95.9820250  12.6232850
  60.1163100  95.2768360  13.4278420  64.6880310 100.6332070  11.5160160
  64.7024850  99.7013030  11.2979070  63.9805410 100.7191830  12.1549930
  70.8991520  97.2739410  10.8628740  70.1739710  97.8668190  10.6658130
  71.4266980  97.2662950  10.0642110  66.4291110  98.9999580   4.3612590
  66.7814930  98.4027710   3.7013960  65.5453440  98.6743810   4.5320840
  62.5154390  99.7597270   1.7683000  63.2025520 100.3066480   2.1490590
  61.7286810 100.3038000   1.8032610  64.1214210 102.2749640   8.6100660
  64.7656430 102.4809020   9.2874080  64.4843650 101.5138040   8.1571510
  65.3946290 100.2781990   7.3278110  66.0368520  99.5775150   7.4410280
  65.9195640 101.0580430   7.1475000  67.1683910 101.0776890  10.5314170
  67.5040150 101.6643580  11.2092090  66.2484250 100.9469600  10.7611960
  54.7187310  88.8672070  11.3137580  54.0045830  89.0668990  11.9190190
  55.1382350  88.0911640  11.6852380  55.0059900 102.8552330  12.3004110
  55.1151020 101.9147070  12.1599500  54.3540460 103.1207080  11.6517840
  62.9972490 101.1268220  13.7002230  62.6769360 100.4077460  14.2447920
  62.3230850 101.8023290  13.7738290  66.2126090  91.3594380   9.0639030
  66.5806910  90.5389590   9.3918600  65.3524290  91.4196270   9.4794680
  63.1728080  94.0133970   9.2877000  63.6713330  94.4879790   9.9528850
  63.3151030  93.0897490   9.4947030  65.5787580  89.3187930   2.7280260
  65.4555360  89.3374060   1.7789770  66.5272140  89.3666870   2.8478660
  70.3794940  90.2301930  10.1305390  69.8768540  90.9707330  10.4699200
  71.1951600  90.6185930   9.8142180  68.6716950  95.4735110   3.5766750
  67.7307090  95.4885340   3.7514440  68.9861020  94.6871070   4.0227050
  70.6742530 102.6443960   5.2521010  70.7989950 103.4675130   5.7244820
  71.5408090 102.4334690   4.9045160  58.1460060 104.7375170   4.9238140
  58.8822540 104.1890630   5.1946710  58.5300980 105.6031180   4.7844130
  57.1518340 103.9221240  14.1123720  57.9531070 104.2433290  14.5259120
  56.6370160 103.5616820  14.8343630  65.9882970 100.0301110  14.0599130
  65.3821130 100.0532710  13.3194880  65.6837080  99.2984150  14.5966380
  67.4183340 103.7581400  12.6708540  68.3705090 103.6739420  12.6208780
  67.2711560 104.4223110  13.3442330  54.8716150  96.4094700  13.0559770
  55.3755170  95.8301980  13.6276000  54.1323570  96.6934930  13.5936140
  61.9254090  97.8165690  12.5895290  61.1599760  98.3850690  12.5049960
  62.1070050  97.5241900  11.6963520  69.0677440  99.5471020  13.1470310
  69.8086910  99.8846780  12.6437770  68.3050120  99.7163080  12.5940080
  56.9039230  94.5524290  13.9509840  56.9444570  94.2538160  14.8595070
  57.7584730  94.9531900  13.7917360  58.8445040  93.1316390  11.9184330
  58.3141500  92.6407340  11.2907670  59.5133110  93.5600590  11.3842260
  67.7423100  97.5985850  11.6825520  68.1564120  97.7530930  12.5315940
  66.8074100  97.7241070  11.8451300  68.2145270  94.9382010  13.6864670
  68.7966040  94.1834330  13.5985150  68.3907040  95.4689450  12.9096150
  59.3317340  90.0978760  11.9981620  59.2374210  89.4799510  11.2732490
  58.7514730  90.8245050  11.7711530  62.0978780  88.6552000   9.0309010
  61.6496080  88.6776260   8.1854560  61.4643980  88.2571020   9.6279310
  62.5038330  97.5506330   9.6521450  62.9226440  98.3939060   9.4797690
  61.5846960  97.6878370   9.4228230  64.8402230  95.2822510  11.0359290
  64.9598440  94.6863650  11.7754130  65.6996230  95.3192200  10.6160590
  67.1790130  95.8359700   9.6121800  66.6525350  96.3602320   9.0086940
  67.5221470  96.4687090  10.2431530  60.3545750 103.8559340  10.7679180
  59.8166840 104.5805400  10.4487880  60.6079710 103.3789680   9.9776520
  61.6071000  91.8243860  12.2935110  62.1970690  91.5159710  12.9812930
  60.7891240  91.3523610  12.4495010  66.4264430  91.4409670  12.5268130
  65.7379950  90.7791210  12.4618120  67.1470450  90.9947940  12.9716590
  63.2107960 105.0910550  11.0265830  63.1366660 105.9945690  11.3338200
  62.3086800 104.7722450  10.9987900  54.6135250 102.4185140   4.3299450
  54.9438260 101.5506200   4.0978090  55.0426250 102.6243660   5.1604410
  55.1025460 103.2855730   7.0681080  54.6656450 103.4656530   7.9005230
  55.6703140 104.0430350   6.9262800  70.7387640 102.7872730  11.3558390
  70.1389630 102.8465290  10.6122310  70.8681540 101.8477710  11.4855240
  54.9349890  95.7975960   3.4269960  54.2798730  95.5287600   2.7829660
  55.7727840  95.6880440   2.9771940  72.4405520  98.1288130   4.0404230
  72.8114350  97.3455450   3.6340200  73.0807450  98.8177230   3.8621530
  69.4239280  99.5124710   9.4534550  68.6099120  99.9421870   9.7160340
  69.8313480 100.1243120   8.8403600  55.9725820  96.1828530   7.9673300
  56.3398860  96.0955930   8.8469320  55.4036640  95.4195080   7.8680160
  70.7729680  94.6512910  10.9803770  70.5415770  94.4225660  10.0801720
  71.0334230  95.5712460  10.9348660  55.5241820  93.0937620  11.8731720
  54.6297870  93.0604380  12.2125430  56.0639370  93.2924410  12.6382970
  69.2117750  89.8769340  13.7583470  70.0887930  89.8852740  14.1417470
  69.2238590  89.1400180  13.1475820  70.6581020  93.7298880   4.6471490
  71.1818500  93.2361530   4.0161660  71.2440440  93.8649240   5.3919060
  70.8370740  93.8138750   8.1691040  69.8873450  93.7802290   8.2836030
  71.0183750  94.7238860   7.9340810  56.0281530  87.3685950   6.2214940
  56.6757720  86.8183330   5.7810100  56.4483370  87.6229100   7.0430750
  71.5768150  91.6233180   3.1201580  71.4667430  91.4689220   4.0583850
  72.3375740  91.0954120   2.8776990  69.9233870  87.5627310   9.5784580
  70.5606090  88.1761450   9.9443770  70.0708760  87.5987970   8.6333810
  69.4815330 104.2643310   2.9802820  70.0774400 103.9427880   2.3037240
  69.7393480 103.7915130   3.7716090  55.7813530  87.5241620   8.9640260
  55.4328350  87.9805440   9.7298440  55.4501230  86.6298750   9.0462690
  57.3877900 100.6961220  13.1293450  57.3447530 100.3254130  14.0107910
  57.5188910 101.6338790  13.2695270  61.0883930 102.2520810   8.7303170
  60.8475290 102.5195370   7.8433690  62.0286570 102.4226540   8.7854030
  63.2938350  88.7153500  12.4859680  63.2327240  89.3075330  13.2355090
  64.2338730  88.6079460  12.3409940  65.9312910  88.3723560  12.1251970
  66.5453320  88.6902850  11.4633050  66.4762470  87.8872150  12.7447830
  72.3488090 104.2715190   9.5313810  71.8546370 104.6684060   8.8140940
  71.7401380 103.6464400   9.9251090  56.4534170  87.0517820  12.2391030
  57.0017160  86.8705870  11.4757140  56.5189480  86.2611930  12.7747340
  57.2265930 103.6423470  10.2491230  56.6326250 103.5108170  10.9881270
  57.2189770 102.8061610   9.7833330  66.6720950  86.9355700   8.4521260
  65.7980790  87.2690810   8.2494190  66.5631700  86.4628880   9.2773130
  67.5792930  89.1426570   9.8362980  67.2506290  88.3278330   9.4564710
  68.5275230  89.0996380   9.7128670  70.0327540 104.9138610   6.8100550
  69.5730510 105.6654420   6.4358570  69.4040000 104.1945080   6.7515350
  56.8578160 101.0081850   9.1999270  56.1312220 100.3887140   9.1325220
  56.9187310 101.4022460   8.3297350  60.4623260 103.2226850   5.9848680
  60.9788280 102.6114210   5.4596940  61.1120640 103.7255630   6.4759690
  63.2018760 104.1135340   6.8117660  63.4896570 103.8589640   5.9350670
  63.7141980 103.5612700   7.4023230  64.4195770  87.8525540   7.3914170
  63.6367560  88.3271040   7.6710930  64.1258700  86.9480370   7.2827350
  68.9716840  88.5548640   5.4363260  69.4124930  88.4993740   4.5884860
  68.7024430  89.4706650   5.5073440  70.8355410  88.1863880   3.4472080
  70.7743810  87.2425100   3.3003100  71.6147440  88.2943970   3.9925540
  55.1408160 104.3256240   2.4096030  54.9730200 103.6926920   3.1077920
  54.2742670 104.5315640   2.0590220  62.3049990  90.2712290   2.9030200
  61.4924500  89.8969180   2.5626080  62.8091630  89.5157370   3.2051390
  66.8074970  86.9354740   4.1413270  67.4104340  87.5074950   4.6161790
  66.0667960  87.4994180   3.9187170  63.2691120 105.0351440  14.1785860
  64.1958430 104.7995710  14.2221820  63.2541550 105.8623440  13.6971890
  60.4554730  87.6996190  13.9427740  60.1739000  88.2029790  13.1788560
  60.8374430  86.9017940  13.5769870  67.0570190  87.1149770  14.5208210
  66.9435640  87.4344380  15.4159730  67.8739930  87.5162280  14.2245490
  69.8368680 104.2621300  14.0026900  70.6294000 103.7670530  13.7952860
  70.1301830 104.9411440  14.6102510  65.9628340  76.3598750  97.5303890
  65.8822390  75.4453360  97.2595600  65.5492760  76.8565820  96.8243600
  64.0946380  78.1377770  99.4113160  63.3188480  77.6578210  99.7011730
  64.7459310  77.4583420  99.2369320  58.1112210  78.4497580 100.2888920
  57.2797090  78.1946290 100.6885430  58.7193190  78.5208350 101.0246840
  68.1153810  82.5437960  98.1912290  67.6535340  81.7725200  98.5199460
  68.9279360  82.5704030  98.6964740  58.0913470  82.4837670 100.4846940
  58.3941510  81.5935410 100.3057160  58.8357060  83.0407890 100.2569190
  56.5204160  73.4099470  94.0731310  55.6320860  73.7515440  93.9711190
  56.8045350  73.2099790  93.1812140  54.4837170  76.0105120  99.9571010
  55.0553280  75.2427320  99.9574650  54.4838710  76.3093880  99.0477620
  64.3417120  84.8295970  97.8116280  63.7228560  85.2853470  97.2410720
  65.1968900  84.9847430  97.4105980  63.5355370  80.8134960  99.4183320
  63.4663650  79.8724900  99.2572450  64.2975230  80.9036370  99.9905890
  55.7262040  71.4189480 101.7439940  55.5464880  70.5215230 102.0242700
  55.3242120  71.9661350 102.4186890  64.5660540  73.6205340  99.6452250
  64.9425360  72.7477220  99.5325920  64.4680050  73.9564040  98.7542690
  58.6965550  71.9930970  95.1069690  58.8032300  72.8934700  95.4138450
  57.7857910  71.9448940  94.8164340  68.3484660  71.1155780  96.5780590
  69.1694280  70.6252350  96.6206070  68.3818740  71.7053440  97.3312430
  56.3448710  73.9149980 100.3522280  57.0258820  74.1788350 100.9709680
  56.0296760  73.0750850 100.6860290  60.5373280  74.9617340  99.4394870
  61.0451500  75.4598310 100.0799890  61.0686520  74.1852540  99.2634230
  65.2080470  79.7135210  95.2048190  64.5897740  80.1784660  94.6410910
  65.7203720  80.4062690  95.6217700  60.0712230  79.2411080 101.8831790
  59.7381610  79.8680000 102.5252860  60.2478910  79.7672960 101.1033460
  68.5846140  73.0556160  99.3508130  67.8801710  73.3441050  99.9311240
  68.9458300  73.8656270  98.9907690  58.5024710  71.3125860 101.7128740
  58.8441520  72.1567910 101.4182610  57.5640520  71.4609600 101.8294080
  54.5763670  80.3991740  92.5787820  54.1991650  80.8878840  91.8472720
  54.8336740  81.0717020  93.2094350  70.2008920  82.6731290 101.6135610
  69.5172440  83.3430400 101.6052280  70.7403210  82.8711940 100.8480470
  71.6533060  72.5010950  99.7417340  70.7057970  72.5349930  99.8732770
  71.9783050  73.3149900 100.1266700  62.1852600  68.8008130  98.0373330
  62.4927580  68.2455020  97.3208830  61.2553300  68.9352590  97.8546320
  67.7367660  84.5175420 100.3280790  67.7494820  84.1137710  99.4603050
  67.1842880  85.2922710 100.2242220  69.0313080  81.2391640  95.4170960
  68.9209410  80.2965970  95.5420380  69.0281330  81.6007280  96.3033720
  67.1353100  79.4205260 101.6563400  67.5521890  79.2065370 100.8216860
  67.8592920  79.6778050 102.2272020  64.5733360  76.8656960  94.7733450
  63.6462640  76.7994340  95.0021920  64.7258180  77.8037090  94.6588690
  64.5602440  73.1373960  91.7700610  63.6206110  73.2987920  91.8553070
  64.8785700  73.8559640  91.2236600  71.0815200  77.8192480 101.7479640
  70.2533830  77.8885570 101.2729770  71.6765680  78.4046790 101.2795470
  68.6030650  78.4277260  95.2768700  67.9843070  78.0896810  94.6295000
  68.5855100  77.7837020  95.9847890  60.1790000  77.3921700  97.5553180
  59.7747000  76.6798950  97.0599080  60.2653120  77.0474940  98.4441220
  60.6471700  81.0789260  99.7192390  60.3499990  80.4734730  99.0400170
  61.5971520  81.1166570  99.6081750  58.8918620  74.1664910 101.3352220
  59.4433210  74.2760250 100.5605470  59.4062130  74.5402510 102.0507450
  66.7795350  77.6664070  92.2841450  67.2188630  76.8286500  92.1379270
  67.4923770  78.2993470  92.3705590  64.8890730  82.6060140  96.2522690
  65.3286640  83.3484470  95.8378080  64.8277620  82.8486710  97.1761650
  70.3612490  68.9206880  90.5982490  70.0485150  69.0133710  91.4981560
  71.1224960  69.4987910  90.5479920  56.8794630  76.2866680  95.0559830
  56.7592230  77.0128770  94.4441100  56.5695520  75.5169590  94.5787740
  54.5180000  79.4581820 100.8628470  54.5960420  79.5930590  99.9184190
  55.1321680  78.7497710 101.0556590  55.7627630  81.1582010  97.2734650
  55.3555710  81.2996600  96.4188250  56.6540640  80.8742170  97.0705860
  67.5560910  85.5929260  93.6085700  67.3962050  85.3032200  94.5067530
  67.3907620  84.8169390  93.0730930  60.0349290  85.3727790  95.3857320
  59.8591770  84.4563330  95.1725120  59.1805030  85.7315080  95.6255120
  67.2587040  83.1016820  92.1683700  66.5652200  83.0994110  91.5085980
  68.0009900  82.6776140  91.7377870  66.8236970  84.7279530  96.2432190
  67.2793920  83.9468910  96.5570810  67.1629490  85.4386350  96.7873370
  59.3458290  69.6301750  98.4383500  58.9026440  70.4111290  98.1068020
  59.9043280  69.9531640  99.1454440  62.4617110  69.2512450  93.3189330
  61.8371290  69.2472320  94.0442640  62.3747230  68.3843410  92.9225300
  61.3834190  70.1749080 100.2973100  61.6806520  71.0811910 100.2165120
  61.9319750  69.6867860  99.6832670  59.1372510  74.7535320  96.1664750
  58.9113430  74.5372490  97.0711370  58.3565040  75.1863780  95.8210720
  66.3670270  74.7598690  94.7655400  65.7679160  75.4834490  94.5819020
  66.9149880  74.6975470  93.9831850  64.9735140  73.3962230  96.7958680
  65.3664710  73.7134430  95.9827370  65.3351990  72.5174110  96.9103200
  54.0099310  69.9863030  99.0188880  53.7212360  70.5565890  99.7313860
  54.7545070  69.5067480  99.3820110  54.1969540  73.9283150  90.2291600
  54.1144210  74.8713910  90.3706590  53.8452600  73.7858060  89.3503950
  65.5590280  75.9867980 100.8909460  64.8271400  76.4954790 101.2399560
  65.1614620  75.1697960 100.5898240  61.9967670  72.6622180  99.2961950
  62.0003730  72.2212130  98.4466490  62.8918790  72.9839510  99.4033770
  57.8470050  72.5448670  98.2556160  57.5070100  73.0223900  99.0123210
  57.0847370  72.0913790  97.8957260  62.0587820  73.6634260  92.2868710
  62.1800640  73.6220740  93.2354530  61.6736330  74.5258410  92.1315440
  66.0216190  71.4401660 100.3032400  66.0388930  71.8910310 101.1474250
  65.7731770  70.5407300 100.5165840  61.0709320  75.9735400  91.6852010
  60.5026220  75.5253650  91.0587920  61.7798320  76.3328180  91.1517160
  62.2975640  76.7223960 101.0427360  62.6645770  76.2482530 101.7888700
  62.1080700  77.5965530 101.3835700  55.1616130  71.4667650  97.1720830
  54.8763050  71.1023320  98.0099450  55.0994990  70.7348110  96.5583970
  58.6156800  79.9693590  93.9578420  57.8419060  79.4291210  93.7977140
  59.3451430  79.4500200  93.6196180  69.3744780  78.9658950  99.7504810
  70.0943900  79.4614240  99.3600920  69.1726600  78.2876840  99.1058680
  64.8354720  70.3596910  93.8934200  64.0219330  69.8610080  93.8179510
  64.6416670  71.1995160  93.4770550  67.5503110  74.7316560  92.1896360
  68.4382730  75.0433790  92.0147700  67.5208200  73.8588810  91.7976940
  58.6594200  79.6373970  97.5957230  59.1772870  78.8342230  97.5414120
  58.2078220  79.5753110  98.4374060  63.5463700  80.9040250  92.8684530
  63.8879400  81.6482480  92.3727850  62.7176410  81.2171370  93.2309360
  69.8217380  76.0428400  91.6576220  69.7381100  76.4742620  90.8072660
  70.5411570  76.5026750  92.0903040  70.8504630  82.8970660  94.3858350
  70.2080790  82.2426280  94.6602070  70.4635290  83.3025750  93.6099020
  66.4291110  80.2256090  98.2330040  66.7814930  79.6284220  97.5731410
  65.5453440  79.9000320  98.4038290  62.5154390  80.9853780  95.6400450
  63.2025520  81.5322990  96.0208040  61.7286810  81.5294510  95.6750060
  54.6546790  76.6026600  91.1317530  55.5241640  76.8851400  91.4153450
  54.1637110  77.4162470  91.0166340  61.8181600  77.9899810  95.2525810
  62.2744380  78.8005060  95.4786000  61.4669810  77.6722950  96.0844300
  57.7193380  68.3337460  95.7248330  57.5908010  68.3255360  96.6733250
  56.8955400  68.6720550  95.3739340  65.3946290  81.5038500 101.1995560
  66.0368520  80.8031660 101.3127730  65.9195640  82.2836940 101.0192450
  69.2402010  81.7887120  90.9234700  69.0139590  81.0717560  91.5159340
  68.8498210  81.5399560  90.0856450  55.0218040  85.8153980  91.6979160
  55.3815680  86.4143320  91.0436430  54.8810380  86.3613870  92.4714190
  68.8218260  79.7059060  92.5848860  68.5339960  80.1671750  93.3726740
  69.6170430  79.2456830  92.8533080  61.0386660  83.1985180  92.5152830
  61.0296760  83.9314870  91.8997340  60.1185020  82.9516760  92.6079790
  56.6393300  78.4200070  93.2599590  56.0321250  79.1598970  93.2694890
  57.1142650  78.5099430  92.4337790  69.5788120  71.5407830  93.7444040
  68.9501280  71.6453500  93.0302270  69.0840040  71.7604610  94.5337920
  64.0246260  83.2613420  91.1778020  64.1258240  83.0577410  90.2480000
  63.1248000  83.0071700  91.3825800  61.5472150  73.8193780  95.1601920
  60.8388300  74.2880120  95.6015530  61.8316630  73.1615790  95.7947110
  65.5787580  70.5444440  96.5997710  65.4555360  70.5630570  95.6507220
  66.5272140  70.5923380  96.7196110  62.6664370  85.7799740  95.8725690
  62.9205870  85.7421130  94.9505060  61.7176850  85.6533070  95.8653940
  59.7507170  72.1278860  92.5352630  60.5997700  72.5649010  92.4692820
  59.3838440  72.4399120  93.3624690  68.6716950  76.6991620  97.4484200
  67.7307090  76.7141850  97.6231890  68.9861020  75.9127580  97.8944500
  58.6498590  78.3811220  91.0088160  59.4161860  78.2692580  91.5713590
  58.7273280  77.6849190  90.3564930  57.3445350  75.8136290  91.6921050
  57.4248940  74.8663800  91.8038450  58.2365100  76.1443170  91.7981710
  70.6742530  83.8700470  99.1238460  70.7989950  84.6931640  99.5962270
  71.5408090  83.6591200  98.7762610  58.1460060  85.9631680  98.7955590
  58.8822540  85.4147140  99.0664160  58.5300980  86.8287690  98.6561580
  55.0305540  82.0305250  94.6697100  54.1045320  82.2726390  94.6602510
  55.4961970  82.8579510  94.5481850  61.2562370  85.1361990  90.6181160
  62.0490980  85.4250820  90.1662950  60.7366720  84.7054160  89.9393640
  70.3092540  84.3632120  92.0417900  70.0234050  83.9497260  91.2272080
  70.1112090  85.2919830  91.9218420  61.7739770  80.3565400  90.4823510
  61.6690410  79.7417750  91.2084890  61.6063990  79.8331290  89.6986520
  65.0142500  79.4185430  91.0865500  64.4652600  79.8654730  91.7308240
  65.6361760  78.9134680  91.6103170  60.6817620  78.3776350  92.9830800
  61.1034040  78.2116220  93.8262190  60.8068460  77.5676580  92.4885940
  63.1945260  77.4013960  90.2307900  63.7150920  76.6862980  89.8649050
  63.8413660  78.0399830  90.5308410  59.5776520  74.4509580  89.9288960
  59.3765580  73.5876940  90.2902300  59.4068570  74.3642940  88.9910560
  67.0564830  69.2617810  92.4575840  67.3367120  68.4185710  92.8135260
  66.2830560  69.4940920  92.9714590  58.3759320  71.5510200  89.9166840
  58.6785220  71.5577630  89.0085990  59.1153910  71.2008060  90.4134500
  61.5944250  70.4944820  90.9023040  61.2466250  69.8168810  90.3225490
  61.7957020  70.0334330  91.7166430  63.7593290  85.4825570  92.5209640
  64.6544080  85.8210540  92.5428400  63.7910920  84.7604980  91.8933920
  57.3989450  80.8552620  90.7496640  57.8364320  81.3982290  91.4054220
  57.8837180  80.0299570  90.7592980  54.6135250  83.6441650  98.2016900
  54.9438260  82.7762710  97.9695540  55.0426250  83.8500170  99.0321860
  59.2097170  81.9750660  95.8618870  58.9092710  81.8515630  96.7622780
  59.1034660  81.1159250  95.4534600  55.1025460  84.5112240 100.9398530
  54.6656450  84.6913040 101.7722680  55.6703140  85.2686860 100.7980250
  71.9789090  81.7547060  90.5645550  71.1482050  81.8223710  91.0352780
  72.1560920  82.6451180  90.2612410  71.4345550  78.4994540  93.0679750
  72.1964460  79.0691190  93.1739440  71.4499920  77.9321740  93.8388060
  54.9349890  77.0232470  97.2987410  54.2798730  76.7544110  96.6547110
  55.7727840  76.9136950  96.8489390  72.4405520  79.3544640  97.9121680
  72.8114350  78.5711960  97.5057650  73.0807450  80.0433740  97.7338980
  71.4864720  78.7928910  90.2252270  71.7613560  79.7007790  90.0971490
  71.2975460  78.7291440  91.1614260  67.8840330  71.8173760  91.5205900
  68.3025210  71.6304740  90.6802560  67.5776390  70.9652810  91.8308830
  71.3830060  76.7297900  95.2181700  71.0073660  75.9625830  94.7862990
  70.6533180  77.1120600  95.7056630  55.9725820  77.4085040 101.8390750
  56.3398860  77.3212440 102.7186770  55.4036640  76.6451590 101.7397610
  54.1487970  74.2331400  93.2412740  53.2452050  74.4961600  93.0664400
  54.6328590  74.5042570  92.4612700  70.6581020  74.9555390  98.5188940
  71.1818500  74.4618040  97.8879110  71.2440440  75.0905750  99.2636510
  70.8370740  75.0395260 102.0408490  69.8873450  75.0058800 102.1553480
  71.0183750  75.9495370 101.8058260  56.6915180  73.2896940  91.1507120
  57.4006880  72.8680160  90.6654400  55.9755120  73.3572170  90.5190470
  56.3389340  69.3436270  90.1909770  57.0617470  69.8845210  90.5090990
  56.6113860  69.0699690  89.3151310  70.1480990  74.2128740  94.4581350
  70.6440110  73.9799610  95.2430230  69.9497060  73.3740580  94.0418990
  56.0281530  68.5942460 100.0932390  56.6757720  68.0439840  99.6527550
  56.4483370  68.8485610 100.9148200  71.5768150  72.8489690  96.9919030
  71.4667430  72.6945730  97.9301300  72.3375740  72.3210630  96.7494440
  72.4658420  70.6797610  90.2325170  73.3907730  70.5478790  90.0243460
  72.4434210  70.7590430  91.1861620  72.5396910  71.4508270  92.8581880
  71.7448410  71.3853390  93.3874790  72.7440190  72.3858910  92.8467230
  69.4815330  85.4899820  96.8520270  70.0774400  85.1684390  96.1754690
  69.7393480  85.0171640  97.6433540  61.0883930  83.4777320 102.6020620
  60.8475290  83.7451880 101.7151140  62.0286570  83.6483050 102.6571480
  70.0327540  86.1395120 100.6818000  69.5730510  86.8910930 100.3076020
  69.4040000  85.4201590 100.6232800  60.4623260  84.4483360  99.8566130
  60.9788280  83.8370720  99.3314390  61.1120640  84.9512140 100.3477140
  63.2018760  85.3391850 100.6835110  63.4896570  85.0846150  99.8068120
  63.7141980  84.7869210 101.2740680  64.4195770  69.0782050 101.2631620
  63.6367560  69.5527550 101.5428380  64.1258700  68.1736880 101.1544800
  68.9716840  69.7805150  99.3080710  69.4124930  69.7250250  98.4602310
  68.7024430  70.6963160  99.3790890  70.8355410  69.4120390  97.3189530
  70.7743810  68.4681610  97.1720550  71.6147440  69.5200480  97.8642990
  55.1408160  85.5512750  96.2813480  54.9730200  84.9183430  96.9795370
  54.2742670  85.7572150  95.9307670  55.7636180  69.3829530  93.7845340
  56.5215540  69.4958410  93.2109370  55.3013350  70.2198730  93.7388770
  62.3049990  71.4968800  96.7747650  61.4924500  71.1225690  96.4343530
  62.8091630  70.7413880  97.0768840  66.8074970  68.1611250  98.0130720
  67.4104340  68.7331460  98.4879240  66.0667960  68.7250690  97.7904620
  69.9509570  68.5632810  93.2871000  70.1460200  69.4616260  93.5538430
  69.1639440  68.3319890  93.7803950  56.7470860  84.2445980  93.7263620
  56.2218480  84.6254010  93.0225580  56.6715440  84.8696750  94.4473330
  58.1361330  69.9093580  92.3247310  58.6654090  69.1223380  92.1955260
  58.7689650  70.5884770  92.5582840  60.3299170  69.6468720  95.3792700
  59.7001910  68.9456030  95.5462830  59.7904310  70.4072850  95.1625860
  71.5036180  85.8033520  95.0477560  71.6788370  85.1171260  94.4038480
  70.8057750  86.3280570  94.6554230  59.3463830  86.1928360  92.6012870
  60.0782650  85.9087640  92.0536760  59.6057500  85.9541640  93.4912250
  58.5078620  82.3093090  92.6059200  57.8787500  82.7778190  93.1545030
  58.6226450  81.4642310  93.0405390  65.9628340  76.3598750  78.7560400
  65.8822390  75.4453360  78.4852110  65.5492760  76.8565820  78.0500110
  64.0946380  78.1377770  80.6369670  63.3188480  77.6578210  80.9268240
  64.7459310  77.4583420  80.4625830  58.1112210  78.4497580  81.5145430
  57.2797090  78.1946290  81.9141940  58.7193190  78.5208350  82.2503350
  68.1153810  82.5437960  79.4168800  67.6535340  81.7725200  79.7455970
  68.9279360  82.5704030  79.9221250  58.0913470  82.4837670  81.7103450
  58.3941510  81.5935410  81.5313670  58.8357060  83.0407890  81.4825700
  56.5204160  73.4099470  75.2987820  55.6320860  73.7515440  75.1967700
  56.8045350  73.2099790  74.4068650  54.4837170  76.0105120  81.1827520
  55.0553280  75.2427320  81.1831160  54.4838710  76.3093880  80.2734130
  64.3417120  84.8295970  79.0372790  63.7228560  85.2853470  78.4667230
  65.1968900  84.9847430  78.6362490  63.5355370  80.8134960  80.6439830
  63.4663650  79.8724900  80.4828960  64.2975230  80.9036370  81.2162400
  64.5660540  73.6205340  80.8708760  64.9425360  72.7477220  80.7582430
  64.4680050  73.9564040  79.9799200  58.6965550  71.9930970  76.3326200
  58.8032300  72.8934700  76.6394960  57.7857910  71.9448940  76.0420850
  68.3484660  71.1155780  77.8037100  69.1694280  70.6252350  77.8462580
  68.3818740  71.7053440  78.5568940  56.3448710  73.9149980  81.5778790
  57.0258820  74.1788350  82.1966190  56.0296760  73.0750850  81.9116800
  60.5373280  74.9617340  80.6651380  61.0451500  75.4598310  81.3056400
  61.0686520  74.1852540  80.4890740  72.6384210  73.1322530  84.3680730
  71.9336380  73.5204240  83.8495840  72.9042130  73.8272820  84.9701660
  58.8209380  69.6015900  84.9314800  58.8227820  70.1188290  84.1260700
  57.9913690  69.1246080  84.9084730  65.2080470  79.7135210  76.4304700
  64.5897740  80.1784660  75.8667420  65.7203720  80.4062690  76.8474210
  60.0712230  79.2411080  83.1088300  59.7381610  79.8680000  83.7509370
  60.2478910  79.7672960  82.3289970  68.5846140  73.0556160  80.5764640
  67.8801710  73.3441050  81.1567750  68.9458300  73.8656270  80.2164200
  59.2831330  81.2091880  84.9237480  59.9005330  81.8842960  84.6421930
  58.4224450  81.6179860  84.8324980  54.5763670  80.3991740  73.8044330
  54.1991650  80.8878840  73.0729230  54.8336740  81.0717020  74.4350860
  70.2008920  82.6731290  82.8392120  69.5172440  83.3430400  82.8308790
  70.7403210  82.8711940  82.0736980  71.6533060  72.5010950  80.9673850
  70.7057970  72.5349930  81.0989280  71.9783050  73.3149900  81.3523210
  62.1852600  68.8008130  79.2629840  62.4927580  68.2455020  78.5465340
  61.2553300  68.9352590  79.0802830  67.7367660  84.5175420  81.5537300
  67.7494820  84.1137710  80.6859560  67.1842880  85.2922710  81.4498730
  69.0313080  81.2391640  76.6427470  68.9209410  80.2965970  76.7676890
  69.0281330  81.6007280  77.5290230  67.1353100  79.4205260  82.8819910
  67.5521890  79.2065370  82.0473370  67.8592920  79.6778050  83.4528530
  64.5733360  76.8656960  75.9989960  63.6462640  76.7994340  76.2278430
  64.7258180  77.8037090  75.8845200  71.0815200  77.8192480  82.9736150
  70.2533830  77.8885570  82.4986280  71.6765680  78.4046790  82.5051980
  68.6030650  78.4277260  76.5025210  67.9843070  78.0896810  75.8551510
  68.5855100  77.7837020  77.2104400  68.0457210  74.6061800  83.9191020
  67.6328390  75.4315510  84.1731010  67.3133160  74.0206840  83.7267380
  60.1790000  77.3921700  78.7809690  59.7747000  76.6798950  78.2855590
  60.2653120  77.0474940  79.6697730  60.6471700  81.0789260  80.9448900
  60.3499990  80.4734730  80.2656680  61.5971520  81.1166570  80.8338260
  58.8918620  74.1664910  82.5608730  59.4433210  74.2760250  81.7861980
  59.4062130  74.5402510  83.2763960  68.7357310  84.6521130  84.6072000
  68.2587870  85.4593320  84.4144610  68.0519100  83.9999460  84.7598210
  59.7390130  80.8170950  87.5956700  58.8418660  81.0410920  87.8430100
  59.7643000  80.9405890  86.6468100  66.7795350  77.6664070  73.5097960
  67.2188630  76.8286500  73.3635780  67.4923770  78.2993470  73.5962100
  58.5661350  77.6884270  86.1714070  58.4269120  78.5607070  86.5401470
  57.6842710  77.3457080  86.0262010  64.8890730  82.6060140  77.4779200
  65.3286640  83.3484470  77.0634590  64.8277620  82.8486710  78.4018160
  60.3641700  83.6305970  88.3799220  60.3357130  84.0348920  87.5127650
  60.2006670  82.7016330  88.2170820  70.3612490  68.9206880  71.8239000
  70.0485150  69.0133710  72.7238070  71.1224960  69.4987910  71.7736430
  56.8794630  76.2866680  76.2816340  56.7592230  77.0128770  75.6697610
  56.5695520  75.5169590  75.8044250  72.3156520  84.4133070  89.6763390
  72.7916240  84.8915960  90.3552470  72.9363680  84.3450560  88.9508890
  54.5180000  79.4581820  82.0884980  54.5960420  79.5930590  81.1440700
  55.1321680  78.7497710  82.2813100  55.7627630  81.1582010  78.4991160
  55.3555710  81.2996600  77.6444760  56.6540640  80.8742170  78.2962370
  71.7189770  81.6045920  86.8363400  71.8452830  81.3657800  85.9180580
  71.7611150  80.7730460  87.3085480  65.5806510  85.3073920  85.4058210
  66.0951180  85.2181930  86.2080640  64.7375590  85.6533620  85.6986120
  67.5560910  85.5929260  74.8342210  67.3962050  85.3032200  75.7324040
  67.3907620  84.8169390  74.2987440  60.0349290  85.3727790  76.6113830
  59.8591770  84.4563330  76.3981630  59.1805030  85.7315080  76.8511630
  67.2587040  83.1016820  73.3940210  66.5652200  83.0994110  72.7342490
  68.0009900  82.6776140  72.9634380  66.8236970  84.7279530  77.4688700
  67.2793920  83.9468910  77.7827320  67.1629490  85.4386350  78.0129880
  71.5713780  73.6578380  87.8013140  70.9558050  74.1658050  87.2728600
  71.2510200  72.7576710  87.7439080  54.5739520  80.4995990  84.6279440
  54.7370560  80.0301350  83.8098810  55.0391970  79.9919550  85.2928280
  63.6328100  72.4970270  85.2675330  63.1707470  72.7053290  86.0795270
  63.2306210  71.6829620  84.9646000  68.6332610  73.7179220  86.3971990
  67.7826200  73.4184970  86.7181060  68.4734400  73.9621230  85.4855810
  65.7282320  75.2180970  88.4970780  66.0535730  74.3844720  88.1573010
  66.5162650  75.7409490  88.6449110  62.4617110  69.2512450  74.5445840
  61.8371290  69.2472320  75.2699150  62.3747230  68.3843410  74.1481810
  61.3834190  70.1749080  81.5229610  61.6806520  71.0811910  81.4421630
  61.9319750  69.6867860  80.9089180  59.1372510  74.7535320  77.3921260
  58.9113430  74.5372490  78.2967880  58.3565040  75.1863780  77.0467230
  66.3670270  74.7598690  75.9911910  65.7679160  75.4834490  75.8075530
  66.9149880  74.6975470  75.2088360  61.5771720  75.6520900  88.0581530
  61.4815320  74.7115630  87.9081930  62.4203700  75.8735970  87.6629600
  64.9735140  73.3962230  78.0215190  65.3664710  73.7134430  77.2083880
  65.3351990  72.5174110  78.1359710  56.7082260  72.0634570  86.2115310
  56.3145650  72.9109780  86.4188090  56.0200660  71.4260940  86.4023950
  63.2827310  72.1469540  89.2812050  62.5925630  71.9541740  89.9158140
  64.0259610  72.4304180  89.8136350  54.1969540  73.9283150  71.4548110
  54.1144210  74.8713910  71.5963100  53.8452600  73.7858060  70.5760460
  65.5590280  75.9867980  82.1165970  64.8271400  76.4954790  82.4656070
  65.1614620  75.1697960  81.8154750  61.9967670  72.6622180  80.5218460
  62.0003730  72.2212130  79.6723000  62.8918790  72.9839510  80.6290280
  57.8470050  72.5448670  79.4812670  57.5070100  73.0223900  80.2379720
  57.0847370  72.0913790  79.1213770  66.0216190  71.4401660  81.5288910
  66.0388930  71.8910310  82.3730760  65.7731770  70.5407300  81.7422350
  61.0709320  75.9735400  72.9108520  60.5026220  75.5253650  72.2844430
  61.7798320  76.3328180  72.3773670  69.4486940  68.8533840  87.3675290
  69.7732710  68.1223500  87.8933270  69.4843450  68.5347480  86.4656280
  56.1478500  79.8747420  86.7875250  55.7633290  79.2341090  87.3858210
  56.4590690  80.5783540  87.3569980  62.2975640  76.7223960  82.2683870
  62.6645770  76.2482530  83.0145210  62.1080700  77.5965530  82.6092210
  55.1616130  71.4667650  78.3977340  54.8763050  71.1023320  79.2355960
  55.0994990  70.7348110  77.7840480  60.0875010  75.7632600  84.5868080
  59.7832080  76.6424580  84.8118440  61.0421470  75.8232390  84.6225520
  58.6156800  79.9693590  75.1834930  57.8419060  79.4291210  75.0233650
  59.3451430  79.4500200  74.8452690  69.3744780  78.9658950  80.9761320
  70.0943900  79.4614240  80.5857430  69.1726600  78.2876840  80.3315190
  64.8354720  70.3596910  75.1190710  64.0219330  69.8610080  75.0436020
  64.6416670  71.1995160  74.7027060  64.7563580  79.0368010  86.8630320
  64.6900890  78.1163680  86.6087910  64.1268720  79.1343450  87.5774960
  67.5503110  74.7316560  73.4152870  68.4382730  75.0433790  73.2404210
  67.5208200  73.8588810  73.0233450  58.6594200  79.6373970  78.8213740
  59.1772870  78.8342230  78.7670630  58.2078220  79.5753110  79.6630570
  63.5463700  80.9040250  74.0941040  63.8879400  81.6482480  73.5984360
  62.7176410  81.2171370  74.4565870  56.1438740  76.6035340  85.7339440
  55.7853680  77.2689190  86.3212780  55.8493300  75.7718890  86.1052060
  59.3451860  77.0619580  88.6178990  59.0452000  77.2076760  87.7206810
  60.1163100  76.5024870  88.5252380  64.6880310  81.8588580  86.6134120
  64.7024850  80.9269540  86.3953030  63.9805410  81.9448340  87.2523890
  69.8217380  76.0428400  72.8832730  69.7381100  76.4742620  72.0329170
  70.5411570  76.5026750  73.3159550  70.8991520  78.4995920  85.9602700
  70.1739710  79.0924700  85.7632090  71.4266980  78.4919460  85.1616070
  70.8504630  82.8970660  75.6114860  70.2080790  82.2426280  75.8858580
  70.4635290  83.3025750  74.8355530  66.4291110  80.2256090  79.4586550
  66.7814930  79.6284220  78.7987920  65.5453440  79.9000320  79.6294800
  62.5154390  80.9853780  76.8656960  63.2025520  81.5322990  77.2464550
  61.7286810  81.5294510  76.9006570  54.6546790  76.6026600  72.3574040
  55.5241640  76.8851400  72.6409960  54.1637110  77.4162470  72.2422850
  61.8181600  77.9899810  76.4782320  62.2744380  78.8005060  76.7042510
  61.4669810  77.6722950  77.3100810  64.1214210  83.5006150  83.7074620
  64.7656430  83.7065530  84.3848040  64.4843650  82.7394550  83.2545470
  57.7193380  68.3337460  76.9504840  57.5908010  68.3255360  77.8989760
  56.8955400  68.6720550  76.5995850  65.3946290  81.5038500  82.4252070
  66.0368520  80.8031660  82.5384240  65.9195640  82.2836940  82.2448960
  69.2402010  81.7887120  72.1491210  69.0139590  81.0717560  72.7415850
  68.8498210  81.5399560  71.3112960  67.1683910  82.3033400  85.6288130
  67.5040150  82.8900090  86.3066050  66.2484250  82.1726110  85.8585920
  55.0218040  85.8153980  72.9235670  55.3815680  86.4143320  72.2692940
  54.8810380  86.3613870  73.6970700  54.7187310  70.0928580  86.4111540
  54.0045830  70.2925500  87.0164150  55.1382350  69.3168150  86.7826340
  68.8218260  79.7059060  73.8105370  68.5339960  80.1671750  74.5983250
  69.6170430  79.2456830  74.0789590  55.0059900  84.0808840  87.3978070
  55.1151020  83.1403580  87.2573460  54.3540460  84.3463590  86.7491800
  62.9972490  82.3524730  88.7976190  62.6769360  81.6333970  89.3421880
  62.3230850  83.0279800  88.8712250  61.0386660  83.1985180  73.7409340
  61.0296760  83.9314870  73.1253850  60.1185020  82.9516760  73.8336300
  56.6393300  78.4200070  74.4856100  56.0321250  79.1598970  74.4951400
  57.1142650  78.5099430  73.6594300  66.2126090  72.5850890  84.1612990
  66.5806910  71.7646100  84.4892560  65.3524290  72.6452780  84.5768640
  69.5788120  71.5407830  74.9700550  68.9501280  71.6453500  74.2558780
  69.0840040  71.7604610  75.7594430  64.0246260  83.2613420  72.4034530
  64.1258240  83.0577410  71.4736510  63.1248000  83.0071700  72.6082310
  61.5472150  73.8193780  76.3858430  60.8388300  74.2880120  76.8272040
  61.8316630  73.1615790  77.0203620  63.1728080  75.2390480  84.3850960
  63.6713330  75.7136300  85.0502810  63.3151030  74.3154000  84.5920990
  65.5787580  70.5444440  77.8254220  65.4555360  70.5630570  76.8763730
  66.5272140  70.5923380  77.9452620  62.6664370  85.7799740  77.0982200
  62.9205870  85.7421130  76.1761570  61.7176850  85.6533070  77.0910450
  59.7507170  72.1278860  73.7609140  60.5997700  72.5649010  73.6949330
  59.3838440  72.4399120  74.5881200  70.3794940  71.4558440  85.2279350
  69.8768540  72.1963840  85.5673160  71.1951600  71.8442440  84.9116140
  68.6716950  76.6991620  78.6740710  67.7307090  76.7141850  78.8488400
  68.9861020  75.9127580  79.1201010  58.6498590  78.3811220  72.2344670
  59.4161860  78.2692580  72.7970100  58.7273280  77.6849190  71.5821440
  57.3445350  75.8136290  72.9177560  57.4248940  74.8663800  73.0294960
  58.2365100  76.1443170  73.0238220  70.6742530  83.8700470  80.3494970
  70.7989950  84.6931640  80.8218780  71.5408090  83.6591200  80.0019120
  58.1460060  85.9631680  80.0212100  58.8822540  85.4147140  80.2920670
  58.5300980  86.8287690  79.8818090  55.0305540  82.0305250  75.8953610
  54.1045320  82.2726390  75.8859020  55.4961970  82.8579510  75.7738360
  57.1518340  85.1477750  89.2097680  57.9531070  85.4689800  89.6233080
  56.6370160  84.7873330  89.9317590  61.2562370  85.1361990  71.8437670
  62.0490980  85.4250820  71.3919460  60.7366720  84.7054160  71.1650150
  65.9882970  81.2557620  89.1573090  65.3821130  81.2789220  88.4168840
  65.6837080  80.5240660  89.6940340  67.4183340  84.9837910  87.7682500
  68.3705090  84.8995930  87.7182740  67.2711560  85.6479620  88.4416290
  70.3092540  84.3632120  73.2674410  70.0234050  83.9497260  72.4528590
  70.1112090  85.2919830  73.1474930  54.8716150  77.6351210  88.1533730
  55.3755170  77.0558490  88.7249960  54.1323570  77.9191440  88.6910100
  61.7739770  80.3565400  71.7080020  61.6690410  79.7417750  72.4341400
  61.6063990  79.8331290  70.9243030  61.9254090  79.0422200  87.6869250
  61.1599760  79.6107200  87.6023920  62.1070050  78.7498410  86.7937480
  65.0142500  79.4185430  72.3122010  64.4652600  79.8654730  72.9564750
  65.6361760  78.9134680  72.8359680  69.0677440  80.7727530  88.2444270
  69.8086910  81.1103290  87.7411730  68.3050120  80.9419590  87.6914040
  56.9039230  75.7780800  89.0483800  56.9444570  75.4794670  89.9569030
  57.7584730  76.1788410  88.8891320  60.6817620  78.3776350  74.2087310
  61.1034040  78.2116220  75.0518700  60.8068460  77.5676580  73.7142450
  58.8445040  74.3572900  87.0158290  58.3141500  73.8663850  86.3881630
  59.5133110  74.7857100  86.4816220  63.1945260  77.4013960  71.4564410
  63.7150920  76.6862980  71.0905560  63.8413660  78.0399830  71.7564920
  67.7423100  78.8242360  86.7799480  68.1564120  78.9787440  87.6289900
  66.8074100  78.9497580  86.9425260  68.2145270  76.1638520  88.7838630
  68.7966040  75.4090840  88.6959110  68.3907040  76.6945960  88.0070110
  59.3317340  71.3235270  87.0955580  59.2374210  70.7056020  86.3706450
  58.7514730  72.0501560  86.8685490  62.0978780  69.8808510  84.1282970
  61.6496080  69.9032770  83.2828520  61.4643980  69.4827530  84.7253270
  62.5038330  78.7762840  84.7495410  62.9226440  79.6195570  84.5771650
  61.5846960  78.9134880  84.5202190  64.8402230  76.5079020  86.1333250
  64.9598440  75.9120160  86.8728090  65.6996230  76.5448710  85.7134550
  67.1790130  77.0616210  84.7095760  66.6525350  77.5858830  84.1060900
  67.5221470  77.6943600  85.3405490  59.5776520  74.4509580  71.1545470
  59.3765580  73.5876940  71.5158810  59.4068570  74.3642940  70.2167070
  60.3545750  85.0815850  85.8653140  59.8166840  85.8061910  85.5461840
  60.6079710  84.6046190  85.0750480  61.6071000  73.0500370  87.3909070
  62.1970690  72.7416220  88.0786890  60.7891240  72.5780120  87.5468970
  66.4264430  72.6666180  87.6242090  65.7379950  72.0047720  87.5592080
  67.1470450  72.2204450  88.0690550  67.0564830  69.2617810  73.6832350
  67.3367120  68.4185710  74.0391770  66.2830560  69.4940920  74.1971100
  58.3759320  71.5510200  71.1423350  58.6785220  71.5577630  70.2342500
  59.1153910  71.2008060  71.6391010  63.2107960  86.3167060  86.1239790
  63.1366660  87.2202200  86.4312160  62.3086800  85.9978960  86.0961860
  63.7593290  85.4825570  73.7466150  64.6544080  85.8210540  73.7684910
  63.7910920  84.7604980  73.1190430  57.3989450  80.8552620  71.9753150
  57.8364320  81.3982290  72.6310730  57.8837180  80.0299570  71.9849490
  54.6135250  83.6441650  79.4273410  54.9438260  82.7762710  79.1952050
  55.0426250  83.8500170  80.2578370  59.2097170  81.9750660  77.0875380
  58.9092710  81.8515630  77.9879290  59.1034660  81.1159250  76.6791110
  55.1025460  84.5112240  82.1655040  54.6656450  84.6913040  82.9979190
  55.6703140  85.2686860  82.0236760  70.7387640  84.0129240  86.4532350
  70.1389630  84.0721800  85.7096270  70.8681540  83.0734220  86.5829200
  71.9789090  81.7547060  71.7902060  71.1482050  81.8223710  72.2609290
  72.1560920  82.6451180  71.4868920  71.4345550  78.4994540  74.2936260
  72.1964460  79.0691190  74.3995950  71.4499920  77.9321740  75.0644570
  54.9349890  77.0232470  78.5243920  54.2798730  76.7544110  77.8803620
  55.7727840  76.9136950  78.0745900  72.4405520  79.3544640  79.1378190
  72.8114350  78.5711960  78.7314160  73.0807450  80.0433740  78.9595490
  69.4239280  80.7381220  84.5508510  68.6099120  81.1678380  84.8134300
  69.8313480  81.3499630  83.9377560  71.4864720  78.7928910  71.4508780
  71.7613560  79.7007790  71.3228000  71.2975460  78.7291440  72.3870770
  67.8840330  71.8173760  72.7462410  68.3025210  71.6304740  71.9059070
  67.5776390  70.9652810  73.0565340  71.3830060  76.7297900  76.4438210
  71.0073660  75.9625830  76.0119500  70.6533180  77.1120600  76.9313140
  55.9725820  77.4085040  83.0647260  56.3398860  77.3212440  83.9443280
  55.4036640  76.6451590  82.9654120  70.7729680  75.8769420  86.0777730
  70.5415770  75.6482170  85.1775680  71.0334230  76.7968970  86.0322620
  55.5241820  74.3194130  86.9705680  54.6297870  74.2860890  87.3099390
  56.0639370  74.5180920  87.7356930  69.2117750  71.1025850  88.8557430
  70.0887930  71.1109250  89.2391430  69.2238590  70.3656690  88.2449780
  54.1487970  74.2331400  74.4669250  53.2452050  74.4961600  74.2920910
  54.6328590  74.5042570  73.6869210  70.6581020  74.9555390  79.7445450
  71.1818500  74.4618040  79.1135620  71.2440440  75.0905750  80.4893020
  70.8370740  75.0395260  83.2665000  69.8873450  75.0058800  83.3809990
  71.0183750  75.9495370  83.0314770  56.6915180  73.2896940  72.3763630
  57.4006880  72.8680160  71.8910910  55.9755120  73.3572170  71.7446980
  56.3389340  69.3436270  71.4166280  57.0617470  69.8845210  71.7347500
  56.6113860  69.0699690  70.5407820  70.1480990  74.2128740  75.6837860
  70.6440110  73.9799610  76.4686740  69.9497060  73.3740580  75.2675500
  71.5768150  72.8489690  78.2175540  71.4667430  72.6945730  79.1557810
  72.3375740  72.3210630  77.9750950  69.9233870  68.7883820  84.6758540
  70.5606090  69.4017960  85.0417730  70.0708760  68.8244480  83.7307770
  72.4658420  70.6797610  71.4581680  73.3907730  70.5478790  71.2499970
  72.4434210  70.7590430  72.4118130  72.5396910  71.4508270  74.0838390
  71.7448410  71.3853390  74.6131300  72.7440190  72.3858910  74.0723740
  69.4815330  85.4899820  78.0776780  70.0774400  85.1684390  77.4011200
  69.7393480  85.0171640  78.8690050  57.3877900  81.9217730  88.2267410
  57.3447530  81.5510640  89.1081870  57.5188910  82.8595300  88.3669230
  61.0883930  83.4777320  83.8277130  60.8475290  83.7451880  82.9407650
  62.0286570  83.6483050  83.8827990  63.2938350  69.9410010  87.5833640
  63.2327240  70.5331840  88.3329050  64.2338730  69.8335970  87.4383900
  65.9312910  69.5980070  87.2225930  66.5453320  69.9159360  86.5607010
  66.4762470  69.1128660  87.8421790  72.3488090  85.4971700  84.6287770
  71.8546370  85.8940570  83.9114900  71.7401380  84.8720910  85.0225050
  56.4534170  68.2774330  87.3364990  57.0017160  68.0962380  86.5731100
  56.5189480  67.4868440  87.8721300  57.2265930  84.8679980  85.3465190
  56.6326250  84.7364680  86.0855230  57.2189770  84.0318120  84.8807290
  66.6720950  68.1612210  83.5495220  65.7980790  68.4947320  83.3468150
  66.5631700  67.6885390  84.3747090  67.5792930  70.3683080  84.9336940
  67.2506290  69.5534840  84.5538670  68.5275230  70.3252890  84.8102630
  70.0327540  86.1395120  81.9074510  69.5730510  86.8910930  81.5332530
  69.4040000  85.4201590  81.8489310  56.8578160  82.2338360  84.2973230
  56.1312220  81.6143650  84.2299180  56.9187310  82.6278970  83.4271310
  60.4623260  84.4483360  81.0822640  60.9788280  83.8370720  80.5570900
  61.1120640  84.9512140  81.5733650  63.2018760  85.3391850  81.9091620
  63.4896570  85.0846150  81.0324630  63.7141980  84.7869210  82.4997190
  64.4195770  69.0782050  82.4888130  63.6367560  69.5527550  82.7684890
  64.1258700  68.1736880  82.3801310  68.9716840  69.7805150  80.5337220
  69.4124930  69.7250250  79.6858820  68.7024430  70.6963160  80.6047400
  70.8355410  69.4120390  78.5446040  70.7743810  68.4681610  78.3977060
  71.6147440  69.5200480  79.0899500  55.1408160  85.5512750  77.5069990
  54.9730200  84.9183430  78.2051880  54.2742670  85.7572150  77.1564180
  55.7636180  69.3829530  75.0101850  56.5215540  69.4958410  74.4365880
  55.3013350  70.2198730  74.9645280  62.3049990  71.4968800  78.0004160
  61.4924500  71.1225690  77.6600040  62.8091630  70.7413880  78.3025350
  66.8074970  68.1611250  79.2387230  67.4104340  68.7331460  79.7135750
  66.0667960  68.7250690  79.0161130  69.9509570  68.5632810  74.5127510
  70.1460200  69.4616260  74.7794940  69.1639440  68.3319890  75.0060460
  56.7470860  84.2445980  74.9520130  56.2218480  84.6254010  74.2482090
  56.6715440  84.8696750  75.6729840  58.1361330  69.9093580  73.5503820
  58.6654090  69.1223380  73.4211770  58.7689650  70.5884770  73.7839350
  60.3299170  69.6468720  76.6049210  59.7001910  68.9456030  76.7719340
  59.7904310  70.4072850  76.3882370  63.2691120  86.2607950  89.2759820
  64.1958430  86.0252220  89.3195780  63.2541550  87.0879950  88.7945850
  71.5036180  85.8033520  76.2734070  71.6788370  85.1171260  75.6294990
  70.8057750  86.3280570  75.8810740  60.4554730  68.9252700  89.0401700
  60.1739000  69.4286300  88.2762520  60.8374430  68.1274450  88.6743830
  59.3463830  86.1928360  73.8269380  60.0782650  85.9087640  73.2793270
  59.6057500  85.9541640  74.7168760  58.5078620  82.3093090  73.8315710
  57.8787500  82.7778190  74.3801540  58.6226450  81.4642310  74.2661900
  67.0570190  68.3406280  89.6182170  66.9435640  68.6600890  90.5133690
  67.8739930  68.7418790  89.3219450  69.8368680  85.4877810  89.1000860
  70.6294000  84.9927040  88.8926820  70.1301830  86.1667950  89.7076470
  54.4837170  76.0105120  62.4084030  55.0553280  75.2427320  62.4087670
  54.4838710  76.3093880  61.4990640  56.3448710  73.9149980  62.8035300
  57.0258820  74.1788350  63.4222700  56.0296760  73.0750850  63.1373310
  72.6384210  73.1322530  65.5937240  71.9336380  73.5204240  65.0752350
  72.9042130  73.8272820  66.1958170  58.8209380  69.6015900  66.1571310
  58.8227820  70.1188290  65.3517210  57.9913690  69.1246080  66.1341240
  68.5846140  73.0556160  61.8021150  67.8801710  73.3441050  62.3824260
  68.9458300  73.8656270  61.4420710  58.5024710  71.3125860  64.1641760
  58.8441520  72.1567910  63.8695630  57.5640520  71.4609600  64.2807100
  54.5763670  80.3991740  55.0300840  54.1991650  80.8878840  54.2985740
  54.8336740  81.0717020  55.6607370  71.6533060  72.5010950  62.1930360
  70.7057970  72.5349930  62.3245790  71.9783050  73.3149900  62.5779720
  64.5602440  73.1373960  54.2213630  63.6206110  73.2987920  54.3066090
  64.8785700  73.8559640  53.6749620  68.6030650  78.4277260  57.7281720
  67.9843070  78.0896810  57.0808020  68.5855100  77.7837020  58.4360910
  59.7390130  80.8170950  68.8213210  58.8418660  81.0410920  69.0686610
  59.7643000  80.9405890  67.8724610  66.7795350  77.6664070  54.7354470
  67.2188630  76.8286500  54.5892290  67.4923770  78.2993470  54.8218610
  60.3641700  83.6305970  69.6055730  60.3357130  84.0348920  68.7384160
  60.2006670  82.7016330  69.4427330  70.3612490  68.9206880  53.0495510
  70.0485150  69.0133710  53.9494580  71.1224960  69.4987910  52.9992940
  72.3156520  84.4133070  70.9019900  72.7916240  84.8915960  71.5808980
  72.9363680  84.3450560  70.1765400  55.7627630  81.1582010  59.7247670
  55.3555710  81.2996600  58.8701270  56.6540640  80.8742170  59.5218880
  71.7189770  81.6045920  68.0619910  71.8452830  81.3657800  67.1437090
  71.7611150  80.7730460  68.5341990  71.5713780  73.6578380  69.0269650
  70.9558050  74.1658050  68.4985110  71.2510200  72.7576710  68.9695590
  66.3670270  74.7598690  57.2168420  65.7679160  75.4834490  57.0332040
  66.9149880  74.6975470  56.4344870  56.7082260  72.0634570  67.4371820
  56.3145650  72.9109780  67.6444600  56.0200660  71.4260940  67.6280460
  54.1969540  73.9283150  52.6804620  54.1144210  74.8713910  52.8219610
  53.8452600  73.7858060  51.8016970  69.4486940  68.8533840  68.5931800
  69.7732710  68.1223500  69.1189780  69.4843450  68.5347480  67.6912790
  69.3744780  78.9658950  62.2017830  70.0943900  79.4614240  61.8113940
  69.1726600  78.2876840  61.5571700  67.5503110  74.7316560  54.6409380
  68.4382730  75.0433790  54.4660720  67.5208200  73.8588810  54.2489960
  64.6880310  81.8588580  67.8390630  64.7024850  80.9269540  67.6209540
  63.9805410  81.9448340  68.4780400  69.8217380  76.0428400  54.1089240
  69.7381100  76.4742620  53.2585680  70.5411570  76.5026750  54.5416060
  70.8504630  82.8970660  56.8371370  70.2080790  82.2426280  57.1115090
  70.4635290  83.3025750  56.0612040  54.6546790  76.6026600  53.5830550
  55.5241640  76.8851400  53.8666470  54.1637110  77.4162470  53.4679360
  69.2402010  81.7887120  53.3747720  69.0139590  81.0717560  53.9672360
  68.8498210  81.5399560  52.5369470  55.0218040  85.8153980  54.1492180
  55.3815680  86.4143320  53.4949450  54.8810380  86.3613870  54.9227210
  68.8218260  79.7059060  55.0361880  68.5339960  80.1671750  55.8239760
  69.6170430  79.2456830  55.3046100  55.0059900  84.0808840  68.6234580
  55.1151020  83.1403580  68.4829970  54.3540460  84.3463590  67.9748310
  62.9972490  82.3524730  70.0232700  62.6769360  81.6333970  70.5678390
  62.3230850  83.0279800  70.0968760  69.5788120  71.5407830  56.1957060
  68.9501280  71.6453500  55.4815290  69.0840040  71.7604610  56.9850940
  70.3794940  71.4558440  66.4535860  69.8768540  72.1963840  66.7929670
  71.1951600  71.8442440  66.1372650  68.6716950  76.6991620  59.8997220
  67.7307090  76.7141850  60.0744910  68.9861020  75.9127580  60.3457520
  58.6498590  78.3811220  53.4601180  59.4161860  78.2692580  54.0226610
  58.7273280  77.6849190  52.8077950  57.3445350  75.8136290  54.1434070
  57.4248940  74.8663800  54.2551470  58.2365100  76.1443170  54.2494730
  55.0305540  82.0305250  57.1210120  54.1045320  82.2726390  57.1115530
  55.4961970  82.8579510  56.9994870  57.1518340  85.1477750  70.4354190
  57.9531070  85.4689800  70.8489590  56.6370160  84.7873330  71.1574100
  65.9882970  81.2557620  70.3829600  65.3821130  81.2789220  69.6425350
  65.6837080  80.5240660  70.9196850  67.4183340  84.9837910  68.9939010
  68.3705090  84.8995930  68.9439250  67.2711560  85.6479620  69.6672800
  70.3092540  84.3632120  54.4930920  70.0234050  83.9497260  53.6785100
  70.1112090  85.2919830  54.3731440  61.7739770  80.3565400  52.9336530
  61.6690410  79.7417750  53.6597910  61.6063990  79.8331290  52.1499540
  61.9254090  79.0422200  68.9125760  61.1599760  79.6107200  68.8280430
  62.1070050  78.7498410  68.0193990  65.0142500  79.4185430  53.5378520
  64.4652600  79.8654730  54.1821260  65.6361760  78.9134680  54.0616190
  69.0677440  80.7727530  69.4700780  69.8086910  81.1103290  68.9668240
  68.3050120  80.9419590  68.9170550  56.9039230  75.7780800  70.2740310
  56.9444570  75.4794670  71.1825540  57.7584730  76.1788410  70.1147830
  58.8445040  74.3572900  68.2414800  58.3141500  73.8663850  67.6138140
  59.5133110  74.7857100  67.7072730  63.1945260  77.4013960  52.6820920
  63.7150920  76.6862980  52.3162070  63.8413660  78.0399830  52.9821430
  59.3317340  71.3235270  68.3212090  59.2374210  70.7056020  67.5962960
  58.7514730  72.0501560  68.0942000  62.0978780  69.8808510  65.3539480
  61.6496080  69.9032770  64.5085030  61.4643980  69.4827530  65.9509780
  59.5776520  74.4509580  52.3801980  59.3765580  73.5876940  52.7415320
  59.4068570  74.3642940  51.4423580  60.3545750  85.0815850  67.0909650
  59.8166840  85.8061910  66.7718350  60.6079710  84.6046190  66.3006990
  58.3759320  71.5510200  52.3679860  58.6785220  71.5577630  51.4599010
  59.1153910  71.2008060  52.8647520  57.3989450  80.8552620  53.2009660
  57.8364320  81.3982290  53.8567240  57.8837180  80.0299570  53.2106000
  54.6135250  83.6441650  60.6529920  54.9438260  82.7762710  60.4208560
  55.0426250  83.8500170  61.4834880  55.1025460  84.5112240  63.3911550
  54.6656450  84.6913040  64.2235700  55.6703140  85.2686860  63.2493270
  70.7387640  84.0129240  67.6788860  70.1389630  84.0721800  66.9352780
  70.8681540  83.0734220  67.8085710  71.9789090  81.7547060  53.0158570
  71.1482050  81.8223710  53.4865800  72.1560920  82.6451180  52.7125430
  71.4345550  78.4994540  55.5192770  72.1964460  79.0691190  55.6252460
  71.4499920  77.9321740  56.2901080  54.9349890  77.0232470  59.7500430
  54.2798730  76.7544110  59.1060130  55.7727840  76.9136950  59.3002410
  72.4405520  79.3544640  60.3634700  72.8114350  78.5711960  59.9570670
  73.0807450  80.0433740  60.1852000  69.4239280  80.7381220  65.7765020
  68.6099120  81.1678380  66.0390810  69.8313480  81.3499630  65.1634070
  71.4864720  78.7928910  52.6765290  71.7613560  79.7007790  52.5484510
  71.2975460  78.7291440  53.6127280  67.8840330  71.8173760  53.9718920
  68.3025210  71.6304740  53.1315580  67.5776390  70.9652810  54.2821850
  71.3830060  76.7297900  57.6694720  71.0073660  75.9625830  57.2376010
  70.6533180  77.1120600  58.1569650  55.5241820  74.3194130  68.1962190
  54.6297870  74.2860890  68.5355900  56.0639370  74.5180920  68.9613440
  69.2117750  71.1025850  70.0813940  70.0887930  71.1109250  70.4647940
  69.2238590  70.3656690  69.4706290  54.1487970  74.2331400  55.6925760
  53.2452050  74.4961600  55.5177420  54.6328590  74.5042570  54.9125720
  70.6581020  74.9555390  60.9701960  71.1818500  74.4618040  60.3392130
  71.2440440  75.0905750  61.7149530  56.6915180  73.2896940  53.6020140
  57.4006880  72.8680160  53.1167420  55.9755120  73.3572170  52.9703490
  70.1480990  74.2128740  56.9094370  70.6440110  73.9799610  57.6943250
  69.9497060  73.3740580  56.4932010  71.5768150  72.8489690  59.4432050
  71.4667430  72.6945730  60.3814320  72.3375740  72.3210630  59.2007460
  69.9233870  68.7883820  65.9015050  70.5606090  69.4017960  66.2674240
  70.0708760  68.8244480  64.9564280  72.4658420  70.6797610  52.6838190
  73.3907730  70.5478790  52.4756480  72.4434210  70.7590430  53.6374640
  72.5396910  71.4508270  55.3094900  71.7448410  71.3853390  55.8387810
  72.7440190  72.3858910  55.2980250  57.3877900  81.9217730  69.4523920
  57.3447530  81.5510640  70.3338380  57.5188910  82.8595300  69.5925740
  56.4534170  68.2774330  68.5621500  57.0017160  68.0962380  67.7987610
  56.5189480  67.4868440  69.0977810  57.2265930  84.8679980  66.5721700
  56.6326250  84.7364680  67.3111740  57.2189770  84.0318120  66.1063800
  67.5792930  70.3683080  66.1593450  67.2506290  69.5534840  65.7795180
  68.5275230  70.3252890  66.0359140  70.8355410  69.4120390  59.7702550
  70.7743810  68.4681610  59.6233570  71.6147440  69.5200480  60.3156010
  55.1408160  85.5512750  58.7326500  54.9730200  84.9183430  59.4308390
  54.2742670  85.7572150  58.3820690  69.9509570  68.5632810  55.7384020
  70.1460200  69.4616260  56.0051450  69.1639440  68.3319890  56.2316970
  56.7470860  84.2445980  56.1776640  56.2218480  84.6254010  55.4738600
  56.6715440  84.8696750  56.8986350  63.2691120  86.2607950  70.5016330
  64.1958430  86.0252220  70.5452290  63.2541550  87.0879950  70.0202360
  59.3463830  86.1928360  55.0525890  60.0782650  85.9087640  54.5049780
  59.6057500  85.9541640  55.9425270  58.5078620  82.3093090  55.0572220
  57.8787500  82.7778190  55.6058050  58.6226450  81.4642310  55.4918410
  67.0570190  68.3406280  70.8438680  66.9435640  68.6600890  71.7390200
  67.8739930  68.7418790  70.5475960  69.8368680  85.4877810  70.3257370
  70.6294000  84.9927040  70.1183330  70.1301830  86.1667950  70.9332980
  58.1112210  78.4497580  43.9658450  57.2797090  78.1946290  44.3654960
  58.7193190  78.5208350  44.7016370  68.1153810  82.5437960  41.8681820
  67.6535340  81.7725200  42.1968990  68.9279360  82.5704030  42.3734270
  58.0913470  82.4837670  44.1616470  58.3941510  81.5935410  43.9826690
  58.8357060  83.0407890  43.9338720  56.5204160  73.4099470  37.7500840
  55.6320860  73.7515440  37.6480720  56.8045350  73.2099790  36.8581670
  54.4837170  76.0105120  43.6340540  55.0553280  75.2427320  43.6344180
  54.4838710  76.3093880  42.7247150  64.3417120  84.8295970  41.4885810
  63.7228560  85.2853470  40.9180250  65.1968900  84.9847430  41.0875510
  63.5355370  80.8134960  43.0952850  63.4663650  79.8724900  42.9341980
  64.2975230  80.9036370  43.6675420  55.7262040  71.4189480  45.4209470
  55.5464880  70.5215230  45.7012230  55.3242120  71.9661350  46.0956420
  58.6965550  71.9930970  38.7839220  58.8032300  72.8934700  39.0907980
  57.7857910  71.9448940  38.4933870  68.3484660  71.1155780  40.2550120
  69.1694280  70.6252350  40.2975600  68.3818740  71.7053440  41.0081960
  56.3448710  73.9149980  44.0291810  57.0258820  74.1788350  44.6479210
  56.0296760  73.0750850  44.3629820  72.6384210  73.1322530  46.8193750
  71.9336380  73.5204240  46.3008860  72.9042130  73.8272820  47.4214680
  65.2080470  79.7135210  38.8817720  64.5897740  80.1784660  38.3180440
  65.7203720  80.4062690  39.2987230  60.0712230  79.2411080  45.5601320
  59.7381610  79.8680000  46.2022390  60.2478910  79.7672960  44.7802990
  59.2831330  81.2091880  47.3750500  59.9005330  81.8842960  47.0934950
  58.4224450  81.6179860  47.2838000  54.5763670  80.3991740  36.2557350
  54.1991650  80.8878840  35.5242250  54.8336740  81.0717020  36.8863880
  70.2008920  82.6731290  45.2905140  69.5172440  83.3430400  45.2821810
  70.7403210  82.8711940  44.5250000  71.6533060  72.5010950  43.4186870
  70.7057970  72.5349930  43.5502300  71.9783050  73.3149900  43.8036230
  62.1852600  68.8008130  41.7142860  62.4927580  68.2455020  40.9978360
  61.2553300  68.9352590  41.5315850  67.7367660  84.5175420  44.0050320
  67.7494820  84.1137710  43.1372580  67.1842880  85.2922710  43.9011750
  69.0313080  81.2391640  39.0940490  68.9209410  80.2965970  39.2189910
  69.0281330  81.6007280  39.9803250  64.5733360  76.8656960  38.4502980
  63.6462640  76.7994340  38.6791450  64.7258180  77.8037090  38.3358220
  64.5602440  73.1373960  35.4470140  63.6206110  73.2987920  35.5322600
  64.8785700  73.8559640  34.9006130  68.6030650  78.4277260  38.9538230
  67.9843070  78.0896810  38.3064530  68.5855100  77.7837020  39.6617420
  60.1790000  77.3921700  41.2322710  59.7747000  76.6798950  40.7368610
  60.2653120  77.0474940  42.1210750  60.6471700  81.0789260  43.3961920
  60.3499990  80.4734730  42.7169700  61.5971520  81.1166570  43.2851280
  58.8918620  74.1664910  45.0121750  59.4433210  74.2760250  44.2375000
  59.4062130  74.5402510  45.7276980  68.7357310  84.6521130  47.0585020
  68.2587870  85.4593320  46.8657630  68.0519100  83.9999460  47.2111230
  59.7390130  80.8170950  50.0469720  58.8418660  81.0410920  50.2943120
  59.7643000  80.9405890  49.0981120  66.7795350  77.6664070  35.9610980
  67.2188630  76.8286500  35.8148800  67.4923770  78.2993470  36.0475120
  58.5661350  77.6884270  48.6227090  58.4269120  78.5607070  48.9914490
  57.6842710  77.3457080  48.4775030  64.8890730  82.6060140  39.9292220
  65.3286640  83.3484470  39.5147610  64.8277620  82.8486710  40.8531180
  60.3641700  83.6305970  50.8312240  60.3357130  84.0348920  49.9640670
  60.2006670  82.7016330  50.6683840  70.3612490  68.9206880  34.2752020
  70.0485150  69.0133710  35.1751090  71.1224960  69.4987910  34.2249450
  56.8794630  76.2866680  38.7329360  56.7592230  77.0128770  38.1210630
  56.5695520  75.5169590  38.2557270  72.3156520  84.4133070  52.1276410
  72.7916240  84.8915960  52.8065490  72.9363680  84.3450560  51.4021910
  54.5180000  79.4581820  44.5398000  54.5960420  79.5930590  43.5953720
  55.1321680  78.7497710  44.7326120  55.7627630  81.1582010  40.9504180
  55.3555710  81.2996600  40.0957780  56.6540640  80.8742170  40.7475390
  71.7189770  81.6045920  49.2876420  71.8452830  81.3657800  48.3693600
  71.7611150  80.7730460  49.7598500  65.5806510  85.3073920  47.8571230
  66.0951180  85.2181930  48.6593660  64.7375590  85.6533620  48.1499140
  67.5560910  85.5929260  37.2855230  67.3962050  85.3032200  38.1837060
  67.3907620  84.8169390  36.7500460  60.0349290  85.3727790  39.0626850
  59.8591770  84.4563330  38.8494650  59.1805030  85.7315080  39.3024650
  67.2587040  83.1016820  35.8453230  66.5652200  83.0994110  35.1855510
  68.0009900  82.6776140  35.4147400  66.8236970  84.7279530  39.9201720
  67.2793920  83.9468910  40.2340340  67.1629490  85.4386350  40.4642900
  71.5713780  73.6578380  50.2526160  70.9558050  74.1658050  49.7241620
  71.2510200  72.7576710  50.1952100  54.5739520  80.4995990  47.0792460
  54.7370560  80.0301350  46.2611830  55.0391970  79.9919550  47.7441300
  59.3458290  69.6301750  42.1153030  58.9026440  70.4111290  41.7837550
  59.9043280  69.9531640  42.8223970  62.4617110  69.2512450  36.9958860
  61.8371290  69.2472320  37.7212170  62.3747230  68.3843410  36.5994830
  59.1372510  74.7535320  39.8434280  58.9113430  74.5372490  40.7480900
  58.3565040  75.1863780  39.4980250  66.3670270  74.7598690  38.4424930
  65.7679160  75.4834490  38.2588550  66.9149880  74.6975470  37.6601380
  64.9735140  73.3962230  40.4728210  65.3664710  73.7134430  39.6596900
  65.3351990  72.5174110  40.5872730  56.7082260  72.0634570  48.6628330
  56.3145650  72.9109780  48.8701110  56.0200660  71.4260940  48.8536970
  54.1969540  73.9283150  33.9061130  54.1144210  74.8713910  34.0476120
  53.8452600  73.7858060  33.0273480  57.8470050  72.5448670  41.9325690
  57.5070100  73.0223900  42.6892740  57.0847370  72.0913790  41.5726790
  62.0587820  73.6634260  35.9638240  62.1800640  73.6220740  36.9124060
  61.6736330  74.5258410  35.8084970  61.0709320  75.9735400  35.3621540
  60.5026220  75.5253650  34.7357450  61.7798320  76.3328180  34.8286690
  69.4486940  68.8533840  49.8188310  69.7732710  68.1223500  50.3446290
  69.4843450  68.5347480  48.9169300  56.1478500  79.8747420  49.2388270
  55.7633290  79.2341090  49.8371230  56.4590690  80.5783540  49.8083000
  55.1616130  71.4667650  40.8490360  54.8763050  71.1023320  41.6868980
  55.0994990  70.7348110  40.2353500  58.6156800  79.9693590  37.6347950
  57.8419060  79.4291210  37.4746670  59.3451430  79.4500200  37.2965710
  64.8354720  70.3596910  37.5703730  64.0219330  69.8610080  37.4949040
  64.6416670  71.1995160  37.1540080  67.5503110  74.7316560  35.8665890
  68.4382730  75.0433790  35.6917230  67.5208200  73.8588810  35.4746470
  58.6594200  79.6373970  41.2726760  59.1772870  78.8342230  41.2183650
  58.2078220  79.5753110  42.1143590  63.5463700  80.9040250  36.5454060
  63.8879400  81.6482480  36.0497380  62.7176410  81.2171370  36.9078890
  56.1438740  76.6035340  48.1852460  55.7853680  77.2689190  48.7725800
  55.8493300  75.7718890  48.5565080  59.3451860  77.0619580  51.0692010
  59.0452000  77.2076760  50.1719830  60.1163100  76.5024870  50.9765400
  64.6880310  81.8588580  49.0647140  64.7024850  80.9269540  48.8466050
  63.9805410  81.9448340  49.7036910  69.8217380  76.0428400  35.3345750
  69.7381100  76.4742620  34.4842190  70.5411570  76.5026750  35.7672570
  70.8504630  82.8970660  38.0627880  70.2080790  82.2426280  38.3371600
  70.4635290  83.3025750  37.2868550  66.4291110  80.2256090  41.9099570
  66.7814930  79.6284220  41.2500940  65.5453440  79.9000320  42.0807820
  62.5154390  80.9853780  39.3169980  63.2025520  81.5322990  39.6977570
  61.7286810  81.5294510  39.3519590  54.6546790  76.6026600  34.8087060
  55.5241640  76.8851400  35.0922980  54.1637110  77.4162470  34.6935870
  61.8181600  77.9899810  38.9295340  62.2744380  78.8005060  39.1555530
  61.4669810  77.6722950  39.7613830  64.1214210  83.5006150  46.1587640
  64.7656430  83.7065530  46.8361060  64.4843650  82.7394550  45.7058490
  57.7193380  68.3337460  39.4017860  57.5908010  68.3255360  40.3502780
  56.8955400  68.6720550  39.0508870  69.2402010  81.7887120  34.6004230
  69.0139590  81.0717560  35.1928870  68.8498210  81.5399560  33.7625980
  67.1683910  82.3033400  48.0801150  67.5040150  82.8900090  48.7579070
  66.2484250  82.1726110  48.3098940  55.0218040  85.8153980  35.3748690
  55.3815680  86.4143320  34.7205960  54.8810380  86.3613870  36.1483720
  54.7187310  70.0928580  48.8624560  54.0045830  70.2925500  49.4677170
  55.1382350  69.3168150  49.2339360  68.8218260  79.7059060  36.2618390
  68.5339960  80.1671750  37.0496270  69.6170430  79.2456830  36.5302610
  55.0059900  84.0808840  49.8491090  55.1151020  83.1403580  49.7086480
  54.3540460  84.3463590  49.2004820  62.9972490  82.3524730  51.2489210
  62.6769360  81.6333970  51.7934900  62.3230850  83.0279800  51.3225270
  61.0386660  83.1985180  36.1922360  61.0296760  83.9314870  35.5766870
  60.1185020  82.9516760  36.2849320  56.6393300  78.4200070  36.9369120
  56.0321250  79.1598970  36.9464420  57.1142650  78.5099430  36.1107320
  69.5788120  71.5407830  37.4213570  68.9501280  71.6453500  36.7071800
  69.0840040  71.7604610  38.2107450  64.0246260  83.2613420  34.8547550
  64.1258240  83.0577410  33.9249530  63.1248000  83.0071700  35.0595330
  61.5472150  73.8193780  38.8371450  60.8388300  74.2880120  39.2785060
  61.8316630  73.1615790  39.4716640  65.5787580  70.5444440  40.2767240
  65.4555360  70.5630570  39.3276750  66.5272140  70.5923380  40.3965640
  62.6664370  85.7799740  39.5495220  62.9205870  85.7421130  38.6274590
  61.7176850  85.6533070  39.5423470  59.7507170  72.1278860  36.2122160
  60.5997700  72.5649010  36.1462350  59.3838440  72.4399120  37.0394220
  70.3794940  71.4558440  47.6792370  69.8768540  72.1963840  48.0186180
  71.1951600  71.8442440  47.3629160  68.6716950  76.6991620  41.1253730
  67.7307090  76.7141850  41.3001420  68.9861020  75.9127580  41.5714030
  58.6498590  78.3811220  34.6857690  59.4161860  78.2692580  35.2483120
  58.7273280  77.6849190  34.0334460  57.3445350  75.8136290  35.3690580
  57.4248940  74.8663800  35.4807980  58.2365100  76.1443170  35.4751240
  70.6742530  83.8700470  42.8007990  70.7989950  84.6931640  43.2731800
  71.5408090  83.6591200  42.4532140  58.1460060  85.9631680  42.4725120
  58.8822540  85.4147140  42.7433690  58.5300980  86.8287690  42.3331110
  55.0305540  82.0305250  38.3466630  54.1045320  82.2726390  38.3372040
  55.4961970  82.8579510  38.2251380  57.1518340  85.1477750  51.6610700
  57.9531070  85.4689800  52.0746100  56.6370160  84.7873330  52.3830610
  61.2562370  85.1361990  34.2950690  62.0490980  85.4250820  33.8432480
  60.7366720  84.7054160  33.6163170  65.9882970  81.2557620  51.6086110
  65.3821130  81.2789220  50.8681860  65.6837080  80.5240660  52.1453360
  67.4183340  84.9837910  50.2195520  68.3705090  84.8995930  50.1695760
  67.2711560  85.6479620  50.8929310  70.3092540  84.3632120  35.7187430
  70.0234050  83.9497260  34.9041610  70.1112090  85.2919830  35.5987950
  54.8716150  77.6351210  50.6046750  55.3755170  77.0558490  51.1762980
  54.1323570  77.9191440  51.1423120  61.7739770  80.3565400  34.1593040
  61.6690410  79.7417750  34.8854420  61.6063990  79.8331290  33.3756050
  61.9254090  79.0422200  50.1382270  61.1599760  79.6107200  50.0536940
  62.1070050  78.7498410  49.2450500  65.0142500  79.4185430  34.7635030
  64.4652600  79.8654730  35.4077770  65.6361760  78.9134680  35.2872700
  69.0677440  80.7727530  50.6957290  69.8086910  81.1103290  50.1924750
  68.3050120  80.9419590  50.1427060  56.9039230  75.7780800  51.4996820
  56.9444570  75.4794670  52.4082050  57.7584730  76.1788410  51.3404340
  60.6817620  78.3776350  36.6600330  61.1034040  78.2116220  37.5031720
  60.8068460  77.5676580  36.1655470  63.1945260  77.4013960  33.9077430
  63.7150920  76.6862980  33.5418580  63.8413660  78.0399830  34.2077940
  68.2145270  76.1638520  51.2351650  68.7966040  75.4090840  51.1472130
  68.3907040  76.6945960  50.4583130  59.5776520  74.4509580  33.6058490
  59.3765580  73.5876940  33.9671830  59.4068570  74.3642940  32.6680090
  60.3545750  85.0815850  48.3166160  59.8166840  85.8061910  47.9974860
  60.6079710  84.6046190  47.5263500  67.0564830  69.2617810  36.1345370
  67.3367120  68.4185710  36.4904790  66.2830560  69.4940920  36.6484120
  58.3759320  71.5510200  33.5936370  58.6785220  71.5577630  32.6855520
  59.1153910  71.2008060  34.0904030  63.2107960  86.3167060  48.5752810
  63.1366660  87.2202200  48.8825180  62.3086800  85.9978960  48.5474880
  61.5944250  70.4944820  34.5792570  61.2466250  69.8168810  33.9995020
  61.7957020  70.0334330  35.3935960  63.7593290  85.4825570  36.1979170
  64.6544080  85.8210540  36.2197930  63.7910920  84.7604980  35.5703450
  57.3989450  80.8552620  34.4266170  57.8364320  81.3982290  35.0823750
  57.8837180  80.0299570  34.4362510  54.6135250  83.6441650  41.8786430
  54.9438260  82.7762710  41.6465070  55.0426250  83.8500170  42.7091390
  59.2097170  81.9750660  39.5388400  58.9092710  81.8515630  40.4392310
  59.1034660  81.1159250  39.1304130  55.1025460  84.5112240  44.6168060
  54.6656450  84.6913040  45.4492210  55.6703140  85.2686860  44.4749780
  70.7387640  84.0129240  48.9045370  70.1389630  84.0721800  48.1609290
  70.8681540  83.0734220  49.0342220  71.9789090  81.7547060  34.2415080
  71.1482050  81.8223710  34.7122310  72.1560920  82.6451180  33.9381940
  71.4345550  78.4994540  36.7449280  72.1964460  79.0691190  36.8508970
  71.4499920  77.9321740  37.5157590  54.9349890  77.0232470  40.9756940
  54.2798730  76.7544110  40.3316640  55.7727840  76.9136950  40.5258920
  72.4405520  79.3544640  41.5891210  72.8114350  78.5711960  41.1827180
  73.0807450  80.0433740  41.4108510  71.4864720  78.7928910  33.9021800
  71.7613560  79.7007790  33.7741020  71.2975460  78.7291440  34.8383790
  67.8840330  71.8173760  35.1975430  68.3025210  71.6304740  34.3572090
  67.5776390  70.9652810  35.5078360  71.3830060  76.7297900  38.8951230
  71.0073660  75.9625830  38.4632520  70.6533180  77.1120600  39.3826160
  55.9725820  77.4085040  45.5160280  56.3398860  77.3212440  46.3956300
  55.4036640  76.6451590  45.4167140  70.7729680  75.8769420  48.5290750
  70.5415770  75.6482170  47.6288700  71.0334230  76.7968970  48.4835640
  55.5241820  74.3194130  49.4218700  54.6297870  74.2860890  49.7612410
  56.0639370  74.5180920  50.1869950  69.2117750  71.1025850  51.3070450
  70.0887930  71.1109250  51.6904450  69.2238590  70.3656690  50.6962800
  54.1487970  74.2331400  36.9182270  53.2452050  74.4961600  36.7433930
  54.6328590  74.5042570  36.1382230  70.6581020  74.9555390  42.1958470
  71.1818500  74.4618040  41.5648640  71.2440440  75.0905750  42.9406040
  56.6915180  73.2896940  34.8276650  57.4006880  72.8680160  34.3423930
  55.9755120  73.3572170  34.1960000  56.3389340  69.3436270  33.8679300
  57.0617470  69.8845210  34.1860520  56.6113860  69.0699690  32.9920840
  70.1480990  74.2128740  38.1350880  70.6440110  73.9799610  38.9199760
  69.9497060  73.3740580  37.7188520  56.0281530  68.5942460  43.7701920
  56.6757720  68.0439840  43.3297080  56.4483370  68.8485610  44.5917730
  71.5768150  72.8489690  40.6688560  71.4667430  72.6945730  41.6070830
  72.3375740  72.3210630  40.4263970  69.9233870  68.7883820  47.1271560
  70.5606090  69.4017960  47.4930750  70.0708760  68.8244480  46.1820790
  72.4658420  70.6797610  33.9094700  73.3907730  70.5478790  33.7012990
  72.4434210  70.7590430  34.8631150  72.5396910  71.4508270  36.5351410
  71.7448410  71.3853390  37.0644320  72.7440190  72.3858910  36.5236760
  69.4815330  85.4899820  40.5289800  70.0774400  85.1684390  39.8524220
  69.7393480  85.0171640  41.3203070  57.3877900  81.9217730  50.6780430
  57.3447530  81.5510640  51.5594890  57.5188910  82.8595300  50.8182250
  61.0883930  83.4777320  46.2790150  60.8475290  83.7451880  45.3920670
  62.0286570  83.6483050  46.3341010  65.9312910  69.5980070  49.6738950
  66.5453320  69.9159360  49.0120030  66.4762470  69.1128660  50.2934810
  72.3488090  85.4971700  47.0800790  71.8546370  85.8940570  46.3627920
  71.7401380  84.8720910  47.4738070  57.2265930  84.8679980  47.7978210
  56.6326250  84.7364680  48.5368250  57.2189770  84.0318120  47.3320310
  66.6720950  68.1612210  46.0008240  65.7980790  68.4947320  45.7981170
  66.5631700  67.6885390  46.8260110  70.0327540  86.1395120  44.3587530
  69.5730510  86.8910930  43.9845550  69.4040000  85.4201590  44.3002330
  56.8578160  82.2338360  46.7486250  56.1312220  81.6143650  46.6812200
  56.9187310  82.6278970  45.8784330  60.4623260  84.4483360  43.5335660
  60.9788280  83.8370720  43.0083920  61.1120640  84.9512140  44.0246670
  63.2018760  85.3391850  44.3604640  63.4896570  85.0846150  43.4837650
  63.7141980  84.7869210  44.9510210  68.9716840  69.7805150  42.9850240
  69.4124930  69.7250250  42.1371840  68.7024430  70.6963160  43.0560420
  70.8355410  69.4120390  40.9959060  70.7743810  68.4681610  40.8490080
  71.6147440  69.5200480  41.5412520  55.1408160  85.5512750  39.9583010
  54.9730200  84.9183430  40.6564900  54.2742670  85.7572150  39.6077200
  55.7636180  69.3829530  37.4614870  56.5215540  69.4958410  36.8878900
  55.3013350  70.2198730  37.4158300  62.3049990  71.4968800  40.4517180
  61.4924500  71.1225690  40.1113060  62.8091630  70.7413880  40.7538370
  66.8074970  68.1611250  41.6900250  67.4104340  68.7331460  42.1648770
  66.0667960  68.7250690  41.4674150  69.9509570  68.5632810  36.9640530
  70.1460200  69.4616260  37.2307960  69.1639440  68.3319890  37.4573480
  56.7470860  84.2445980  37.4033150  56.2218480  84.6254010  36.6995110
  56.6715440  84.8696750  38.1242860  58.1361330  69.9093580  36.0016840
  58.6654090  69.1223380  35.8724790  58.7689650  70.5884770  36.2352370
  60.3299170  69.6468720  39.0562230  59.7001910  68.9456030  39.2232360
  59.7904310  70.4072850  38.8395390  71.5036180  85.8033520  38.7247090
  71.6788370  85.1171260  38.0808010  70.8057750  86.3280570  38.3323760
  59.3463830  86.1928360  36.2782400  60.0782650  85.9087640  35.7306290
  59.6057500  85.9541640  37.1681780  58.5078620  82.3093090  36.2828730
  57.8787500  82.7778190  36.8314560  58.6226450  81.4642310  36.7174920
  69.8368680  85.4877810  51.5513880  70.6294000  84.9927040  51.3439840
  70.1301830  86.1667950  52.1589490  65.9628340  76.3598750  22.4329930
  65.8822390  75.4453360  22.1621640  65.5492760  76.8565820  21.7269640
  64.0946380  78.1377770  24.3139200  63.3188480  77.6578210  24.6037770
  64.7459310  77.4583420  24.1395360  58.1112210  78.4497580  25.1914960
  57.2797090  78.1946290  25.5911470  58.7193190  78.5208350  25.9272880
  68.1153810  82.5437960  23.0938330  67.6535340  81.7725200  23.4225500
  68.9279360  82.5704030  23.5990780  58.0913470  82.4837670  25.3872980
  58.3941510  81.5935410  25.2083200  58.8357060  83.0407890  25.1595230
  56.5204160  73.4099470  18.9757350  55.6320860  73.7515440  18.8737230
  56.8045350  73.2099790  18.0838180  64.3417120  84.8295970  22.7142320
  63.7228560  85.2853470  22.1436760  65.1968900  84.9847430  22.3132020
  63.5355370  80.8134960  24.3209360  63.4663650  79.8724900  24.1598490
  64.2975230  80.9036370  24.8931930  64.5660540  73.6205340  24.5478290
  64.9425360  72.7477220  24.4351960  64.4680050  73.9564040  23.6568730
  58.6965550  71.9930970  20.0095730  58.8032300  72.8934700  20.3164490
  57.7857910  71.9448940  19.7190380  68.3484660  71.1155780  21.4806630
  69.1694280  70.6252350  21.5232110  68.3818740  71.7053440  22.2338470
  60.5373280  74.9617340  24.3420910  61.0451500  75.4598310  24.9825930
  61.0686520  74.1852540  24.1660270  58.8209380  69.6015900  28.6084330
  58.8227820  70.1188290  27.8030230  57.9913690  69.1246080  28.5854260
  65.2080470  79.7135210  20.1074230  64.5897740  80.1784660  19.5436950
  65.7203720  80.4062690  20.5243740  60.0712230  79.2411080  26.7857830
  59.7381610  79.8680000  27.4278900  60.2478910  79.7672960  26.0059500
  58.5024710  71.3125860  26.6154780  58.8441520  72.1567910  26.3208650
  57.5640520  71.4609600  26.7320120  59.2831330  81.2091880  28.6007010
  59.9005330  81.8842960  28.3191460  58.4224450  81.6179860  28.5094510
  54.5763670  80.3991740  17.4813860  54.1991650  80.8878840  16.7498760
  54.8336740  81.0717020  18.1120390  70.2008920  82.6731290  26.5161650
  69.5172440  83.3430400  26.5078320  70.7403210  82.8711940  25.7506510
  71.6533060  72.5010950  24.6443380  70.7057970  72.5349930  24.7758810
  71.9783050  73.3149900  25.0292740  62.1852600  68.8008130  22.9399370
  62.4927580  68.2455020  22.2234870  61.2553300  68.9352590  22.7572360
  67.7367660  84.5175420  25.2306830  67.7494820  84.1137710  24.3629090
  67.1842880  85.2922710  25.1268260  69.0313080  81.2391640  20.3197000
  68.9209410  80.2965970  20.4446420  69.0281330  81.6007280  21.2059760
  67.1353100  79.4205260  26.5589440  67.5521890  79.2065370  25.7242900
  67.8592920  79.6778050  27.1298060  64.5733360  76.8656960  19.6759490
  63.6462640  76.7994340  19.9047960  64.7258180  77.8037090  19.5614730
  64.5602440  73.1373960  16.6726650  63.6206110  73.2987920  16.7579110
  64.8785700  73.8559640  16.1262640  71.0815200  77.8192480  26.6505680
  70.2533830  77.8885570  26.1755810  71.6765680  78.4046790  26.1821510
  68.6030650  78.4277260  20.1794740  67.9843070  78.0896810  19.5321040
  68.5855100  77.7837020  20.8873930  60.1790000  77.3921700  22.4579220
  59.7747000  76.6798950  21.9625120  60.2653120  77.0474940  23.3467260
  60.6471700  81.0789260  24.6218430  60.3499990  80.4734730  23.9426210
  61.5971520  81.1166570  24.5107790  58.8918620  74.1664910  26.2378260
  59.4433210  74.2760250  25.4631510  59.4062130  74.5402510  26.9533490
  68.7357310  84.6521130  28.2841530  68.2587870  85.4593320  28.0914140
  68.0519100  83.9999460  28.4367740  59.7390130  80.8170950  31.2726230
  58.8418660  81.0410920  31.5199630  59.7643000  80.9405890  30.3237630
  66.7795350  77.6664070  17.1867490  67.2188630  76.8286500  17.0405310
  67.4923770  78.2993470  17.2731630  58.5661350  77.6884270  29.8483600
  58.4269120  78.5607070  30.2171000  57.6842710  77.3457080  29.7031540
  64.8890730  82.6060140  21.1548730  65.3286640  83.3484470  20.7404120
  64.8277620  82.8486710  22.0787690  60.3641700  83.6305970  32.0568750
  60.3357130  84.0348920  31.1897180  60.2006670  82.7016330  31.8940350
  70.3612490  68.9206880  15.5008530  70.0485150  69.0133710  16.4007600
  71.1224960  69.4987910  15.4505960  56.8794630  76.2866680  19.9585870
  56.7592230  77.0128770  19.3467140  56.5695520  75.5169590  19.4813780
  72.3156520  84.4133070  33.3532920  72.7916240  84.8915960  34.0322000
  72.9363680  84.3450560  32.6278420  54.5180000  79.4581820  25.7654510
  54.5960420  79.5930590  24.8210230  55.1321680  78.7497710  25.9582630
  55.7627630  81.1582010  22.1760690  55.3555710  81.2996600  21.3214290
  56.6540640  80.8742170  21.9731900  71.7189770  81.6045920  30.5132930
  71.8452830  81.3657800  29.5950110  71.7611150  80.7730460  30.9855010
  65.5806510  85.3073920  29.0827740  66.0951180  85.2181930  29.8850170
  64.7375590  85.6533620  29.3755650  67.5560910  85.5929260  18.5111740
  67.3962050  85.3032200  19.4093570  67.3907620  84.8169390  17.9756970
  60.0349290  85.3727790  20.2883360  59.8591770  84.4563330  20.0751160
  59.1805030  85.7315080  20.5281160  67.2587040  83.1016820  17.0709740
  66.5652200  83.0994110  16.4112020  68.0009900  82.6776140  16.6403910
  66.8236970  84.7279530  21.1458230  67.2793920  83.9468910  21.4596850
  67.1629490  85.4386350  21.6899410  71.5713780  73.6578380  31.4782670
  70.9558050  74.1658050  30.9498130  71.2510200  72.7576710  31.4208610
  54.5739520  80.4995990  28.3048970  54.7370560  80.0301350  27.4868340
  55.0391970  79.9919550  28.9697810  59.3458290  69.6301750  23.3409540
  58.9026440  70.4111290  23.0094060  59.9043280  69.9531640  24.0480480
  63.6328100  72.4970270  28.9444860  63.1707470  72.7053290  29.7564800
  63.2306210  71.6829620  28.6415530  65.7282320  75.2180970  32.1740310
  66.0535730  74.3844720  31.8342540  66.5162650  75.7409490  32.3218640
  62.4617110  69.2512450  18.2215370  61.8371290  69.2472320  18.9468680
  62.3747230  68.3843410  17.8251340  61.3834190  70.1749080  25.1999140
  61.6806520  71.0811910  25.1191160  61.9319750  69.6867860  24.5858710
  59.1372510  74.7535320  21.0690790  58.9113430  74.5372490  21.9737410
  58.3565040  75.1863780  20.7236760  66.3670270  74.7598690  19.6681440
  65.7679160  75.4834490  19.4845060  66.9149880  74.6975470  18.8857890
  61.5771720  75.6520900  31.7351060  61.4815320  74.7115630  31.5851460
  62.4203700  75.8735970  31.3399130  64.9735140  73.3962230  21.6984720
  65.3664710  73.7134430  20.8853410  65.3351990  72.5174110  21.8129240
  56.7082260  72.0634570  29.8884840  56.3145650  72.9109780  30.0957620
  56.0200660  71.4260940  30.0793480  63.2827310  72.1469540  32.9581580
  62.5925630  71.9541740  33.5927670  64.0259610  72.4304180  33.4905880
  54.0099310  69.9863030  23.9214920  53.7212360  70.5565890  24.6339900
  54.7545070  69.5067480  24.2846150  54.1969540  73.9283150  15.1317640
  54.1144210  74.8713910  15.2732630  53.8452600  73.7858060  14.2529990
  65.5590280  75.9867980  25.7935500  64.8271400  76.4954790  26.1425600
  65.1614620  75.1697960  25.4924280  61.9967670  72.6622180  24.1987990
  62.0003730  72.2212130  23.3492530  62.8918790  72.9839510  24.3059810
  57.8470050  72.5448670  23.1582200  57.5070100  73.0223900  23.9149250
  57.0847370  72.0913790  22.7983300  62.0587820  73.6634260  17.1894750
  62.1800640  73.6220740  18.1380570  61.6736330  74.5258410  17.0341480
  61.0709320  75.9735400  16.5878050  60.5026220  75.5253650  15.9613960
  61.7798320  76.3328180  16.0543200  69.4486940  68.8533840  31.0444820
  69.7732710  68.1223500  31.5702800  69.4843450  68.5347480  30.1425810
  56.1478500  79.8747420  30.4644780  55.7633290  79.2341090  31.0627740
  56.4590690  80.5783540  31.0339510  62.2975640  76.7223960  25.9453400
  62.6645770  76.2482530  26.6914740  62.1080700  77.5965530  26.2861740
  55.1616130  71.4667650  22.0746870  54.8763050  71.1023320  22.9125490
  55.0994990  70.7348110  21.4610010  60.0875010  75.7632600  28.2637610
  59.7832080  76.6424580  28.4887970  61.0421470  75.8232390  28.2995050
  58.6156800  79.9693590  18.8604460  57.8419060  79.4291210  18.7003180
  59.3451430  79.4500200  18.5222220  69.3744780  78.9658950  24.6530850
  70.0943900  79.4614240  24.2626960  69.1726600  78.2876840  24.0084720
  64.8354720  70.3596910  18.7960240  64.0219330  69.8610080  18.7205550
  64.6416670  71.1995160  18.3796590  64.7563580  79.0368010  30.5399850
  64.6900890  78.1163680  30.2857440  64.1268720  79.1343450  31.2544490
  67.5503110  74.7316560  17.0922400  68.4382730  75.0433790  16.9173740
  67.5208200  73.8588810  16.7002980  58.6594200  79.6373970  22.4983270
  59.1772870  78.8342230  22.4440160  58.2078220  79.5753110  23.3400100
  63.5463700  80.9040250  17.7710570  63.8879400  81.6482480  17.2753890
  62.7176410  81.2171370  18.1335400  56.1438740  76.6035340  29.4108970
  55.7853680  77.2689190  29.9982310  55.8493300  75.7718890  29.7821590
  59.3451860  77.0619580  32.2948520  59.0452000  77.2076760  31.3976340
  60.1163100  76.5024870  32.2021910  64.6880310  81.8588580  30.2903650
  64.7024850  80.9269540  30.0722560  63.9805410  81.9448340  30.9293420
  69.8217380  76.0428400  16.5602260  69.7381100  76.4742620  15.7098700
  70.5411570  76.5026750  16.9929080  70.8991520  78.4995920  29.6372230
  70.1739710  79.0924700  29.4401620  71.4266980  78.4919460  28.8385600
  70.8504630  82.8970660  19.2884390  70.2080790  82.2426280  19.5628110
  70.4635290  83.3025750  18.5125060  66.4291110  80.2256090  23.1356080
  66.7814930  79.6284220  22.4757450  65.5453440  79.9000320  23.3064330
  62.5154390  80.9853780  20.5426490  63.2025520  81.5322990  20.9234080
  61.7286810  81.5294510  20.5776100  54.6546790  76.6026600  16.0343570
  55.5241640  76.8851400  16.3179490  54.1637110  77.4162470  15.9192380
  61.8181600  77.9899810  20.1551850  62.2744380  78.8005060  20.3812040
  61.4669810  77.6722950  20.9870340  64.1214210  83.5006150  27.3844150
  64.7656430  83.7065530  28.0617570  64.4843650  82.7394550  26.9315000
  57.7193380  68.3337460  20.6274370  57.5908010  68.3255360  21.5759290
  56.8955400  68.6720550  20.2765380  65.3946290  81.5038500  26.1021600
  66.0368520  80.8031660  26.2153770  65.9195640  82.2836940  25.9218490
  69.2402010  81.7887120  15.8260740  69.0139590  81.0717560  16.4185380
  68.8498210  81.5399560  14.9882490  67.1683910  82.3033400  29.3057660
  67.5040150  82.8900090  29.9835580  66.2484250  82.1726110  29.5355450
  55.0218040  85.8153980  16.6005200  55.3815680  86.4143320  15.9462470
  54.8810380  86.3613870  17.3740230  54.7187310  70.0928580  30.0881070
  54.0045830  70.2925500  30.6933680  55.1382350  69.3168150  30.4595870
  68.8218260  79.7059060  17.4874900  68.5339960  80.1671750  18.2752780
  69.6170430  79.2456830  17.7559120  55.0059900  84.0808840  31.0747600
  55.1151020  83.1403580  30.9342990  54.3540460  84.3463590  30.4261330
  62.9972490  82.3524730  32.4745720  62.6769360  81.6333970  33.0191410
  62.3230850  83.0279800  32.5481780  61.0386660  83.1985180  17.4178870
  61.0296760  83.9314870  16.8023380  60.1185020  82.9516760  17.5105830
  56.6393300  78.4200070  18.1625630  56.0321250  79.1598970  18.1720930
  57.1142650  78.5099430  17.3363830  69.5788120  71.5407830  18.6470080
  68.9501280  71.6453500  17.9328310  69.0840040  71.7604610  19.4363960
  64.0246260  83.2613420  16.0804060  64.1258240  83.0577410  15.1506040
  63.1248000  83.0071700  16.2851840  61.5472150  73.8193780  20.0627960
  60.8388300  74.2880120  20.5041570  61.8316630  73.1615790  20.6973150
  63.1728080  75.2390480  28.0620490  63.6713330  75.7136300  28.7272340
  63.3151030  74.3154000  28.2690520  65.5787580  70.5444440  21.5023750
  65.4555360  70.5630570  20.5533260  66.5272140  70.5923380  21.6222150
  62.6664370  85.7799740  20.7751730  62.9205870  85.7421130  19.8531100
  61.7176850  85.6533070  20.7679980  59.7507170  72.1278860  17.4378670
  60.5997700  72.5649010  17.3718860  59.3838440  72.4399120  18.2650730
  68.6716950  76.6991620  22.3510240  67.7307090  76.7141850  22.5257930
  68.9861020  75.9127580  22.7970540  58.6498590  78.3811220  15.9114200
  59.4161860  78.2692580  16.4739630  58.7273280  77.6849190  15.2590970
  57.3445350  75.8136290  16.5947090  57.4248940  74.8663800  16.7064490
  58.2365100  76.1443170  16.7007750  70.6742530  83.8700470  24.0264500
  70.7989950  84.6931640  24.4988310  71.5408090  83.6591200  23.6788650
  58.1460060  85.9631680  23.6981630  58.8822540  85.4147140  23.9690200
  58.5300980  86.8287690  23.5587620  55.0305540  82.0305250  19.5723140
  54.1045320  82.2726390  19.5628550  55.4961970  82.8579510  19.4507890
  57.1518340  85.1477750  32.8867210  57.9531070  85.4689800  33.3002610
  56.6370160  84.7873330  33.6087120  61.2562370  85.1361990  15.5207200
  62.0490980  85.4250820  15.0688990  60.7366720  84.7054160  14.8419680
  65.9882970  81.2557620  32.8342620  65.3821130  81.2789220  32.0938370
  65.6837080  80.5240660  33.3709870  67.4183340  84.9837910  31.4452030
  68.3705090  84.8995930  31.3952270  67.2711560  85.6479620  32.1185820
  70.3092540  84.3632120  16.9443940  70.0234050  83.9497260  16.1298120
  70.1112090  85.2919830  16.8244460  54.8716150  77.6351210  31.8303260
  55.3755170  77.0558490  32.4019490  54.1323570  77.9191440  32.3679630
  61.7739770  80.3565400  15.3849550  61.6690410  79.7417750  16.1110930
  61.6063990  79.8331290  14.6012560  61.9254090  79.0422200  31.3638780
  61.1599760  79.6107200  31.2793450  62.1070050  78.7498410  30.4707010
  65.0142500  79.4185430  15.9891540  64.4652600  79.8654730  16.6334280
  65.6361760  78.9134680  16.5129210  69.0677440  80.7727530  31.9213800
  69.8086910  81.1103290  31.4181260  68.3050120  80.9419590  31.3683570
  56.9039230  75.7780800  32.7253330  56.9444570  75.4794670  33.6338560
  57.7584730  76.1788410  32.5660850  60.6817620  78.3776350  17.8856840
  61.1034040  78.2116220  18.7288230  60.8068460  77.5676580  17.3911980
  58.8445040  74.3572900  30.6927820  58.3141500  73.8663850  30.0651160
  59.5133110  74.7857100  30.1585750  63.1945260  77.4013960  15.1333940
  63.7150920  76.6862980  14.7675090  63.8413660  78.0399830  15.4334450
  67.7423100  78.8242360  30.4569010  68.1564120  78.9787440  31.3059430
  66.8074100  78.9497580  30.6194790  68.2145270  76.1638520  32.4608160
  68.7966040  75.4090840  32.3728640  68.3907040  76.6945960  31.6839640
  59.3317340  71.3235270  30.7725110  59.2374210  70.7056020  30.0475980
  58.7514730  72.0501560  30.5455020  62.0978780  69.8808510  27.8052500
  61.6496080  69.9032770  26.9598050  61.4643980  69.4827530  28.4022800
  62.5038330  78.7762840  28.4264940  62.9226440  79.6195570  28.2541180
  61.5846960  78.9134880  28.1971720  64.8402230  76.5079020  29.8102780
  64.9598440  75.9120160  30.5497620  65.6996230  76.5448710  29.3904080
  67.1790130  77.0616210  28.3865290  66.6525350  77.5858830  27.7830430
  67.5221470  77.6943600  29.0175020  59.5776520  74.4509580  14.8315000
  59.3765580  73.5876940  15.1928340  59.4068570  74.3642940  13.8936600
  60.3545750  85.0815850  29.5422670  59.8166840  85.8061910  29.2231370
  60.6079710  84.6046190  28.7520010  61.6071000  73.0500370  31.0678600
  62.1970690  72.7416220  31.7556420  60.7891240  72.5780120  31.2238500
  67.0564830  69.2617810  17.3601880  67.3367120  68.4185710  17.7161300
  66.2830560  69.4940920  17.8740630  58.3759320  71.5510200  14.8192880
  58.6785220  71.5577630  13.9112030  59.1153910  71.2008060  15.3160540
  63.2107960  86.3167060  29.8009320  63.1366660  87.2202200  30.1081690
  62.3086800  85.9978960  29.7731390  61.5944250  70.4944820  15.8049080
  61.2466250  69.8168810  15.2251530  61.7957020  70.0334330  16.6192470
  63.7593290  85.4825570  17.4235680  64.6544080  85.8210540  17.4454440
  63.7910920  84.7604980  16.7959960  57.3989450  80.8552620  15.6522680
  57.8364320  81.3982290  16.3080260  57.8837180  80.0299570  15.6619020
  54.6135250  83.6441650  23.1042940  54.9438260  82.7762710  22.8721580
  55.0426250  83.8500170  23.9347900  59.2097170  81.9750660  20.7644910
  58.9092710  81.8515630  21.6648820  59.1034660  81.1159250  20.3560640
  55.1025460  84.5112240  25.8424570  54.6656450  84.6913040  26.6748720
  55.6703140  85.2686860  25.7006290  70.7387640  84.0129240  30.1301880
  70.1389630  84.0721800  29.3865800  70.8681540  83.0734220  30.2598730
  71.9789090  81.7547060  15.4671590  71.1482050  81.8223710  15.9378820
  72.1560920  82.6451180  15.1638450  71.4345550  78.4994540  17.9705790
  72.1964460  79.0691190  18.0765480  71.4499920  77.9321740  18.7414100
  54.9349890  77.0232470  22.2013450  54.2798730  76.7544110  21.5573150
  55.7727840  76.9136950  21.7515430  72.4405520  79.3544640  22.8147720
  72.8114350  78.5711960  22.4083690  73.0807450  80.0433740  22.6365020
  69.4239280  80.7381220  28.2278040  68.6099120  81.1678380  28.4903830
  69.8313480  81.3499630  27.6147090  71.4864720  78.7928910  15.1278310
  71.7613560  79.7007790  14.9997530  71.2975460  78.7291440  16.0640300
  67.8840330  71.8173760  16.4231940  68.3025210  71.6304740  15.5828600
  67.5776390  70.9652810  16.7334870  71.3830060  76.7297900  20.1207740
  71.0073660  75.9625830  19.6889030  70.6533180  77.1120600  20.6082670
  55.9725820  77.4085040  26.7416790  56.3398860  77.3212440  27.6212810
  55.4036640  76.6451590  26.6423650  70.7729680  75.8769420  29.7547260
  70.5415770  75.6482170  28.8545210  71.0334230  76.7968970  29.7092150
  69.2117750  71.1025850  32.5326960  70.0887930  71.1109250  32.9160960
  69.2238590  70.3656690  31.9219310  54.1487970  74.2331400  18.1438780
  53.2452050  74.4961600  17.9690440  54.6328590  74.5042570  17.3638740
  70.6581020  74.9555390  23.4214980  71.1818500  74.4618040  22.7905150
  71.2440440  75.0905750  24.1662550  56.6915180  73.2896940  16.0533160
  57.4006880  72.8680160  15.5680440  55.9755120  73.3572170  15.4216510
  56.3389340  69.3436270  15.0935810  57.0617470  69.8845210  15.4117030
  56.6113860  69.0699690  14.2177350  70.1480990  74.2128740  19.3607390
  70.6440110  73.9799610  20.1456270  69.9497060  73.3740580  18.9445030
  56.0281530  68.5942460  24.9958430  56.6757720  68.0439840  24.5553590
  56.4483370  68.8485610  25.8174240  71.5768150  72.8489690  21.8945070
  71.4667430  72.6945730  22.8327340  72.3375740  72.3210630  21.6520480
  72.4658420  70.6797610  15.1351210  73.3907730  70.5478790  14.9269500
  72.4434210  70.7590430  16.0887660  72.5396910  71.4508270  17.7607920
  71.7448410  71.3853390  18.2900830  72.7440190  72.3858910  17.7493270
  69.4815330  85.4899820  21.7546310  70.0774400  85.1684390  21.0780730
  69.7393480  85.0171640  22.5459580  55.7813530  68.7498130  27.7383750
  55.4328350  69.2061950  28.5041930  55.4501230  67.8555260  27.8206180
  57.3877900  81.9217730  31.9036940  57.3447530  81.5510640  32.7851400
  57.5188910  82.8595300  32.0438760  61.0883930  83.4777320  27.5046660
  60.8475290  83.7451880  26.6177180  62.0286570  83.6483050  27.5597520
  63.2938350  69.9410010  31.2603170  63.2327240  70.5331840  32.0098580
  64.2338730  69.8335970  31.1153430  65.9312910  69.5980070  30.8995460
  66.5453320  69.9159360  30.2376540  66.4762470  69.1128660  31.5191320
  72.3488090  85.4971700  28.3057300  71.8546370  85.8940570  27.5884430
  71.7401380  84.8720910  28.6994580  56.4534170  68.2774330  31.0134520
  57.0017160  68.0962380  30.2500630  56.5189480  67.4868440  31.5490830
  57.2265930  84.8679980  29.0234720  56.6326250  84.7364680  29.7624760
  57.2189770  84.0318120  28.5576820  66.6720950  68.1612210  27.2264750
  65.7980790  68.4947320  27.0237680  66.5631700  67.6885390  28.0516620
  70.0327540  86.1395120  25.5844040  69.5730510  86.8910930  25.2102060
  69.4040000  85.4201590  25.5258840  56.8578160  82.2338360  27.9742760
  56.1312220  81.6143650  27.9068710  56.9187310  82.6278970  27.1040840
  60.4623260  84.4483360  24.7592170  60.9788280  83.8370720  24.2340430
  61.1120640  84.9512140  25.2503180  63.2018760  85.3391850  25.5861150
  63.4896570  85.0846150  24.7094160  63.7141980  84.7869210  26.1766720
  64.4195770  69.0782050  26.1657660  63.6367560  69.5527550  26.4454420
  64.1258700  68.1736880  26.0570840  68.9716840  69.7805150  24.2106750
  69.4124930  69.7250250  23.3628350  68.7024430  70.6963160  24.2816930
  70.8355410  69.4120390  22.2215570  70.7743810  68.4681610  22.0746590
  71.6147440  69.5200480  22.7669030  55.1408160  85.5512750  21.1839520
  54.9730200  84.9183430  21.8821410  54.2742670  85.7572150  20.8333710
  55.7636180  69.3829530  18.6871380  56.5215540  69.4958410  18.1135410
  55.3013350  70.2198730  18.6414810  62.3049990  71.4968800  21.6773690
  61.4924500  71.1225690  21.3369570  62.8091630  70.7413880  21.9794880
  66.8074970  68.1611250  22.9156760  67.4104340  68.7331460  23.3905280
  66.0667960  68.7250690  22.6930660  69.9509570  68.5632810  18.1897040
  70.1460200  69.4616260  18.4564470  69.1639440  68.3319890  18.6829990
  56.7470860  84.2445980  18.6289660  56.2218480  84.6254010  17.9251620
  56.6715440  84.8696750  19.3499370  58.1361330  69.9093580  17.2273350
  58.6654090  69.1223380  17.0981300  58.7689650  70.5884770  17.4608880
  60.3299170  69.6468720  20.2818740  59.7001910  68.9456030  20.4488870
  59.7904310  70.4072850  20.0651900  63.2691120  86.2607950  32.9529350
  64.1958430  86.0252220  32.9965310  63.2541550  87.0879950  32.4715380
  71.5036180  85.8033520  19.9503600  71.6788370  85.1171260  19.3064520
  70.8057750  86.3280570  19.5580270  60.4554730  68.9252700  32.7171230
  60.1739000  69.4286300  31.9532050  60.8374430  68.1274450  32.3513360
  59.3463830  86.1928360  17.5038910  60.0782650  85.9087640  16.9562800
  59.6057500  85.9541640  18.3938290  58.5078620  82.3093090  17.5085240
  57.8787500  82.7778190  18.0571070  58.6226450  81.4642310  17.9431430
  67.0570190  68.3406280  33.2951700  66.9435640  68.6600890  34.1903220
  67.8739930  68.7418790  32.9988980  69.8368680  85.4877810  32.7770390
  70.6294000  84.9927040  32.5696350  70.1301830  86.1667950  33.3846000
  65.9628340  76.3598750   3.6586440  65.8822390  75.4453360   3.3878150
  65.5492760  76.8565820   2.9526150  64.0946380  78.1377770   5.5395710
  63.3188480  77.6578210   5.8294280  64.7459310  77.4583420   5.3651870
  58.1112210  78.4497580   6.4171470  57.2797090  78.1946290   6.8167980
  58.7193190  78.5208350   7.1529390  68.1153810  82.5437960   4.3194840
  67.6535340  81.7725200   4.6482010  68.9279360  82.5704030   4.8247290
  58.0913470  82.4837670   6.6129490  58.3941510  81.5935410   6.4339710
  58.8357060  83.0407890   6.3851740  54.4837170  76.0105120   6.0853560
  55.0553280  75.2427320   6.0857200  54.4838710  76.3093880   5.1760170
  64.3417120  84.8295970   3.9398830  63.7228560  85.2853470   3.3693270
  65.1968900  84.9847430   3.5388530  63.5355370  80.8134960   5.5465870
  63.4663650  79.8724900   5.3855000  64.2975230  80.9036370   6.1188440
  55.7262040  71.4189480   7.8722490  55.5464880  70.5215230   8.1525250
  55.3242120  71.9661350   8.5469440  64.5660540  73.6205340   5.7734800
  64.9425360  72.7477220   5.6608470  64.4680050  73.9564040   4.8825240
  68.3484660  71.1155780   2.7063140  69.1694280  70.6252350   2.7488620
  68.3818740  71.7053440   3.4594980  56.3448710  73.9149980   6.4804830
  57.0258820  74.1788350   7.0992230  56.0296760  73.0750850   6.8142840
  60.5373280  74.9617340   5.5677420  61.0451500  75.4598310   6.2082440
  61.0686520  74.1852540   5.3916780  72.6384210  73.1322530   9.2706770
  71.9336380  73.5204240   8.7521880  72.9042130  73.8272820   9.8727700
  58.8209380  69.6015900   9.8340840  58.8227820  70.1188290   9.0286740
  57.9913690  69.1246080   9.8110770  60.0712230  79.2411080   8.0114340
  59.7381610  79.8680000   8.6535410  60.2478910  79.7672960   7.2316010
  68.5846140  73.0556160   5.4790680  67.8801710  73.3441050   6.0593790
  68.9458300  73.8656270   5.1190240  58.5024710  71.3125860   7.8411290
  58.8441520  72.1567910   7.5465160  57.5640520  71.4609600   7.9576630
  59.2831330  81.2091880   9.8263520  59.9005330  81.8842960   9.5447970
  58.4224450  81.6179860   9.7351020  70.2008920  82.6731290   7.7418160
  69.5172440  83.3430400   7.7334830  70.7403210  82.8711940   6.9763020
  71.6533060  72.5010950   5.8699890  70.7057970  72.5349930   6.0015320
  71.9783050  73.3149900   6.2549250  62.1852600  68.8008130   4.1655880
  62.4927580  68.2455020   3.4491380  61.2553300  68.9352590   3.9828870
  67.7367660  84.5175420   6.4563340  67.7494820  84.1137710   5.5885600
  67.1842880  85.2922710   6.3524770  67.1353100  79.4205260   7.7845950
  67.5521890  79.2065370   6.9499410  67.8592920  79.6778050   8.3554570
  71.0815200  77.8192480   7.8762190  70.2533830  77.8885570   7.4012320
  71.6765680  78.4046790   7.4078020  68.0457210  74.6061800   8.8217060
  67.6328390  75.4315510   9.0757050  67.3133160  74.0206840   8.6293420
  60.1790000  77.3921700   3.6835730  59.7747000  76.6798950   3.1881630
  60.2653120  77.0474940   4.5723770  60.6471700  81.0789260   5.8474940
  60.3499990  80.4734730   5.1682720  61.5971520  81.1166570   5.7364300
  58.8918620  74.1664910   7.4634770  59.4433210  74.2760250   6.6888020
  59.4062130  74.5402510   8.1790000  68.7357310  84.6521130   9.5098040
  68.2587870  85.4593320   9.3170650  68.0519100  83.9999460   9.6624250
  59.7390130  80.8170950  12.4982740  58.8418660  81.0410920  12.7456140
  59.7643000  80.9405890  11.5494140  58.5661350  77.6884270  11.0740110
  58.4269120  78.5607070  11.4427510  57.6842710  77.3457080  10.9288050
  64.8890730  82.6060140   2.3805240  65.3286640  83.3484470   1.9660630
  64.8277620  82.8486710   3.3044200  60.3641700  83.6305970  13.2825260
  60.3357130  84.0348920  12.4153690  60.2006670  82.7016330  13.1196860
  72.3156520  84.4133070  14.5789430  72.7916240  84.8915960  15.2578510
  72.9363680  84.3450560  13.8534930  54.5180000  79.4581820   6.9911020
  54.5960420  79.5930590   6.0466740  55.1321680  78.7497710   7.1839140
  55.7627630  81.1582010   3.4017200  55.3555710  81.2996600   2.5470800
  56.6540640  80.8742170   3.1988410  71.7189770  81.6045920  11.7389440
  71.8452830  81.3657800  10.8206620  71.7611150  80.7730460  12.2111520
  65.5806510  85.3073920  10.3084250  66.0951180  85.2181930  11.1106680
  64.7375590  85.6533620  10.6012160  66.8236970  84.7279530   2.3714740
  67.2793920  83.9468910   2.6853360  67.1629490  85.4386350   2.9155920
  71.5713780  73.6578380  12.7039180  70.9558050  74.1658050  12.1754640
  71.2510200  72.7576710  12.6465120  54.5739520  80.4995990   9.5305480
  54.7370560  80.0301350   8.7124850  55.0391970  79.9919550  10.1954320
  59.3458290  69.6301750   4.5666050  58.9026440  70.4111290   4.2350570
  59.9043280  69.9531640   5.2736990  63.6328100  72.4970270  10.1701370
  63.1707470  72.7053290  10.9821310  63.2306210  71.6829620   9.8672040
  68.6332610  73.7179220  11.2998030  67.7826200  73.4184970  11.6207100
  68.4734400  73.9621230  10.3881850  65.7282320  75.2180970  13.3996820
  66.0535730  74.3844720  13.0599050  66.5162650  75.7409490  13.5475150
  61.3834190  70.1749080   6.4255650  61.6806520  71.0811910   6.3447670
  61.9319750  69.6867860   5.8115220  59.1372510  74.7535320   2.2947300
  58.9113430  74.5372490   3.1993920  58.3565040  75.1863780   1.9493270
  61.5771720  75.6520900  12.9607570  61.4815320  74.7115630  12.8107970
  62.4203700  75.8735970  12.5655640  64.9735140  73.3962230   2.9241230
  65.3664710  73.7134430   2.1109920  65.3351990  72.5174110   3.0385750
  56.7082260  72.0634570  11.1141350  56.3145650  72.9109780  11.3214130
  56.0200660  71.4260940  11.3049990  63.2827310  72.1469540  14.1838090
  62.5925630  71.9541740  14.8184180  64.0259610  72.4304180  14.7162390
  54.0099310  69.9863030   5.1471430  53.7212360  70.5565890   5.8596410
  54.7545070  69.5067480   5.5102660  65.5590280  75.9867980   7.0192010
  64.8271400  76.4954790   7.3682110  65.1614620  75.1697960   6.7180790
  61.9967670  72.6622180   5.4244500  62.0003730  72.2212130   4.5749040
  62.8918790  72.9839510   5.5316320  57.8470050  72.5448670   4.3838710
  57.5070100  73.0223900   5.1405760  57.0847370  72.0913790   4.0239810
  66.0216190  71.4401660   6.4314950  66.0388930  71.8910310   7.2756800
  65.7731770  70.5407300   6.6448390  69.4486940  68.8533840  12.2701330
  69.7732710  68.1223500  12.7959310  69.4843450  68.5347480  11.3682320
  56.1478500  79.8747420  11.6901290  55.7633290  79.2341090  12.2884250
  56.4590690  80.5783540  12.2596020  62.2975640  76.7223960   7.1709910
  62.6645770  76.2482530   7.9171250  62.1080700  77.5965530   7.5118250
  55.1616130  71.4667650   3.3003380  54.8763050  71.1023320   4.1382000
  55.0994990  70.7348110   2.6866520  60.0875010  75.7632600   9.4894120
  59.7832080  76.6424580   9.7144480  61.0421470  75.8232390   9.5251560
  69.3744780  78.9658950   5.8787360  70.0943900  79.4614240   5.4883470
  69.1726600  78.2876840   5.2341230  64.7563580  79.0368010  11.7656360
  64.6900890  78.1163680  11.5113950  64.1268720  79.1343450  12.4801000
  58.6594200  79.6373970   3.7239780  59.1772870  78.8342230   3.6696670
  58.2078220  79.5753110   4.5656610  56.1438740  76.6035340  10.6365480
  55.7853680  77.2689190  11.2238820  55.8493300  75.7718890  11.0078100
  59.3451860  77.0619580  13.5205030  59.0452000  77.2076760  12.6232850
  60.1163100  76.5024870  13.4278420  64.6880310  81.8588580  11.5160160
  64.7024850  80.9269540  11.2979070  63.9805410  81.9448340  12.1549930
  70.8991520  78.4995920  10.8628740  70.1739710  79.0924700  10.6658130
  71.4266980  78.4919460  10.0642110  66.4291110  80.2256090   4.3612590
  66.7814930  79.6284220   3.7013960  65.5453440  79.9000320   4.5320840
  62.5154390  80.9853780   1.7683000  63.2025520  81.5322990   2.1490590
  61.7286810  81.5294510   1.8032610  64.1214210  83.5006150   8.6100660
  64.7656430  83.7065530   9.2874080  64.4843650  82.7394550   8.1571510
  65.3946290  81.5038500   7.3278110  66.0368520  80.8031660   7.4410280
  65.9195640  82.2836940   7.1475000  67.1683910  82.3033400  10.5314170
  67.5040150  82.8900090  11.2092090  66.2484250  82.1726110  10.7611960
  54.7187310  70.0928580  11.3137580  54.0045830  70.2925500  11.9190190
  55.1382350  69.3168150  11.6852380  55.0059900  84.0808840  12.3004110
  55.1151020  83.1403580  12.1599500  54.3540460  84.3463590  11.6517840
  62.9972490  82.3524730  13.7002230  62.6769360  81.6333970  14.2447920
  62.3230850  83.0279800  13.7738290  66.2126090  72.5850890   9.0639030
  66.5806910  71.7646100   9.3918600  65.3524290  72.6452780   9.4794680
  63.1728080  75.2390480   9.2877000  63.6713330  75.7136300   9.9528850
  63.3151030  74.3154000   9.4947030  65.5787580  70.5444440   2.7280260
  65.4555360  70.5630570   1.7789770  66.5272140  70.5923380   2.8478660
  70.3794940  71.4558440  10.1305390  69.8768540  72.1963840  10.4699200
  71.1951600  71.8442440   9.8142180  68.6716950  76.6991620   3.5766750
  67.7307090  76.7141850   3.7514440  68.9861020  75.9127580   4.0227050
  70.6742530  83.8700470   5.2521010  70.7989950  84.6931640   5.7244820
  71.5408090  83.6591200   4.9045160  58.1460060  85.9631680   4.9238140
  58.8822540  85.4147140   5.1946710  58.5300980  86.8287690   4.7844130
  57.1518340  85.1477750  14.1123720  57.9531070  85.4689800  14.5259120
  56.6370160  84.7873330  14.8343630  65.9882970  81.2557620  14.0599130
  65.3821130  81.2789220  13.3194880  65.6837080  80.5240660  14.5966380
  67.4183340  84.9837910  12.6708540  68.3705090  84.8995930  12.6208780
  67.2711560  85.6479620  13.3442330  54.8716150  77.6351210  13.0559770
  55.3755170  77.0558490  13.6276000  54.1323570  77.9191440  13.5936140
  61.9254090  79.0422200  12.5895290  61.1599760  79.6107200  12.5049960
  62.1070050  78.7498410  11.6963520  69.0677440  80.7727530  13.1470310
  69.8086910  81.1103290  12.6437770  68.3050120  80.9419590  12.5940080
  56.9039230  75.7780800  13.9509840  56.9444570  75.4794670  14.8595070
  57.7584730  76.1788410  13.7917360  58.8445040  74.3572900  11.9184330
  58.3141500  73.8663850  11.2907670  59.5133110  74.7857100  11.3842260
  67.7423100  78.8242360  11.6825520  68.1564120  78.9787440  12.5315940
  66.8074100  78.9497580  11.8451300  68.2145270  76.1638520  13.6864670
  68.7966040  75.4090840  13.5985150  68.3907040  76.6945960  12.9096150
  59.3317340  71.3235270  11.9981620  59.2374210  70.7056020  11.2732490
  58.7514730  72.0501560  11.7711530  62.0978780  69.8808510   9.0309010
  61.6496080  69.9032770   8.1854560  61.4643980  69.4827530   9.6279310
  62.5038330  78.7762840   9.6521450  62.9226440  79.6195570   9.4797690
  61.5846960  78.9134880   9.4228230  64.8402230  76.5079020  11.0359290
  64.9598440  75.9120160  11.7754130  65.6996230  76.5448710  10.6160590
  67.1790130  77.0616210   9.6121800  66.6525350  77.5858830   9.0086940
  67.5221470  77.6943600  10.2431530  60.3545750  85.0815850  10.7679180
  59.8166840  85.8061910  10.4487880  60.6079710  84.6046190   9.9776520
  61.6071000  73.0500370  12.2935110  62.1970690  72.7416220  12.9812930
  60.7891240  72.5780120  12.4495010  66.4264430  72.6666180  12.5268130
  65.7379950  72.0047720  12.4618120  67.1470450  72.2204450  12.9716590
  63.2107960  86.3167060  11.0265830  63.1366660  87.2202200  11.3338200
  62.3086800  85.9978960  10.9987900  54.6135250  83.6441650   4.3299450
  54.9438260  82.7762710   4.0978090  55.0426250  83.8500170   5.1604410
  55.1025460  84.5112240   7.0681080  54.6656450  84.6913040   7.9005230
  55.6703140  85.2686860   6.9262800  70.7387640  84.0129240  11.3558390
  70.1389630  84.0721800  10.6122310  70.8681540  83.0734220  11.4855240
  54.9349890  77.0232470   3.4269960  54.2798730  76.7544110   2.7829660
  55.7727840  76.9136950   2.9771940  72.4405520  79.3544640   4.0404230
  72.8114350  78.5711960   3.6340200  73.0807450  80.0433740   3.8621530
  69.4239280  80.7381220   9.4534550  68.6099120  81.1678380   9.7160340
  69.8313480  81.3499630   8.8403600  55.9725820  77.4085040   7.9673300
  56.3398860  77.3212440   8.8469320  55.4036640  76.6451590   7.8680160
  70.7729680  75.8769420  10.9803770  70.5415770  75.6482170  10.0801720
  71.0334230  76.7968970  10.9348660  55.5241820  74.3194130  11.8731720
  54.6297870  74.2860890  12.2125430  56.0639370  74.5180920  12.6382970
  69.2117750  71.1025850  13.7583470  70.0887930  71.1109250  14.1417470
  69.2238590  70.3656690  13.1475820  70.6581020  74.9555390   4.6471490
  71.1818500  74.4618040   4.0161660  71.2440440  75.0905750   5.3919060
  70.8370740  75.0395260   8.1691040  69.8873450  75.0058800   8.2836030
  71.0183750  75.9495370   7.9340810  56.0281530  68.5942460   6.2214940
  56.6757720  68.0439840   5.7810100  56.4483370  68.8485610   7.0430750
  71.5768150  72.8489690   3.1201580  71.4667430  72.6945730   4.0583850
  72.3375740  72.3210630   2.8776990  69.9233870  68.7883820   9.5784580
  70.5606090  69.4017960   9.9443770  70.0708760  68.8244480   8.6333810
  69.4815330  85.4899820   2.9802820  70.0774400  85.1684390   2.3037240
  69.7393480  85.0171640   3.7716090  55.7813530  68.7498130   8.9640260
  55.4328350  69.2061950   9.7298440  55.4501230  67.8555260   9.0462690
  57.3877900  81.9217730  13.1293450  57.3447530  81.5510640  14.0107910
  57.5188910  82.8595300  13.2695270  61.0883930  83.4777320   8.7303170
  60.8475290  83.7451880   7.8433690  62.0286570  83.6483050   8.7854030
  63.2938350  69.9410010  12.4859680  63.2327240  70.5331840  13.2355090
  64.2338730  69.8335970  12.3409940  65.9312910  69.5980070  12.1251970
  66.5453320  69.9159360  11.4633050  66.4762470  69.1128660  12.7447830
  72.3488090  85.4971700   9.5313810  71.8546370  85.8940570   8.8140940
  71.7401380  84.8720910   9.9251090  56.4534170  68.2774330  12.2391030
  57.0017160  68.0962380  11.4757140  56.5189480  67.4868440  12.7747340
  57.2265930  84.8679980  10.2491230  56.6326250  84.7364680  10.9881270
  57.2189770  84.0318120   9.7833330  66.6720950  68.1612210   8.4521260
  65.7980790  68.4947320   8.2494190  66.5631700  67.6885390   9.2773130
  67.5792930  70.3683080   9.8362980  67.2506290  69.5534840   9.4564710
  68.5275230  70.3252890   9.7128670  70.0327540  86.1395120   6.8100550
  69.5730510  86.8910930   6.4358570  69.4040000  85.4201590   6.7515350
  56.8578160  82.2338360   9.1999270  56.1312220  81.6143650   9.1325220
  56.9187310  82.6278970   8.3297350  60.4623260  84.4483360   5.9848680
  60.9788280  83.8370720   5.4596940  61.1120640  84.9512140   6.4759690
  63.2018760  85.3391850   6.8117660  63.4896570  85.0846150   5.9350670
  63.7141980  84.7869210   7.4023230  64.4195770  69.0782050   7.3914170
  63.6367560  69.5527550   7.6710930  64.1258700  68.1736880   7.2827350
  68.9716840  69.7805150   5.4363260  69.4124930  69.7250250   4.5884860
  68.7024430  70.6963160   5.5073440  70.8355410  69.4120390   3.4472080
  70.7743810  68.4681610   3.3003100  71.6147440  69.5200480   3.9925540
  55.1408160  85.5512750   2.4096030  54.9730200  84.9183430   3.1077920
  54.2742670  85.7572150   2.0590220  62.3049990  71.4968800   2.9030200
  61.4924500  71.1225690   2.5626080  62.8091630  70.7413880   3.2051390
  66.8074970  68.1611250   4.1413270  67.4104340  68.7331460   4.6161790
  66.0667960  68.7250690   3.9187170  63.2691120  86.2607950  14.1785860
  64.1958430  86.0252220  14.2221820  63.2541550  87.0879950  13.6971890
  60.4554730  68.9252700  13.9427740  60.1739000  69.4286300  13.1788560
  60.8374430  68.1274450  13.5769870  67.0570190  68.3406280  14.5208210
  66.9435640  68.6600890  15.4159730  67.8739930  68.7418790  14.2245490
  69.8368680  85.4877810  14.0026900  70.6294000  84.9927040  13.7952860
  70.1301830  86.1667950  14.6102510  65.9628340  57.5855260  97.5303890
  65.8822390  56.6709870  97.2595600  65.5492760  58.0822330  96.8243600
  64.0946380  59.3634280  99.4113160  63.3188480  58.8834720  99.7011730
  64.7459310  58.6839930  99.2369320  58.1112210  59.6754090 100.2888920
  57.2797090  59.4202800 100.6885430  58.7193190  59.7464860 101.0246840
  68.1153810  63.7694470  98.1912290  67.6535340  62.9981710  98.5199460
  68.9279360  63.7960540  98.6964740  58.0913470  63.7094180 100.4846940
  58.3941510  62.8191920 100.3057160  58.8357060  64.2664400 100.2569190
  56.5204160  54.6355980  94.0731310  55.6320860  54.9771950  93.9711190
  56.8045350  54.4356300  93.1812140  54.4837170  57.2361630  99.9571010
  55.0553280  56.4683830  99.9574650  54.4838710  57.5350390  99.0477620
  64.3417120  66.0552480  97.8116280  63.7228560  66.5109980  97.2410720
  65.1968900  66.2103940  97.4105980  63.5355370  62.0391470  99.4183320
  63.4663650  61.0981410  99.2572450  64.2975230  62.1292880  99.9905890
  55.7262040  52.6445990 101.7439940  55.5464880  51.7471740 102.0242700
  55.3242120  53.1917860 102.4186890  64.5660540  54.8461850  99.6452250
  64.9425360  53.9733730  99.5325920  64.4680050  55.1820550  98.7542690
  58.6965550  53.2187480  95.1069690  58.8032300  54.1191210  95.4138450
  57.7857910  53.1705450  94.8164340  68.3484660  52.3412290  96.5780590
  69.1694280  51.8508860  96.6206070  68.3818740  52.9309950  97.3312430
  56.3448710  55.1406490 100.3522280  57.0258820  55.4044860 100.9709680
  56.0296760  54.3007360 100.6860290  60.5373280  56.1873850  99.4394870
  61.0451500  56.6854820 100.0799890  61.0686520  55.4109050  99.2634230
  65.2080470  60.9391720  95.2048190  64.5897740  61.4041170  94.6410910
  65.7203720  61.6319200  95.6217700  60.0712230  60.4667590 101.8831790
  59.7381610  61.0936510 102.5252860  60.2478910  60.9929470 101.1033460
  68.5846140  54.2812670  99.3508130  67.8801710  54.5697560  99.9311240
  68.9458300  55.0912780  98.9907690  58.5024710  52.5382370 101.7128740
  58.8441520  53.3824420 101.4182610  57.5640520  52.6866110 101.8294080
  54.5763670  61.6248250  92.5787820  54.1991650  62.1135350  91.8472720
  54.8336740  62.2973530  93.2094350  70.2008920  63.8987800 101.6135610
  69.5172440  64.5686910 101.6052280  70.7403210  64.0968450 100.8480470
  71.6533060  53.7267460  99.7417340  70.7057970  53.7606440  99.8732770
  71.9783050  54.5406410 100.1266700  62.1852600  50.0264640  98.0373330
  62.4927580  49.4711530  97.3208830  61.2553300  50.1609100  97.8546320
  67.7367660  65.7431930 100.3280790  67.7494820  65.3394220  99.4603050
  67.1842880  66.5179220 100.2242220  69.0313080  62.4648150  95.4170960
  68.9209410  61.5222480  95.5420380  69.0281330  62.8263790  96.3033720
  67.1353100  60.6461770 101.6563400  67.5521890  60.4321880 100.8216860
  67.8592920  60.9034560 102.2272020  64.5733360  58.0913470  94.7733450
  63.6462640  58.0250850  95.0021920  64.7258180  59.0293600  94.6588690
  64.5602440  54.3630470  91.7700610  63.6206110  54.5244430  91.8553070
  64.8785700  55.0816150  91.2236600  71.0815200  59.0448990 101.7479640
  70.2533830  59.1142080 101.2729770  71.6765680  59.6303300 101.2795470
  68.6030650  59.6533770  95.2768700  67.9843070  59.3153320  94.6295000
  68.5855100  59.0093530  95.9847890  60.1790000  58.6178210  97.5553180
  59.7747000  57.9055460  97.0599080  60.2653120  58.2731450  98.4441220
  60.6471700  62.3045770  99.7192390  60.3499990  61.6991240  99.0400170
  61.5971520  62.3423080  99.6081750  58.8918620  55.3921420 101.3352220
  59.4433210  55.5016760 100.5605470  59.4062130  55.7659020 102.0507450
  66.7795350  58.8920580  92.2841450  67.2188630  58.0543010  92.1379270
  67.4923770  59.5249980  92.3705590  64.8890730  63.8316650  96.2522690
  65.3286640  64.5740980  95.8378080  64.8277620  64.0743220  97.1761650
  70.3612490  50.1463390  90.5982490  70.0485150  50.2390220  91.4981560
  71.1224960  50.7244420  90.5479920  56.8794630  57.5123190  95.0559830
  56.7592230  58.2385280  94.4441100  56.5695520  56.7426100  94.5787740
  54.5180000  60.6838330 100.8628470  54.5960420  60.8187100  99.9184190
  55.1321680  59.9754220 101.0556590  55.7627630  62.3838520  97.2734650
  55.3555710  62.5253110  96.4188250  56.6540640  62.0998680  97.0705860
  67.5560910  66.8185770  93.6085700  67.3962050  66.5288710  94.5067530
  67.3907620  66.0425900  93.0730930  60.0349290  66.5984300  95.3857320
  59.8591770  65.6819840  95.1725120  59.1805030  66.9571590  95.6255120
  67.2587040  64.3273330  92.1683700  66.5652200  64.3250620  91.5085980
  68.0009900  63.9032650  91.7377870  66.8236970  65.9536040  96.2432190
  67.2793920  65.1725420  96.5570810  67.1629490  66.6642860  96.7873370
  59.3458290  50.8558260  98.4383500  58.9026440  51.6367800  98.1068020
  59.9043280  51.1788150  99.1454440  62.4617110  50.4768960  93.3189330
  61.8371290  50.4728830  94.0442640  62.3747230  49.6099920  92.9225300
  61.3834190  51.4005590 100.2973100  61.6806520  52.3068420 100.2165120
  61.9319750  50.9124370  99.6832670  59.1372510  55.9791830  96.1664750
  58.9113430  55.7629000  97.0711370  58.3565040  56.4120290  95.8210720
  66.3670270  55.9855200  94.7655400  65.7679160  56.7091000  94.5819020
  66.9149880  55.9231980  93.9831850  64.9735140  54.6218740  96.7958680
  65.3664710  54.9390940  95.9827370  65.3351990  53.7430620  96.9103200
  54.0099310  51.2119540  99.0188880  53.7212360  51.7822400  99.7313860
  54.7545070  50.7323990  99.3820110  54.1969540  55.1539660  90.2291600
  54.1144210  56.0970420  90.3706590  53.8452600  55.0114570  89.3503950
  65.5590280  57.2124490 100.8909460  64.8271400  57.7211300 101.2399560
  65.1614620  56.3954470 100.5898240  61.9967670  53.8878690  99.2961950
  62.0003730  53.4468640  98.4466490  62.8918790  54.2096020  99.4033770
  57.8470050  53.7705180  98.2556160  57.5070100  54.2480410  99.0123210
  57.0847370  53.3170300  97.8957260  62.0587820  54.8890770  92.2868710
  62.1800640  54.8477250  93.2354530  61.6736330  55.7514920  92.1315440
  66.0216190  52.6658170 100.3032400  66.0388930  53.1166820 101.1474250
  65.7731770  51.7663810 100.5165840  61.0709320  57.1991910  91.6852010
  60.5026220  56.7510160  91.0587920  61.7798320  57.5584690  91.1517160
  62.2975640  57.9480470 101.0427360  62.6645770  57.4739040 101.7888700
  62.1080700  58.8222040 101.3835700  55.1616130  52.6924160  97.1720830
  54.8763050  52.3279830  98.0099450  55.0994990  51.9604620  96.5583970
  58.6156800  61.1950100  93.9578420  57.8419060  60.6547720  93.7977140
  59.3451430  60.6756710  93.6196180  69.3744780  60.1915460  99.7504810
  70.0943900  60.6870750  99.3600920  69.1726600  59.5133350  99.1058680
  64.8354720  51.5853420  93.8934200  64.0219330  51.0866590  93.8179510
  64.6416670  52.4251670  93.4770550  67.5503110  55.9573070  92.1896360
  68.4382730  56.2690300  92.0147700  67.5208200  55.0845320  91.7976940
  58.6594200  60.8630480  97.5957230  59.1772870  60.0598740  97.5414120
  58.2078220  60.8009620  98.4374060  63.5463700  62.1296760  92.8684530
  63.8879400  62.8738990  92.3727850  62.7176410  62.4427880  93.2309360
  69.8217380  57.2684910  91.6576220  69.7381100  57.6999130  90.8072660
  70.5411570  57.7283260  92.0903040  70.8504630  64.1227170  94.3858350
  70.2080790  63.4682790  94.6602070  70.4635290  64.5282260  93.6099020
  66.4291110  61.4512600  98.2330040  66.7814930  60.8540730  97.5731410
  65.5453440  61.1256830  98.4038290  62.5154390  62.2110290  95.6400450
  63.2025520  62.7579500  96.0208040  61.7286810  62.7551020  95.6750060
  54.6546790  57.8283110  91.1317530  55.5241640  58.1107910  91.4153450
  54.1637110  58.6418980  91.0166340  61.8181600  59.2156320  95.2525810
  62.2744380  60.0261570  95.4786000  61.4669810  58.8979460  96.0844300
  57.7193380  49.5593970  95.7248330  57.5908010  49.5511870  96.6733250
  56.8955400  49.8977060  95.3739340  65.3946290  62.7295010 101.1995560
  66.0368520  62.0288170 101.3127730  65.9195640  63.5093450 101.0192450
  69.2402010  63.0143630  90.9234700  69.0139590  62.2974070  91.5159340
  68.8498210  62.7656070  90.0856450  55.0218040  67.0410490  91.6979160
  55.3815680  67.6399830  91.0436430  54.8810380  67.5870380  92.4714190
  68.8218260  60.9315570  92.5848860  68.5339960  61.3928260  93.3726740
  69.6170430  60.4713340  92.8533080  61.0386660  64.4241690  92.5152830
  61.0296760  65.1571380  91.8997340  60.1185020  64.1773270  92.6079790
  56.6393300  59.6456580  93.2599590  56.0321250  60.3855480  93.2694890
  57.1142650  59.7355940  92.4337790  69.5788120  52.7664340  93.7444040
  68.9501280  52.8710010  93.0302270  69.0840040  52.9861120  94.5337920
  64.0246260  64.4869930  91.1778020  64.1258240  64.2833920  90.2480000
  63.1248000  64.2328210  91.3825800  61.5472150  55.0450290  95.1601920
  60.8388300  55.5136630  95.6015530  61.8316630  54.3872300  95.7947110
  65.5787580  51.7700950  96.5997710  65.4555360  51.7887080  95.6507220
  66.5272140  51.8179890  96.7196110  62.6664370  67.0056250  95.8725690
  62.9205870  66.9677640  94.9505060  61.7176850  66.8789580  95.8653940
  59.7507170  53.3535370  92.5352630  60.5997700  53.7905520  92.4692820
  59.3838440  53.6655630  93.3624690  68.6716950  57.9248130  97.4484200
  67.7307090  57.9398360  97.6231890  68.9861020  57.1384090  97.8944500
  58.6498590  59.6067730  91.0088160  59.4161860  59.4949090  91.5713590
  58.7273280  58.9105700  90.3564930  57.3445350  57.0392800  91.6921050
  57.4248940  56.0920310  91.8038450  58.2365100  57.3699680  91.7981710
  70.6742530  65.0956980  99.1238460  70.7989950  65.9188150  99.5962270
  71.5408090  64.8847710  98.7762610  58.1460060  67.1888190  98.7955590
  58.8822540  66.6403650  99.0664160  58.5300980  68.0544200  98.6561580
  55.0305540  63.2561760  94.6697100  54.1045320  63.4982900  94.6602510
  55.4961970  64.0836020  94.5481850  61.2562370  66.3618500  90.6181160
  62.0490980  66.6507330  90.1662950  60.7366720  65.9310670  89.9393640
  70.3092540  65.5888630  92.0417900  70.0234050  65.1753770  91.2272080
  70.1112090  66.5176340  91.9218420  61.7739770  61.5821910  90.4823510
  61.6690410  60.9674260  91.2084890  61.6063990  61.0587800  89.6986520
  65.0142500  60.6441940  91.0865500  64.4652600  61.0911240  91.7308240
  65.6361760  60.1391190  91.6103170  60.6817620  59.6032860  92.9830800
  61.1034040  59.4372730  93.8262190  60.8068460  58.7933090  92.4885940
  63.1945260  58.6270470  90.2307900  63.7150920  57.9119490  89.8649050
  63.8413660  59.2656340  90.5308410  59.5776520  55.6766090  89.9288960
  59.3765580  54.8133450  90.2902300  59.4068570  55.5899450  88.9910560
  67.0564830  50.4874320  92.4575840  67.3367120  49.6442220  92.8135260
  66.2830560  50.7197430  92.9714590  58.3759320  52.7766710  89.9166840
  58.6785220  52.7834140  89.0085990  59.1153910  52.4264570  90.4134500
  61.5944250  51.7201330  90.9023040  61.2466250  51.0425320  90.3225490
  61.7957020  51.2590840  91.7166430  63.7593290  66.7082080  92.5209640
  64.6544080  67.0467050  92.5428400  63.7910920  65.9861490  91.8933920
  57.3989450  62.0809130  90.7496640  57.8364320  62.6238800  91.4054220
  57.8837180  61.2556080  90.7592980  54.6135250  64.8698160  98.2016900
  54.9438260  64.0019220  97.9695540  55.0426250  65.0756680  99.0321860
  59.2097170  63.2007170  95.8618870  58.9092710  63.0772140  96.7622780
  59.1034660  62.3415760  95.4534600  55.1025460  65.7368750 100.9398530
  54.6656450  65.9169550 101.7722680  55.6703140  66.4943370 100.7980250
  71.9789090  62.9803570  90.5645550  71.1482050  63.0480220  91.0352780
  72.1560920  63.8707690  90.2612410  71.4345550  59.7251050  93.0679750
  72.1964460  60.2947700  93.1739440  71.4499920  59.1578250  93.8388060
  54.9349890  58.2488980  97.2987410  54.2798730  57.9800620  96.6547110
  55.7727840  58.1393460  96.8489390  72.4405520  60.5801150  97.9121680
  72.8114350  59.7968470  97.5057650  73.0807450  61.2690250  97.7338980
  71.4864720  60.0185420  90.2252270  71.7613560  60.9264300  90.0971490
  71.2975460  59.9547950  91.1614260  67.8840330  53.0430270  91.5205900
  68.3025210  52.8561250  90.6802560  67.5776390  52.1909320  91.8308830
  71.3830060  57.9554410  95.2181700  71.0073660  57.1882340  94.7862990
  70.6533180  58.3377110  95.7056630  55.9725820  58.6341550 101.8390750
  56.3398860  58.5468950 102.7186770  55.4036640  57.8708100 101.7397610
  54.1487970  55.4587910  93.2412740  53.2452050  55.7218110  93.0664400
  54.6328590  55.7299080  92.4612700  70.6581020  56.1811900  98.5188940
  71.1818500  55.6874550  97.8879110  71.2440440  56.3162260  99.2636510
  70.8370740  56.2651770 102.0408490  69.8873450  56.2315310 102.1553480
  71.0183750  57.1751880 101.8058260  56.6915180  54.5153450  91.1507120
  57.4006880  54.0936670  90.6654400  55.9755120  54.5828680  90.5190470
  56.3389340  50.5692780  90.1909770  57.0617470  51.1101720  90.5090990
  56.6113860  50.2956200  89.3151310  70.1480990  55.4385250  94.4581350
  70.6440110  55.2056120  95.2430230  69.9497060  54.5997090  94.0418990
  56.0281530  49.8198970 100.0932390  56.6757720  49.2696350  99.6527550
  56.4483370  50.0742120 100.9148200  71.5768150  54.0746200  96.9919030
  71.4667430  53.9202240  97.9301300  72.3375740  53.5467140  96.7494440
  72.4658420  51.9054120  90.2325170  73.3907730  51.7735300  90.0243460
  72.4434210  51.9846940  91.1861620  72.5396910  52.6764780  92.8581880
  71.7448410  52.6109900  93.3874790  72.7440190  53.6115420  92.8467230
  69.4815330  66.7156330  96.8520270  70.0774400  66.3940900  96.1754690
  69.7393480  66.2428150  97.6433540  61.0883930  64.7033830 102.6020620
  60.8475290  64.9708390 101.7151140  62.0286570  64.8739560 102.6571480
  70.0327540  67.3651630 100.6818000  69.5730510  68.1167440 100.3076020
  69.4040000  66.6458100 100.6232800  60.4623260  65.6739870  99.8566130
  60.9788280  65.0627230  99.3314390  61.1120640  66.1768650 100.3477140
  63.2018760  66.5648360 100.6835110  63.4896570  66.3102660  99.8068120
  63.7141980  66.0125720 101.2740680  64.4195770  50.3038560 101.2631620
  63.6367560  50.7784060 101.5428380  64.1258700  49.3993390 101.1544800
  68.9716840  51.0061660  99.3080710  69.4124930  50.9506760  98.4602310
  68.7024430  51.9219670  99.3790890  70.8355410  50.6376900  97.3189530
  70.7743810  49.6938120  97.1720550  71.6147440  50.7456990  97.8642990
  55.1408160  66.7769260  96.2813480  54.9730200  66.1439940  96.9795370
  54.2742670  66.9828660  95.9307670  55.7636180  50.6086040  93.7845340
  56.5215540  50.7214920  93.2109370  55.3013350  51.4455240  93.7388770
  62.3049990  52.7225310  96.7747650  61.4924500  52.3482200  96.4343530
  62.8091630  51.9670390  97.0768840  66.8074970  49.3867760  98.0130720
  67.4104340  49.9587970  98.4879240  66.0667960  49.9507200  97.7904620
  69.9509570  49.7889320  93.2871000  70.1460200  50.6872770  93.5538430
  69.1639440  49.5576400  93.7803950  56.7470860  65.4702490  93.7263620
  56.2218480  65.8510520  93.0225580  56.6715440  66.0953260  94.4473330
  58.1361330  51.1350090  92.3247310  58.6654090  50.3479890  92.1955260
  58.7689650  51.8141280  92.5582840  60.3299170  50.8725230  95.3792700
  59.7001910  50.1712540  95.5462830  59.7904310  51.6329360  95.1625860
  71.5036180  67.0290030  95.0477560  71.6788370  66.3427770  94.4038480
  70.8057750  67.5537080  94.6554230  59.3463830  67.4184870  92.6012870
  60.0782650  67.1344150  92.0536760  59.6057500  67.1798150  93.4912250
  58.5078620  63.5349600  92.6059200  57.8787500  64.0034700  93.1545030
  58.6226450  62.6898820  93.0405390  65.9628340  57.5855260  78.7560400
  65.8822390  56.6709870  78.4852110  65.5492760  58.0822330  78.0500110
  64.0946380  59.3634280  80.6369670  63.3188480  58.8834720  80.9268240
  64.7459310  58.6839930  80.4625830  58.1112210  59.6754090  81.5145430
  57.2797090  59.4202800  81.9141940  58.7193190  59.7464860  82.2503350
  68.1153810  63.7694470  79.4168800  67.6535340  62.9981710  79.7455970
  68.9279360  63.7960540  79.9221250  58.0913470  63.7094180  81.7103450
  58.3941510  62.8191920  81.5313670  58.8357060  64.2664400  81.4825700
  56.5204160  54.6355980  75.2987820  55.6320860  54.9771950  75.1967700
  56.8045350  54.4356300  74.4068650  54.4837170  57.2361630  81.1827520
  55.0553280  56.4683830  81.1831160  54.4838710  57.5350390  80.2734130
  64.3417120  66.0552480  79.0372790  63.7228560  66.5109980  78.4667230
  65.1968900  66.2103940  78.6362490  63.5355370  62.0391470  80.6439830
  63.4663650  61.0981410  80.4828960  64.2975230  62.1292880  81.2162400
  55.7262040  52.6445990  82.9696450  55.5464880  51.7471740  83.2499210
  55.3242120  53.1917860  83.6443400  64.5660540  54.8461850  80.8708760
  64.9425360  53.9733730  80.7582430  64.4680050  55.1820550  79.9799200
  58.6965550  53.2187480  76.3326200  58.8032300  54.1191210  76.6394960
  57.7857910  53.1705450  76.0420850  68.3484660  52.3412290  77.8037100
  69.1694280  51.8508860  77.8462580  68.3818740  52.9309950  78.5568940
  56.3448710  55.1406490  81.5778790  57.0258820  55.4044860  82.1966190
  56.0296760  54.3007360  81.9116800  60.5373280  56.1873850  80.6651380
  61.0451500  56.6854820  81.3056400  61.0686520  55.4109050  80.4890740
  72.6384210  54.3579040  84.3680730  71.9336380  54.7460750  83.8495840
  72.9042130  55.0529330  84.9701660  58.8209380  50.8272410  84.9314800
  58.8227820  51.3444800  84.1260700  57.9913690  50.3502590  84.9084730
  65.2080470  60.9391720  76.4304700  64.5897740  61.4041170  75.8667420
  65.7203720  61.6319200  76.8474210  60.0712230  60.4667590  83.1088300
  59.7381610  61.0936510  83.7509370  60.2478910  60.9929470  82.3289970
  68.5846140  54.2812670  80.5764640  67.8801710  54.5697560  81.1567750
  68.9458300  55.0912780  80.2164200  58.5024710  52.5382370  82.9385250
  58.8441520  53.3824420  82.6439120  57.5640520  52.6866110  83.0550590
  59.2831330  62.4348390  84.9237480  59.9005330  63.1099470  84.6421930
  58.4224450  62.8436370  84.8324980  54.5763670  61.6248250  73.8044330
  54.1991650  62.1135350  73.0729230  54.8336740  62.2973530  74.4350860
  70.2008920  63.8987800  82.8392120  69.5172440  64.5686910  82.8308790
  70.7403210  64.0968450  82.0736980  71.6533060  53.7267460  80.9673850
  70.7057970  53.7606440  81.0989280  71.9783050  54.5406410  81.3523210
  62.1852600  50.0264640  79.2629840  62.4927580  49.4711530  78.5465340
  61.2553300  50.1609100  79.0802830  67.7367660  65.7431930  81.5537300
  67.7494820  65.3394220  80.6859560  67.1842880  66.5179220  81.4498730
  69.0313080  62.4648150  76.6427470  68.9209410  61.5222480  76.7676890
  69.0281330  62.8263790  77.5290230  67.1353100  60.6461770  82.8819910
  67.5521890  60.4321880  82.0473370  67.8592920  60.9034560  83.4528530
  64.5733360  58.0913470  75.9989960  63.6462640  58.0250850  76.2278430
  64.7258180  59.0293600  75.8845200  64.5602440  54.3630470  72.9957120
  63.6206110  54.5244430  73.0809580  64.8785700  55.0816150  72.4493110
  71.0815200  59.0448990  82.9736150  70.2533830  59.1142080  82.4986280
  71.6765680  59.6303300  82.5051980  68.6030650  59.6533770  76.5025210
  67.9843070  59.3153320  75.8551510  68.5855100  59.0093530  77.2104400
  68.0457210  55.8318310  83.9191020  67.6328390  56.6572020  84.1731010
  67.3133160  55.2463350  83.7267380  60.1790000  58.6178210  78.7809690
  59.7747000  57.9055460  78.2855590  60.2653120  58.2731450  79.6697730
  60.6471700  62.3045770  80.9448900  60.3499990  61.6991240  80.2656680
  61.5971520  62.3423080  80.8338260  58.8918620  55.3921420  82.5608730
  59.4433210  55.5016760  81.7861980  59.4062130  55.7659020  83.2763960
  68.7357310  65.8777640  84.6072000  68.2587870  66.6849830  84.4144610
  68.0519100  65.2255970  84.7598210  59.7390130  62.0427460  87.5956700
  58.8418660  62.2667430  87.8430100  59.7643000  62.1662400  86.6468100
  66.7795350  58.8920580  73.5097960  67.2188630  58.0543010  73.3635780
  67.4923770  59.5249980  73.5962100  58.5661350  58.9140780  86.1714070
  58.4269120  59.7863580  86.5401470  57.6842710  58.5713590  86.0262010
  64.8890730  63.8316650  77.4779200  65.3286640  64.5740980  77.0634590
  64.8277620  64.0743220  78.4018160  60.3641700  64.8562480  88.3799220
  60.3357130  65.2605430  87.5127650  60.2006670  63.9272840  88.2170820
  56.8794630  57.5123190  76.2816340  56.7592230  58.2385280  75.6697610
  56.5695520  56.7426100  75.8044250  72.3156520  65.6389580  89.6763390
  72.7916240  66.1172470  90.3552470  72.9363680  65.5707070  88.9508890
  54.5180000  60.6838330  82.0884980  54.5960420  60.8187100  81.1440700
  55.1321680  59.9754220  82.2813100  55.7627630  62.3838520  78.4991160
  55.3555710  62.5253110  77.6444760  56.6540640  62.0998680  78.2962370
  71.7189770  62.8302430  86.8363400  71.8452830  62.5914310  85.9180580
  71.7611150  61.9986970  87.3085480  65.5806510  66.5330430  85.4058210
  66.0951180  66.4438440  86.2080640  64.7375590  66.8790130  85.6986120
  67.5560910  66.8185770  74.8342210  67.3962050  66.5288710  75.7324040
  67.3907620  66.0425900  74.2987440  60.0349290  66.5984300  76.6113830
  59.8591770  65.6819840  76.3981630  59.1805030  66.9571590  76.8511630
  67.2587040  64.3273330  73.3940210  66.5652200  64.3250620  72.7342490
  68.0009900  63.9032650  72.9634380  66.8236970  65.9536040  77.4688700
  67.2793920  65.1725420  77.7827320  67.1629490  66.6642860  78.0129880
  71.5713780  54.8834890  87.8013140  70.9558050  55.3914560  87.2728600
  71.2510200  53.9833220  87.7439080  54.5739520  61.7252500  84.6279440
  54.7370560  61.2557860  83.8098810  55.0391970  61.2176060  85.2928280
  59.3458290  50.8558260  79.6640010  58.9026440  51.6367800  79.3324530
  59.9043280  51.1788150  80.3710950  63.6328100  53.7226780  85.2675330
  63.1707470  53.9309800  86.0795270  63.2306210  52.9086130  84.9646000
  68.6332610  54.9435730  86.3971990  67.7826200  54.6441480  86.7181060
  68.4734400  55.1877740  85.4855810  65.7282320  56.4437480  88.4970780
  66.0535730  55.6101230  88.1573010  66.5162650  56.9666000  88.6449110
  62.4617110  50.4768960  74.5445840  61.8371290  50.4728830  75.2699150
  62.3747230  49.6099920  74.1481810  61.3834190  51.4005590  81.5229610
  61.6806520  52.3068420  81.4421630  61.9319750  50.9124370  80.9089180
  59.1372510  55.9791830  77.3921260  58.9113430  55.7629000  78.2967880
  58.3565040  56.4120290  77.0467230  66.3670270  55.9855200  75.9911910
  65.7679160  56.7091000  75.8075530  66.9149880  55.9231980  75.2088360
  61.5771720  56.8777410  88.0581530  61.4815320  55.9372140  87.9081930
  62.4203700  57.0992480  87.6629600  64.9735140  54.6218740  78.0215190
  65.3664710  54.9390940  77.2083880  65.3351990  53.7430620  78.1359710
  56.7082260  53.2891080  86.2115310  56.3145650  54.1366290  86.4188090
  56.0200660  52.6517450  86.4023950  63.2827310  53.3726050  89.2812050
  62.5925630  53.1798250  89.9158140  64.0259610  53.6560690  89.8136350
  54.0099310  51.2119540  80.2445390  53.7212360  51.7822400  80.9570370
  54.7545070  50.7323990  80.6076620  54.1969540  55.1539660  71.4548110
  54.1144210  56.0970420  71.5963100  53.8452600  55.0114570  70.5760460
  65.5590280  57.2124490  82.1165970  64.8271400  57.7211300  82.4656070
  65.1614620  56.3954470  81.8154750  61.9967670  53.8878690  80.5218460
  62.0003730  53.4468640  79.6723000  62.8918790  54.2096020  80.6290280
  57.8470050  53.7705180  79.4812670  57.5070100  54.2480410  80.2379720
  57.0847370  53.3170300  79.1213770  62.0587820  54.8890770  73.5125220
  62.1800640  54.8477250  74.4611040  61.6736330  55.7514920  73.3571950
  66.0216190  52.6658170  81.5288910  66.0388930  53.1166820  82.3730760
  65.7731770  51.7663810  81.7422350  61.0709320  57.1991910  72.9108520
  60.5026220  56.7510160  72.2844430  61.7798320  57.5584690  72.3773670
  69.4486940  50.0790350  87.3675290  69.7732710  49.3480010  87.8933270
  69.4843450  49.7603990  86.4656280  56.1478500  61.1003930  86.7875250
  55.7633290  60.4597600  87.3858210  56.4590690  61.8040050  87.3569980
  62.2975640  57.9480470  82.2683870  62.6645770  57.4739040  83.0145210
  62.1080700  58.8222040  82.6092210  55.1616130  52.6924160  78.3977340
  54.8763050  52.3279830  79.2355960  55.0994990  51.9604620  77.7840480
  60.0875010  56.9889110  84.5868080  59.7832080  57.8681090  84.8118440
  61.0421470  57.0488900  84.6225520  58.6156800  61.1950100  75.1834930
  57.8419060  60.6547720  75.0233650  59.3451430  60.6756710  74.8452690
  69.3744780  60.1915460  80.9761320  70.0943900  60.6870750  80.5857430
  69.1726600  59.5133350  80.3315190  64.8354720  51.5853420  75.1190710
  64.0219330  51.0866590  75.0436020  64.6416670  52.4251670  74.7027060
  64.7563580  60.2624520  86.8630320  64.6900890  59.3420190  86.6087910
  64.1268720  60.3599960  87.5774960  67.5503110  55.9573070  73.4152870
  68.4382730  56.2690300  73.2404210  67.5208200  55.0845320  73.0233450
  58.6594200  60.8630480  78.8213740  59.1772870  60.0598740  78.7670630
  58.2078220  60.8009620  79.6630570  63.5463700  62.1296760  74.0941040
  63.8879400  62.8738990  73.5984360  62.7176410  62.4427880  74.4565870
  56.1438740  57.8291850  85.7339440  55.7853680  58.4945700  86.3212780
  55.8493300  56.9975400  86.1052060  59.3451860  58.2876090  88.6178990
  59.0452000  58.4333270  87.7206810  60.1163100  57.7281380  88.5252380
  64.6880310  63.0845090  86.6134120  64.7024850  62.1526050  86.3953030
  63.9805410  63.1704850  87.2523890  69.8217380  57.2684910  72.8832730
  69.7381100  57.6999130  72.0329170  70.5411570  57.7283260  73.3159550
  70.8991520  59.7252430  85.9602700  70.1739710  60.3181210  85.7632090
  71.4266980  59.7175970  85.1616070  70.8504630  64.1227170  75.6114860
  70.2080790  63.4682790  75.8858580  70.4635290  64.5282260  74.8355530
  66.4291110  61.4512600  79.4586550  66.7814930  60.8540730  78.7987920
  65.5453440  61.1256830  79.6294800  62.5154390  62.2110290  76.8656960
  63.2025520  62.7579500  77.2464550  61.7286810  62.7551020  76.9006570
  54.6546790  57.8283110  72.3574040  55.5241640  58.1107910  72.6409960
  54.1637110  58.6418980  72.2422850  61.8181600  59.2156320  76.4782320
  62.2744380  60.0261570  76.7042510  61.4669810  58.8979460  77.3100810
  64.1214210  64.7262660  83.7074620  64.7656430  64.9322040  84.3848040
  64.4843650  63.9651060  83.2545470  57.7193380  49.5593970  76.9504840
  57.5908010  49.5511870  77.8989760  56.8955400  49.8977060  76.5995850
  65.3946290  62.7295010  82.4252070  66.0368520  62.0288170  82.5384240
  65.9195640  63.5093450  82.2448960  69.2402010  63.0143630  72.1491210
  69.0139590  62.2974070  72.7415850  68.8498210  62.7656070  71.3112960
  67.1683910  63.5289910  85.6288130  67.5040150  64.1156600  86.3066050
  66.2484250  63.3982620  85.8585920  55.0218040  67.0410490  72.9235670
  55.3815680  67.6399830  72.2692940  54.8810380  67.5870380  73.6970700
  54.7187310  51.3185090  86.4111540  54.0045830  51.5182010  87.0164150
  55.1382350  50.5424660  86.7826340  68.8218260  60.9315570  73.8105370
  68.5339960  61.3928260  74.5983250  69.6170430  60.4713340  74.0789590
  55.0059900  65.3065350  87.3978070  55.1151020  64.3660090  87.2573460
  54.3540460  65.5720100  86.7491800  62.9972490  63.5781240  88.7976190
  62.6769360  62.8590480  89.3421880  62.3230850  64.2536310  88.8712250
  61.0386660  64.4241690  73.7409340  61.0296760  65.1571380  73.1253850
  60.1185020  64.1773270  73.8336300  56.6393300  59.6456580  74.4856100
  56.0321250  60.3855480  74.4951400  57.1142650  59.7355940  73.6594300
  66.2126090  53.8107400  84.1612990  66.5806910  52.9902610  84.4892560
  65.3524290  53.8709290  84.5768640  69.5788120  52.7664340  74.9700550
  68.9501280  52.8710010  74.2558780  69.0840040  52.9861120  75.7594430
  64.0246260  64.4869930  72.4034530  64.1258240  64.2833920  71.4736510
  63.1248000  64.2328210  72.6082310  61.5472150  55.0450290  76.3858430
  60.8388300  55.5136630  76.8272040  61.8316630  54.3872300  77.0203620
  63.1728080  56.4646990  84.3850960  63.6713330  56.9392810  85.0502810
  63.3151030  55.5410510  84.5920990  65.5787580  51.7700950  77.8254220
  65.4555360  51.7887080  76.8763730  66.5272140  51.8179890  77.9452620
  62.6664370  67.0056250  77.0982200  62.9205870  66.9677640  76.1761570
  61.7176850  66.8789580  77.0910450  59.7507170  53.3535370  73.7609140
  60.5997700  53.7905520  73.6949330  59.3838440  53.6655630  74.5881200
  70.3794940  52.6814950  85.2279350  69.8768540  53.4220350  85.5673160
  71.1951600  53.0698950  84.9116140  68.6716950  57.9248130  78.6740710
  67.7307090  57.9398360  78.8488400  68.9861020  57.1384090  79.1201010
  58.6498590  59.6067730  72.2344670  59.4161860  59.4949090  72.7970100
  58.7273280  58.9105700  71.5821440  57.3445350  57.0392800  72.9177560
  57.4248940  56.0920310  73.0294960  58.2365100  57.3699680  73.0238220
  70.6742530  65.0956980  80.3494970  70.7989950  65.9188150  80.8218780
  71.5408090  64.8847710  80.0019120  55.0305540  63.2561760  75.8953610
  54.1045320  63.4982900  75.8859020  55.4961970  64.0836020  75.7738360
  57.1518340  66.3734260  89.2097680  57.9531070  66.6946310  89.6233080
  56.6370160  66.0129840  89.9317590  61.2562370  66.3618500  71.8437670
  62.0490980  66.6507330  71.3919460  60.7366720  65.9310670  71.1650150
  65.9882970  62.4814130  89.1573090  65.3821130  62.5045730  88.4168840
  65.6837080  61.7497170  89.6940340  67.4183340  66.2094420  87.7682500
  68.3705090  66.1252440  87.7182740  67.2711560  66.8736130  88.4416290
  70.3092540  65.5888630  73.2674410  70.0234050  65.1753770  72.4528590
  70.1112090  66.5176340  73.1474930  54.8716150  58.8607720  88.1533730
  55.3755170  58.2815000  88.7249960  54.1323570  59.1447950  88.6910100
  61.7739770  61.5821910  71.7080020  61.6690410  60.9674260  72.4341400
  61.6063990  61.0587800  70.9243030  61.9254090  60.2678710  87.6869250
  61.1599760  60.8363710  87.6023920  62.1070050  59.9754920  86.7937480
  65.0142500  60.6441940  72.3122010  64.4652600  61.0911240  72.9564750
  65.6361760  60.1391190  72.8359680  69.0677440  61.9984040  88.2444270
  69.8086910  62.3359800  87.7411730  68.3050120  62.1676100  87.6914040
  56.9039230  57.0037310  89.0483800  56.9444570  56.7051180  89.9569030
  57.7584730  57.4044920  88.8891320  60.6817620  59.6032860  74.2087310
  61.1034040  59.4372730  75.0518700  60.8068460  58.7933090  73.7142450
  58.8445040  55.5829410  87.0158290  58.3141500  55.0920360  86.3881630
  59.5133110  56.0113610  86.4816220  63.1945260  58.6270470  71.4564410
  63.7150920  57.9119490  71.0905560  63.8413660  59.2656340  71.7564920
  67.7423100  60.0498870  86.7799480  68.1564120  60.2043950  87.6289900
  66.8074100  60.1754090  86.9425260  68.2145270  57.3895030  88.7838630
  68.7966040  56.6347350  88.6959110  68.3907040  57.9202470  88.0070110
  59.3317340  52.5491780  87.0955580  59.2374210  51.9312530  86.3706450
  58.7514730  53.2758070  86.8685490  62.0978780  51.1065020  84.1282970
  61.6496080  51.1289280  83.2828520  61.4643980  50.7084040  84.7253270
  62.5038330  60.0019350  84.7495410  62.9226440  60.8452080  84.5771650
  61.5846960  60.1391390  84.5202190  64.8402230  57.7335530  86.1333250
  64.9598440  57.1376670  86.8728090  65.6996230  57.7705220  85.7134550
  67.1790130  58.2872720  84.7095760  66.6525350  58.8115340  84.1060900
  67.5221470  58.9200110  85.3405490  59.5776520  55.6766090  71.1545470
  59.3765580  54.8133450  71.5158810  59.4068570  55.5899450  70.2167070
  60.3545750  66.3072360  85.8653140  59.8166840  67.0318420  85.5461840
  60.6079710  65.8302700  85.0750480  61.6071000  54.2756880  87.3909070
  62.1970690  53.9672730  88.0786890  60.7891240  53.8036630  87.5468970
  66.4264430  53.8922690  87.6242090  65.7379950  53.2304230  87.5592080
  67.1470450  53.4460960  88.0690550  58.3759320  52.7766710  71.1423350
  58.6785220  52.7834140  70.2342500  59.1153910  52.4264570  71.6391010
  63.2107960  67.5423570  86.1239790  63.1366660  68.4458710  86.4312160
  62.3086800  67.2235470  86.0961860  61.5944250  51.7201330  72.1279550
  61.2466250  51.0425320  71.5482000  61.7957020  51.2590840  72.9422940
  63.7593290  66.7082080  73.7466150  64.6544080  67.0467050  73.7684910
  63.7910920  65.9861490  73.1190430  57.3989450  62.0809130  71.9753150
  57.8364320  62.6238800  72.6310730  57.8837180  61.2556080  71.9849490
  54.6135250  64.8698160  79.4273410  54.9438260  64.0019220  79.1952050
  55.0426250  65.0756680  80.2578370  59.2097170  63.2007170  77.0875380
  58.9092710  63.0772140  77.9879290  59.1034660  62.3415760  76.6791110
  70.7387640  65.2385750  86.4532350  70.1389630  65.2978310  85.7096270
  70.8681540  64.2990730  86.5829200  71.9789090  62.9803570  71.7902060
  71.1482050  63.0480220  72.2609290  72.1560920  63.8707690  71.4868920
  71.4345550  59.7251050  74.2936260  72.1964460  60.2947700  74.3995950
  71.4499920  59.1578250  75.0644570  54.9349890  58.2488980  78.5243920
  54.2798730  57.9800620  77.8803620  55.7727840  58.1393460  78.0745900
  72.4405520  60.5801150  79.1378190  72.8114350  59.7968470  78.7314160
  73.0807450  61.2690250  78.9595490  69.4239280  61.9637730  84.5508510
  68.6099120  62.3934890  84.8134300  69.8313480  62.5756140  83.9377560
  71.4864720  60.0185420  71.4508780  71.7613560  60.9264300  71.3228000
  71.2975460  59.9547950  72.3870770  67.8840330  53.0430270  72.7462410
  68.3025210  52.8561250  71.9059070  67.5776390  52.1909320  73.0565340
  71.3830060  57.9554410  76.4438210  71.0073660  57.1882340  76.0119500
  70.6533180  58.3377110  76.9313140  55.9725820  58.6341550  83.0647260
  56.3398860  58.5468950  83.9443280  55.4036640  57.8708100  82.9654120
  70.7729680  57.1025930  86.0777730  70.5415770  56.8738680  85.1775680
  71.0334230  58.0225480  86.0322620  55.5241820  55.5450640  86.9705680
  54.6297870  55.5117400  87.3099390  56.0639370  55.7437430  87.7356930
  69.2117750  52.3282360  88.8557430  70.0887930  52.3365760  89.2391430
  69.2238590  51.5913200  88.2449780  54.1487970  55.4587910  74.4669250
  53.2452050  55.7218110  74.2920910  54.6328590  55.7299080  73.6869210
  70.6581020  56.1811900  79.7445450  71.1818500  55.6874550  79.1135620
  71.2440440  56.3162260  80.4893020  70.8370740  56.2651770  83.2665000
  69.8873450  56.2315310  83.3809990  71.0183750  57.1751880  83.0314770
  56.6915180  54.5153450  72.3763630  57.4006880  54.0936670  71.8910910
  55.9755120  54.5828680  71.7446980  56.3389340  50.5692780  71.4166280
  57.0617470  51.1101720  71.7347500  56.6113860  50.2956200  70.5407820
  70.1480990  55.4385250  75.6837860  70.6440110  55.2056120  76.4686740
  69.9497060  54.5997090  75.2675500  56.0281530  49.8198970  81.3188900
  56.6757720  49.2696350  80.8784060  56.4483370  50.0742120  82.1404710
  71.5768150  54.0746200  78.2175540  71.4667430  53.9202240  79.1557810
  72.3375740  53.5467140  77.9750950  69.9233870  50.0140330  84.6758540
  70.5606090  50.6274470  85.0417730  70.0708760  50.0500990  83.7307770
  72.4658420  51.9054120  71.4581680  73.3907730  51.7735300  71.2499970
  72.4434210  51.9846940  72.4118130  72.5396910  52.6764780  74.0838390
  71.7448410  52.6109900  74.6131300  72.7440190  53.6115420  74.0723740
  69.4815330  66.7156330  78.0776780  70.0774400  66.3940900  77.4011200
  69.7393480  66.2428150  78.8690050  55.7813530  49.9754640  84.0614220
  55.4328350  50.4318460  84.8272400  55.4501230  49.0811770  84.1436650
  57.3877900  63.1474240  88.2267410  57.3447530  62.7767150  89.1081870
  57.5188910  64.0851810  88.3669230  61.0883930  64.7033830  83.8277130
  60.8475290  64.9708390  82.9407650  62.0286570  64.8739560  83.8827990
  63.2938350  51.1666520  87.5833640  63.2327240  51.7588350  88.3329050
  64.2338730  51.0592480  87.4383900  65.9312910  50.8236580  87.2225930
  66.5453320  51.1415870  86.5607010  66.4762470  50.3385170  87.8421790
  72.3488090  66.7228210  84.6287770  71.8546370  67.1197080  83.9114900
  71.7401380  66.0977420  85.0225050  56.4534170  49.5030840  87.3364990
  57.0017160  49.3218890  86.5731100  56.5189480  48.7124950  87.8721300
  66.6720950  49.3868720  83.5495220  65.7980790  49.7203830  83.3468150
  66.5631700  48.9141900  84.3747090  67.5792930  51.5939590  84.9336940
  67.2506290  50.7791350  84.5538670  68.5275230  51.5509400  84.8102630
  70.0327540  67.3651630  81.9074510  69.5730510  68.1167440  81.5332530
  69.4040000  66.6458100  81.8489310  56.8578160  63.4594870  84.2973230
  56.1312220  62.8400160  84.2299180  56.9187310  63.8535480  83.4271310
  60.4623260  65.6739870  81.0822640  60.9788280  65.0627230  80.5570900
  61.1120640  66.1768650  81.5733650  63.2018760  66.5648360  81.9091620
  63.4896570  66.3102660  81.0324630  63.7141980  66.0125720  82.4997190
  64.4195770  50.3038560  82.4888130  63.6367560  50.7784060  82.7684890
  64.1258700  49.3993390  82.3801310  68.9716840  51.0061660  80.5337220
  69.4124930  50.9506760  79.6858820  68.7024430  51.9219670  80.6047400
  70.8355410  50.6376900  78.5446040  70.7743810  49.6938120  78.3977060
  71.6147440  50.7456990  79.0899500  55.1408160  66.7769260  77.5069990
  54.9730200  66.1439940  78.2051880  54.2742670  66.9828660  77.1564180
  55.7636180  50.6086040  75.0101850  56.5215540  50.7214920  74.4365880
  55.3013350  51.4455240  74.9645280  62.3049990  52.7225310  78.0004160
  61.4924500  52.3482200  77.6600040  62.8091630  51.9670390  78.3025350
  66.8074970  49.3867760  79.2387230  67.4104340  49.9587970  79.7135750
  66.0667960  49.9507200  79.0161130  56.7470860  65.4702490  74.9520130
  56.2218480  65.8510520  74.2482090  56.6715440  66.0953260  75.6729840
  58.1361330  51.1350090  73.5503820  58.6654090  50.3479890  73.4211770
  58.7689650  51.8141280  73.7839350  60.3299170  50.8725230  76.6049210
  59.7001910  50.1712540  76.7719340  59.7904310  51.6329360  76.3882370
  63.2691120  67.4864460  89.2759820  64.1958430  67.2508730  89.3195780
  63.2541550  68.3136460  88.7945850  71.5036180  67.0290030  76.2734070
  71.6788370  66.3427770  75.6294990  70.8057750  67.5537080  75.8810740
  60.4554730  50.1509210  89.0401700  60.1739000  50.6542810  88.2762520
  60.8374430  49.3530960  88.6743830  59.3463830  67.4184870  73.8269380
  60.0782650  67.1344150  73.2793270  59.6057500  67.1798150  74.7168760
  58.5078620  63.5349600  73.8315710  57.8787500  64.0034700  74.3801540
  58.6226450  62.6898820  74.2661900  67.0570190  49.5662790  89.6182170
  66.9435640  49.8857400  90.5133690  67.8739930  49.9675300  89.3219450
  69.8368680  66.7134320  89.1000860  70.6294000  66.2183550  88.8926820
  70.1301830  67.3924460  89.7076470  65.9628340  57.5855260  59.9816910
  65.8822390  56.6709870  59.7108620  65.5492760  58.0822330  59.2756620
  54.4837170  57.2361630  62.4084030  55.0553280  56.4683830  62.4087670
  54.4838710  57.5350390  61.4990640  60.5373280  56.1873850  61.8907890
  61.0451500  56.6854820  62.5312910  61.0686520  55.4109050  61.7147250
  72.6384210  54.3579040  65.5937240  71.9336380  54.7460750  65.0752350
  72.9042130  55.0529330  66.1958170  65.2080470  60.9391720  57.6561210
  64.5897740  61.4041170  57.0923930  65.7203720  61.6319200  58.0730720
  68.5846140  54.2812670  61.8021150  67.8801710  54.5697560  62.3824260
  68.9458300  55.0912780  61.4420710  70.2008920  63.8987800  64.0648630
  69.5172440  64.5686910  64.0565300  70.7403210  64.0968450  63.2993490
  71.6533060  53.7267460  62.1930360  70.7057970  53.7606440  62.3245790
  71.9783050  54.5406410  62.5779720  69.0313080  62.4648150  57.8683980
  68.9209410  61.5222480  57.9933400  69.0281330  62.8263790  58.7546740
  67.1353100  60.6461770  64.1076420  67.5521890  60.4321880  63.2729880
  67.8592920  60.9034560  64.6785040  64.5733360  58.0913470  57.2246470
  63.6462640  58.0250850  57.4534940  64.7258180  59.0293600  57.1101710
  64.5602440  54.3630470  54.2213630  63.6206110  54.5244430  54.3066090
  64.8785700  55.0816150  53.6749620  71.0815200  59.0448990  64.1992660
  70.2533830  59.1142080  63.7242790  71.6765680  59.6303300  63.7308490
  68.6030650  59.6533770  57.7281720  67.9843070  59.3153320  57.0808020
  68.5855100  59.0093530  58.4360910  68.0457210  55.8318310  65.1447530
  67.6328390  56.6572020  65.3987520  67.3133160  55.2463350  64.9523890
  68.7357310  65.8777640  65.8328510  68.2587870  66.6849830  65.6401120
  68.0519100  65.2255970  65.9854720  59.7390130  62.0427460  68.8213210
  58.8418660  62.2667430  69.0686610  59.7643000  62.1662400  67.8724610
  66.7795350  58.8920580  54.7354470  67.2188630  58.0543010  54.5892290
  67.4923770  59.5249980  54.8218610  58.5661350  58.9140780  67.3970580
  58.4269120  59.7863580  67.7657980  57.6842710  58.5713590  67.2518520
  60.3641700  64.8562480  69.6055730  60.3357130  65.2605430  68.7384160
  60.2006670  63.9272840  69.4427330  70.3612490  50.1463390  53.0495510
  70.0485150  50.2390220  53.9494580  71.1224960  50.7244420  52.9992940
  72.3156520  65.6389580  70.9019900  72.7916240  66.1172470  71.5808980
  72.9363680  65.5707070  70.1765400  54.5180000  60.6838330  63.3141490
  54.5960420  60.8187100  62.3697210  55.1321680  59.9754220  63.5069610
  71.7189770  62.8302430  68.0619910  71.8452830  62.5914310  67.1437090
  71.7611150  61.9986970  68.5341990  65.5806510  66.5330430  66.6314720
  66.0951180  66.4438440  67.4337150  64.7375590  66.8790130  66.9242630
  71.5713780  54.8834890  69.0269650  70.9558050  55.3914560  68.4985110
  71.2510200  53.9833220  68.9695590  54.5739520  61.7252500  65.8535950
  54.7370560  61.2557860  65.0355320  55.0391970  61.2176060  66.5184790
  63.6328100  53.7226780  66.4931840  63.1707470  53.9309800  67.3051780
  63.2306210  52.9086130  66.1902510  68.6332610  54.9435730  67.6228500
  67.7826200  54.6441480  67.9437570  68.4734400  55.1877740  66.7112320
  65.7282320  56.4437480  69.7227290  66.0535730  55.6101230  69.3829520
  66.5162650  56.9666000  69.8705620  66.3670270  55.9855200  57.2168420
  65.7679160  56.7091000  57.0332040  66.9149880  55.9231980  56.4344870
  61.5771720  56.8777410  69.2838040  61.4815320  55.9372140  69.1338440
  62.4203700  57.0992480  68.8886110  56.7082260  53.2891080  67.4371820
  56.3145650  54.1366290  67.6444600  56.0200660  52.6517450  67.6280460
  63.2827310  53.3726050  70.5068560  62.5925630  53.1798250  71.1414650
  64.0259610  53.6560690  71.0392860  65.5590280  57.2124490  63.3422480
  64.8271400  57.7211300  63.6912580  65.1614620  56.3954470  63.0411260
  69.4486940  50.0790350  68.5931800  69.7732710  49.3480010  69.1189780
  69.4843450  49.7603990  67.6912790  56.1478500  61.1003930  68.0131760
  55.7633290  60.4597600  68.6114720  56.4590690  61.8040050  68.5826490
  60.0875010  56.9889110  65.8124590  59.7832080  57.8681090  66.0374950
  61.0421470  57.0488900  65.8482030  69.3744780  60.1915460  62.2017830
  70.0943900  60.6870750  61.8113940  69.1726600  59.5133350  61.5571700
  64.7563580  60.2624520  68.0886830  64.6900890  59.3420190  67.8344420
  64.1268720  60.3599960  68.8031470  67.5503110  55.9573070  54.6409380
  68.4382730  56.2690300  54.4660720  67.5208200  55.0845320  54.2489960
  56.1438740  57.8291850  66.9595950  55.7853680  58.4945700  67.5469290
  55.8493300  56.9975400  67.3308570  59.3451860  58.2876090  69.8435500
  59.0452000  58.4333270  68.9463320  60.1163100  57.7281380  69.7508890
  64.6880310  63.0845090  67.8390630  64.7024850  62.1526050  67.6209540
  63.9805410  63.1704850  68.4780400  69.8217380  57.2684910  54.1089240
  69.7381100  57.6999130  53.2585680  70.5411570  57.7283260  54.5416060
  70.8991520  59.7252430  67.1859210  70.1739710  60.3181210  66.9888600
  71.4266980  59.7175970  66.3872580  70.8504630  64.1227170  56.8371370
  70.2080790  63.4682790  57.1115090  70.4635290  64.5282260  56.0612040
  66.4291110  61.4512600  60.6843060  66.7814930  60.8540730  60.0244430
  65.5453440  61.1256830  60.8551310  64.1214210  64.7262660  64.9331130
  64.7656430  64.9322040  65.6104550  64.4843650  63.9651060  64.4801980
  65.3946290  62.7295010  63.6508580  66.0368520  62.0288170  63.7640750
  65.9195640  63.5093450  63.4705470  67.1683910  63.5289910  66.8544640
  67.5040150  64.1156600  67.5322560  66.2484250  63.3982620  67.0842430
  55.0059900  65.3065350  68.6234580  55.1151020  64.3660090  68.4829970
  54.3540460  65.5720100  67.9748310  62.9972490  63.5781240  70.0232700
  62.6769360  62.8590480  70.5678390  62.3230850  64.2536310  70.0968760
  63.1728080  56.4646990  65.6107470  63.6713330  56.9392810  66.2759320
  63.3151030  55.5410510  65.8177500  70.3794940  52.6814950  66.4535860
  69.8768540  53.4220350  66.7929670  71.1951600  53.0698950  66.1372650
  68.6716950  57.9248130  59.8997220  67.7307090  57.9398360  60.0744910
  68.9861020  57.1384090  60.3457520  70.6742530  65.0956980  61.5751480
  70.7989950  65.9188150  62.0475290  71.5408090  64.8847710  61.2275630
  57.1518340  66.3734260  70.4354190  57.9531070  66.6946310  70.8489590
  56.6370160  66.0129840  71.1574100  65.9882970  62.4814130  70.3829600
  65.3821130  62.5045730  69.6425350  65.6837080  61.7497170  70.9196850
  67.4183340  66.2094420  68.9939010  68.3705090  66.1252440  68.9439250
  67.2711560  66.8736130  69.6672800  54.8716150  58.8607720  69.3790240
  55.3755170  58.2815000  69.9506470  54.1323570  59.1447950  69.9166610
  61.9254090  60.2678710  68.9125760  61.1599760  60.8363710  68.8280430
  62.1070050  59.9754920  68.0193990  69.0677440  61.9984040  69.4700780
  69.8086910  62.3359800  68.9668240  68.3050120  62.1676100  68.9170550
  56.9039230  57.0037310  70.2740310  56.9444570  56.7051180  71.1825540
  57.7584730  57.4044920  70.1147830  58.8445040  55.5829410  68.2414800
  58.3141500  55.0920360  67.6138140  59.5133110  56.0113610  67.7072730
  63.1945260  58.6270470  52.6820920  63.7150920  57.9119490  52.3162070
  63.8413660  59.2656340  52.9821430  67.7423100  60.0498870  68.0055990
  68.1564120  60.2043950  68.8546410  66.8074100  60.1754090  68.1681770
  68.2145270  57.3895030  70.0095140  68.7966040  56.6347350  69.9215620
  68.3907040  57.9202470  69.2326620  59.3317340  52.5491780  68.3212090
  59.2374210  51.9312530  67.5962960  58.7514730  53.2758070  68.0942000
  64.8402230  57.7335530  67.3589760  64.9598440  57.1376670  68.0984600
  65.6996230  57.7705220  66.9391060  67.1790130  58.2872720  65.9352270
  66.6525350  58.8115340  65.3317410  67.5221470  58.9200110  66.5662000
  60.3545750  66.3072360  67.0909650  59.8166840  67.0318420  66.7718350
  60.6079710  65.8302700  66.3006990  61.6071000  54.2756880  68.6165580
  62.1970690  53.9672730  69.3043400  60.7891240  53.8036630  68.7725480
  66.4264430  53.8922690  68.8498600  65.7379950  53.2304230  68.7848590
  67.1470450  53.4460960  69.2947060  63.2107960  67.5423570  67.3496300
  63.1366660  68.4458710  67.6568670  62.3086800  67.2235470  67.3218370
  54.6135250  64.8698160  60.6529920  54.9438260  64.0019220  60.4208560
  55.0426250  65.0756680  61.4834880  70.7387640  65.2385750  67.6788860
  70.1389630  65.2978310  66.9352780  70.8681540  64.2990730  67.8085710
  71.4345550  59.7251050  55.5192770  72.1964460  60.2947700  55.6252460
  71.4499920  59.1578250  56.2901080  54.9349890  58.2488980  59.7500430
  54.2798730  57.9800620  59.1060130  55.7727840  58.1393460  59.3002410
  72.4405520  60.5801150  60.3634700  72.8114350  59.7968470  59.9570670
  73.0807450  61.2690250  60.1852000  69.4239280  61.9637730  65.7765020
  68.6099120  62.3934890  66.0390810  69.8313480  62.5756140  65.1634070
  71.4864720  60.0185420  52.6765290  71.7613560  60.9264300  52.5484510
  71.2975460  59.9547950  53.6127280  71.3830060  57.9554410  57.6694720
  71.0073660  57.1882340  57.2376010  70.6533180  58.3377110  58.1569650
  55.9725820  58.6341550  64.2903770  56.3398860  58.5468950  65.1699790
  55.4036640  57.8708100  64.1910630  70.7729680  57.1025930  67.3034240
  70.5415770  56.8738680  66.4032190  71.0334230  58.0225480  67.2579130
  55.5241820  55.5450640  68.1962190  54.6297870  55.5117400  68.5355900
  56.0639370  55.7437430  68.9613440  69.2117750  52.3282360  70.0813940
  70.0887930  52.3365760  70.4647940  69.2238590  51.5913200  69.4706290
  70.6581020  56.1811900  60.9701960  71.1818500  55.6874550  60.3392130
  71.2440440  56.3162260  61.7149530  70.8370740  56.2651770  64.4921510
  69.8873450  56.2315310  64.6066500  71.0183750  57.1751880  64.2571280
  70.1480990  55.4385250  56.9094370  70.6440110  55.2056120  57.6943250
  69.9497060  54.5997090  56.4932010  71.5768150  54.0746200  59.4432050
  71.4667430  53.9202240  60.3814320  72.3375740  53.5467140  59.2007460
  69.9233870  50.0140330  65.9015050  70.5606090  50.6274470  66.2674240
  70.0708760  50.0500990  64.9564280  72.4658420  51.9054120  52.6838190
  73.3907730  51.7735300  52.4756480  72.4434210  51.9846940  53.6374640
  72.5396910  52.6764780  55.3094900  71.7448410  52.6109900  55.8387810
  72.7440190  53.6115420  55.2980250  57.3877900  63.1474240  69.4523920
  57.3447530  62.7767150  70.3338380  57.5188910  64.0851810  69.5925740
  63.2938350  51.1666520  68.8090150  63.2327240  51.7588350  69.5585560
  64.2338730  51.0592480  68.6640410  65.9312910  50.8236580  68.4482440
  66.5453320  51.1415870  67.7863520  66.4762470  50.3385170  69.0678300
  72.3488090  66.7228210  65.8544280  71.8546370  67.1197080  65.1371410
  71.7401380  66.0977420  66.2481560  57.2265930  66.0936490  66.5721700
  56.6326250  65.9621190  67.3111740  57.2189770  65.2574630  66.1063800
  56.8578160  63.4594870  65.5229740  56.1312220  62.8400160  65.4555690
  56.9187310  63.8535480  64.6527820  63.2691120  67.4864460  70.5016330
  64.1958430  67.2508730  70.5452290  63.2541550  68.3136460  70.0202360
  71.5036180  67.0290030  57.4990580  71.6788370  66.3427770  56.8551500
  70.8057750  67.5537080  57.1067250  67.0570190  49.5662790  70.8438680
  66.9435640  49.8857400  71.7390200  67.8739930  49.9675300  70.5475960
  69.8368680  66.7134320  70.3257370  70.6294000  66.2183550  70.1183330
  70.1301830  67.3924460  70.9332980  58.0913470  63.7094180  44.1616470
  58.3941510  62.8191920  43.9826690  58.8357060  64.2664400  43.9338720
  56.5204160  54.6355980  37.7500840  55.6320860  54.9771950  37.6480720
  56.8045350  54.4356300  36.8581670  64.3417120  66.0552480  41.4885810
  63.7228560  66.5109980  40.9180250  65.1968900  66.2103940  41.0875510
  58.6965550  53.2187480  38.7839220  58.8032300  54.1191210  39.0907980
  57.7857910  53.1705450  38.4933870  56.3448710  55.1406490  44.0291810
  57.0258820  55.4044860  44.6479210  56.0296760  54.3007360  44.3629820
  59.2831330  62.4348390  47.3750500  59.9005330  63.1099470  47.0934950
  58.4224450  62.8436370  47.2838000  54.5763670  61.6248250  36.2557350
  54.1991650  62.1135350  35.5242250  54.8336740  62.2973530  36.8863880
  62.1852600  50.0264640  41.7142860  62.4927580  49.4711530  40.9978360
  61.2553300  50.1609100  41.5315850  69.0313080  62.4648150  39.0940490
  68.9209410  61.5222480  39.2189910  69.0281330  62.8263790  39.9803250
  64.5602440  54.3630470  35.4470140  63.6206110  54.5244430  35.5322600
  64.8785700  55.0816150  34.9006130  68.7357310  65.8777640  47.0585020
  68.2587870  66.6849830  46.8657630  68.0519100  65.2255970  47.2111230
  56.8794630  57.5123190  38.7329360  56.7592230  58.2385280  38.1210630
  56.5695520  56.7426100  38.2557270  72.3156520  65.6389580  52.1276410
  72.7916240  66.1172470  52.8065490  72.9363680  65.5707070  51.4021910
  55.7627630  62.3838520  40.9504180  55.3555710  62.5253110  40.0957780
  56.6540640  62.0998680  40.7475390  71.7189770  62.8302430  49.2876420
  71.8452830  62.5914310  48.3693600  71.7611150  61.9986970  49.7598500
  65.5806510  66.5330430  47.8571230  66.0951180  66.4438440  48.6593660
  64.7375590  66.8790130  48.1499140  67.5560910  66.8185770  37.2855230
  67.3962050  66.5288710  38.1837060  67.3907620  66.0425900  36.7500460
  60.0349290  66.5984300  39.0626850  59.8591770  65.6819840  38.8494650
  59.1805030  66.9571590  39.3024650  67.2587040  64.3273330  35.8453230
  66.5652200  64.3250620  35.1855510  68.0009900  63.9032650  35.4147400
  66.8236970  65.9536040  39.9201720  67.2793920  65.1725420  40.2340340
  67.1629490  66.6642860  40.4642900  65.7282320  56.4437480  50.9483800
  66.0535730  55.6101230  50.6086030  66.5162650  56.9666000  51.0962130
  59.1372510  55.9791830  39.8434280  58.9113430  55.7629000  40.7480900
  58.3565040  56.4120290  39.4980250  54.0099310  51.2119540  42.6958410
  53.7212360  51.7822400  43.4083390  54.7545070  50.7323990  43.0589640
  54.1969540  55.1539660  33.9061130  54.1144210  56.0970420  34.0476120
  53.8452600  55.0114570  33.0273480  57.8470050  53.7705180  41.9325690
  57.5070100  54.2480410  42.6892740  57.0847370  53.3170300  41.5726790
  62.0587820  54.8890770  35.9638240  62.1800640  54.8477250  36.9124060
  61.6736330  55.7514920  35.8084970  61.0709320  57.1991910  35.3621540
  60.5026220  56.7510160  34.7357450  61.7798320  57.5584690  34.8286690
  69.4486940  50.0790350  49.8188310  69.7732710  49.3480010  50.3446290
  69.4843450  49.7603990  48.9169300  55.1616130  52.6924160  40.8490360
  54.8763050  52.3279830  41.6868980  55.0994990  51.9604620  40.2353500
  58.6156800  61.1950100  37.6347950  57.8419060  60.6547720  37.4746670
  59.3451430  60.6756710  37.2965710  64.7563580  60.2624520  49.3143340
  64.6900890  59.3420190  49.0600930  64.1268720  60.3599960  50.0287980
  63.5463700  62.1296760  36.5454060  63.8879400  62.8738990  36.0497380
  62.7176410  62.4427880  36.9078890  70.8504630  64.1227170  38.0627880
  70.2080790  63.4682790  38.3371600  70.4635290  64.5282260  37.2868550
  54.6546790  57.8283110  34.8087060  55.5241640  58.1107910  35.0922980
  54.1637110  58.6418980  34.6935870  64.1214210  64.7262660  46.1587640
  64.7656430  64.9322040  46.8361060  64.4843650  63.9651060  45.7058490
  57.7193380  49.5593970  39.4017860  57.5908010  49.5511870  40.3502780
  56.8955400  49.8977060  39.0508870  69.2402010  63.0143630  34.6004230
  69.0139590  62.2974070  35.1928870  68.8498210  62.7656070  33.7625980
  55.0218040  67.0410490  35.3748690  55.3815680  67.6399830  34.7205960
  54.8810380  67.5870380  36.1483720  61.0386660  64.4241690  36.1922360
  61.0296760  65.1571380  35.5766870  60.1185020  64.1773270  36.2849320
  56.6393300  59.6456580  36.9369120  56.0321250  60.3855480  36.9464420
  57.1142650  59.7355940  36.1107320  64.0246260  64.4869930  34.8547550
  64.1258240  64.2833920  33.9249530  63.1248000  64.2328210  35.0595330
  61.5472150  55.0450290  38.8371450  60.8388300  55.5136630  39.2785060
  61.8316630  54.3872300  39.4716640  62.6664370  67.0056250  39.5495220
  62.9205870  66.9677640  38.6274590  61.7176850  66.8789580  39.5423470
  59.7507170  53.3535370  36.2122160  60.5997700  53.7905520  36.1462350
  59.3838440  53.6655630  37.0394220  58.6498590  59.6067730  34.6857690
  59.4161860  59.4949090  35.2483120  58.7273280  58.9105700  34.0334460
  57.3445350  57.0392800  35.3690580  57.4248940  56.0920310  35.4807980
  58.2365100  57.3699680  35.4751240  58.1460060  67.1888190  42.4725120
  58.8822540  66.6403650  42.7433690  58.5300980  68.0544200  42.3331110
  55.0305540  63.2561760  38.3466630  54.1045320  63.4982900  38.3372040
  55.4961970  64.0836020  38.2251380  61.2562370  66.3618500  34.2950690
  62.0490980  66.6507330  33.8432480  60.7366720  65.9310670  33.6163170
  70.3092540  65.5888630  35.7187430  70.0234050  65.1753770  34.9041610
  70.1112090  66.5176340  35.5987950  61.7739770  61.5821910  34.1593040
  61.6690410  60.9674260  34.8854420  61.6063990  61.0587800  33.3756050
  61.9254090  60.2678710  50.1382270  61.1599760  60.8363710  50.0536940
  62.1070050  59.9754920  49.2450500  65.0142500  60.6441940  34.7635030
  64.4652600  61.0911240  35.4077770  65.6361760  60.1391190  35.2872700
  60.6817620  59.6032860  36.6600330  61.1034040  59.4372730  37.5031720
  60.8068460  58.7933090  36.1655470  63.1945260  58.6270470  33.9077430
  63.7150920  57.9119490  33.5418580  63.8413660  59.2656340  34.2077940
  67.7423100  60.0498870  49.2312500  68.1564120  60.2043950  50.0802920
  66.8074100  60.1754090  49.3938280  68.2145270  57.3895030  51.2351650
  68.7966040  56.6347350  51.1472130  68.3907040  57.9202470  50.4583130
  59.5776520  55.6766090  33.6058490  59.3765580  54.8133450  33.9671830
  59.4068570  55.5899450  32.6680090  58.3759320  52.7766710  33.5936370
  58.6785220  52.7834140  32.6855520  59.1153910  52.4264570  34.0904030
  61.5944250  51.7201330  34.5792570  61.2466250  51.0425320  33.9995020
  61.7957020  51.2590840  35.3935960  63.7593290  66.7082080  36.1979170
  64.6544080  67.0467050  36.2197930  63.7910920  65.9861490  35.5703450
  57.3989450  62.0809130  34.4266170  57.8364320  62.6238800  35.0823750
  57.8837180  61.2556080  34.4362510  54.6135250  64.8698160  41.8786430
  54.9438260  64.0019220  41.6465070  55.0426250  65.0756680  42.7091390
  59.2097170  63.2007170  39.5388400  58.9092710  63.0772140  40.4392310
  59.1034660  62.3415760  39.1304130  55.1025460  65.7368750  44.6168060
  54.6656450  65.9169550  45.4492210  55.6703140  66.4943370  44.4749780
  70.7387640  65.2385750  48.9045370  70.1389630  65.2978310  48.1609290
  70.8681540  64.2990730  49.0342220  71.9789090  62.9803570  34.2415080
  71.1482050  63.0480220  34.7122310  72.1560920  63.8707690  33.9381940
  54.9349890  58.2488980  40.9756940  54.2798730  57.9800620  40.3316640
  55.7727840  58.1393460  40.5258920  72.4405520  60.5801150  41.5891210
  72.8114350  59.7968470  41.1827180  73.0807450  61.2690250  41.4108510
  71.4864720  60.0185420  33.9021800  71.7613560  60.9264300  33.7741020
  71.2975460  59.9547950  34.8383790  69.2117750  52.3282360  51.3070450
  70.0887930  52.3365760  51.6904450  69.2238590  51.5913200  50.6962800
  54.1487970  55.4587910  36.9182270  53.2452050  55.7218110  36.7433930
  54.6328590  55.7299080  36.1382230  56.6915180  54.5153450  34.8276650
  57.4006880  54.0936670  34.3423930  55.9755120  54.5828680  34.1960000
  56.3389340  50.5692780  33.8679300  57.0617470  51.1101720  34.1860520
  56.6113860  50.2956200  32.9920840  69.4815330  66.7156330  40.5289800
  70.0774400  66.3940900  39.8524220  69.7393480  66.2428150  41.3203070
  65.9312910  50.8236580  49.6738950  66.5453320  51.1415870  49.0120030
  66.4762470  50.3385170  50.2934810  72.3488090  66.7228210  47.0800790
  71.8546370  67.1197080  46.3627920  71.7401380  66.0977420  47.4738070
  70.0327540  67.3651630  44.3587530  69.5730510  68.1167440  43.9845550
  69.4040000  66.6458100  44.3002330  55.1408160  66.7769260  39.9583010
  54.9730200  66.1439940  40.6564900  54.2742670  66.9828660  39.6077200
  55.7636180  50.6086040  37.4614870  56.5215540  50.7214920  36.8878900
  55.3013350  51.4455240  37.4158300  62.3049990  52.7225310  40.4517180
  61.4924500  52.3482200  40.1113060  62.8091630  51.9670390  40.7538370
  56.7470860  65.4702490  37.4033150  56.2218480  65.8510520  36.6995110
  56.6715440  66.0953260  38.1242860  58.1361330  51.1350090  36.0016840
  58.6654090  50.3479890  35.8724790  58.7689650  51.8141280  36.2352370
  60.3299170  50.8725230  39.0562230  59.7001910  50.1712540  39.2232360
  59.7904310  51.6329360  38.8395390  71.5036180  67.0290030  38.7247090
  71.6788370  66.3427770  38.0808010  70.8057750  67.5537080  38.3323760
  59.3463830  67.4184870  36.2782400  60.0782650  67.1344150  35.7306290
  59.6057500  67.1798150  37.1681780  58.5078620  63.5349600  36.2828730
  57.8787500  64.0034700  36.8314560  58.6226450  62.6898820  36.7174920
  65.9628340  57.5855260  22.4329930  65.8822390  56.6709870  22.1621640
  65.5492760  58.0822330  21.7269640  64.0946380  59.3634280  24.3139200
  63.3188480  58.8834720  24.6037770  64.7459310  58.6839930  24.1395360
  58.1112210  59.6754090  25.1914960  57.2797090  59.4202800  25.5911470
  58.7193190  59.7464860  25.9272880  68.1153810  63.7694470  23.0938330
  67.6535340  62.9981710  23.4225500  68.9279360  63.7960540  23.5990780
  58.0913470  63.7094180  25.3872980  58.3941510  62.8191920  25.2083200
  58.8357060  64.2664400  25.1595230  56.5204160  54.6355980  18.9757350
  55.6320860  54.9771950  18.8737230  56.8045350  54.4356300  18.0838180
  54.4837170  57.2361630  24.8597050  55.0553280  56.4683830  24.8600690
  54.4838710  57.5350390  23.9503660  64.3417120  66.0552480  22.7142320
  63.7228560  66.5109980  22.1436760  65.1968900  66.2103940  22.3132020
  63.5355370  62.0391470  24.3209360  63.4663650  61.0981410  24.1598490
  64.2975230  62.1292880  24.8931930  55.7262040  52.6445990  26.6465980
  55.5464880  51.7471740  26.9268740  55.3242120  53.1917860  27.3212930
  64.5660540  54.8461850  24.5478290  64.9425360  53.9733730  24.4351960
  64.4680050  55.1820550  23.6568730  58.6965550  53.2187480  20.0095730
  58.8032300  54.1191210  20.3164490  57.7857910  53.1705450  19.7190380
  68.3484660  52.3412290  21.4806630  69.1694280  51.8508860  21.5232110
  68.3818740  52.9309950  22.2338470  56.3448710  55.1406490  25.2548320
  57.0258820  55.4044860  25.8735720  56.0296760  54.3007360  25.5886330
  60.5373280  56.1873850  24.3420910  61.0451500  56.6854820  24.9825930
  61.0686520  55.4109050  24.1660270  72.6384210  54.3579040  28.0450260
  71.9336380  54.7460750  27.5265370  72.9042130  55.0529330  28.6471190
  58.8209380  50.8272410  28.6084330  58.8227820  51.3444800  27.8030230
  57.9913690  50.3502590  28.5854260  65.2080470  60.9391720  20.1074230
  64.5897740  61.4041170  19.5436950  65.7203720  61.6319200  20.5243740
  60.0712230  60.4667590  26.7857830  59.7381610  61.0936510  27.4278900
  60.2478910  60.9929470  26.0059500  68.5846140  54.2812670  24.2534170
  67.8801710  54.5697560  24.8337280  68.9458300  55.0912780  23.8933730
  58.5024710  52.5382370  26.6154780  58.8441520  53.3824420  26.3208650
  57.5640520  52.6866110  26.7320120  59.2831330  62.4348390  28.6007010
  59.9005330  63.1099470  28.3191460  58.4224450  62.8436370  28.5094510
  54.5763670  61.6248250  17.4813860  54.1991650  62.1135350  16.7498760
  54.8336740  62.2973530  18.1120390  70.2008920  63.8987800  26.5161650
  69.5172440  64.5686910  26.5078320  70.7403210  64.0968450  25.7506510
  71.6533060  53.7267460  24.6443380  70.7057970  53.7606440  24.7758810
  71.9783050  54.5406410  25.0292740  62.1852600  50.0264640  22.9399370
  62.4927580  49.4711530  22.2234870  61.2553300  50.1609100  22.7572360
  67.7367660  65.7431930  25.2306830  67.7494820  65.3394220  24.3629090
  67.1842880  66.5179220  25.1268260  69.0313080  62.4648150  20.3197000
  68.9209410  61.5222480  20.4446420  69.0281330  62.8263790  21.2059760
  67.1353100  60.6461770  26.5589440  67.5521890  60.4321880  25.7242900
  67.8592920  60.9034560  27.1298060  64.5733360  58.0913470  19.6759490
  63.6462640  58.0250850  19.9047960  64.7258180  59.0293600  19.5614730
  64.5602440  54.3630470  16.6726650  63.6206110  54.5244430  16.7579110
  64.8785700  55.0816150  16.1262640  71.0815200  59.0448990  26.6505680
  70.2533830  59.1142080  26.1755810  71.6765680  59.6303300  26.1821510
  68.6030650  59.6533770  20.1794740  67.9843070  59.3153320  19.5321040
  68.5855100  59.0093530  20.8873930  68.0457210  55.8318310  27.5960550
  67.6328390  56.6572020  27.8500540  67.3133160  55.2463350  27.4036910
  60.1790000  58.6178210  22.4579220  59.7747000  57.9055460  21.9625120
  60.2653120  58.2731450  23.3467260  60.6471700  62.3045770  24.6218430
  60.3499990  61.6991240  23.9426210  61.5971520  62.3423080  24.5107790
  58.8918620  55.3921420  26.2378260  59.4433210  55.5016760  25.4631510
  59.4062130  55.7659020  26.9533490  68.7357310  65.8777640  28.2841530
  68.2587870  66.6849830  28.0914140  68.0519100  65.2255970  28.4367740
  59.7390130  62.0427460  31.2726230  58.8418660  62.2667430  31.5199630
  59.7643000  62.1662400  30.3237630  66.7795350  58.8920580  17.1867490
  67.2188630  58.0543010  17.0405310  67.4923770  59.5249980  17.2731630
  58.5661350  58.9140780  29.8483600  58.4269120  59.7863580  30.2171000
  57.6842710  58.5713590  29.7031540  64.8890730  63.8316650  21.1548730
  65.3286640  64.5740980  20.7404120  64.8277620  64.0743220  22.0787690
  60.3641700  64.8562480  32.0568750  60.3357130  65.2605430  31.1897180
  60.2006670  63.9272840  31.8940350  70.3612490  50.1463390  15.5008530
  70.0485150  50.2390220  16.4007600  71.1224960  50.7244420  15.4505960
  56.8794630  57.5123190  19.9585870  56.7592230  58.2385280  19.3467140
  56.5695520  56.7426100  19.4813780  72.3156520  65.6389580  33.3532920
  72.7916240  66.1172470  34.0322000  72.9363680  65.5707070  32.6278420
  54.5180000  60.6838330  25.7654510  54.5960420  60.8187100  24.8210230
  55.1321680  59.9754220  25.9582630  55.7627630  62.3838520  22.1760690
  55.3555710  62.5253110  21.3214290  56.6540640  62.0998680  21.9731900
  71.7189770  62.8302430  30.5132930  71.8452830  62.5914310  29.5950110
  71.7611150  61.9986970  30.9855010  65.5806510  66.5330430  29.0827740
  66.0951180  66.4438440  29.8850170  64.7375590  66.8790130  29.3755650
  67.5560910  66.8185770  18.5111740  67.3962050  66.5288710  19.4093570
  67.3907620  66.0425900  17.9756970  60.0349290  66.5984300  20.2883360
  59.8591770  65.6819840  20.0751160  59.1805030  66.9571590  20.5281160
  67.2587040  64.3273330  17.0709740  66.5652200  64.3250620  16.4112020
  68.0009900  63.9032650  16.6403910  66.8236970  65.9536040  21.1458230
  67.2793920  65.1725420  21.4596850  67.1629490  66.6642860  21.6899410
  71.5713780  54.8834890  31.4782670  70.9558050  55.3914560  30.9498130
  71.2510200  53.9833220  31.4208610  54.5739520  61.7252500  28.3048970
  54.7370560  61.2557860  27.4868340  55.0391970  61.2176060  28.9697810
  59.3458290  50.8558260  23.3409540  58.9026440  51.6367800  23.0094060
  59.9043280  51.1788150  24.0480480  63.6328100  53.7226780  28.9444860
  63.1707470  53.9309800  29.7564800  63.2306210  52.9086130  28.6415530
  68.6332610  54.9435730  30.0741520  67.7826200  54.6441480  30.3950590
  68.4734400  55.1877740  29.1625340  65.7282320  56.4437480  32.1740310
  66.0535730  55.6101230  31.8342540  66.5162650  56.9666000  32.3218640
  62.4617110  50.4768960  18.2215370  61.8371290  50.4728830  18.9468680
  62.3747230  49.6099920  17.8251340  61.3834190  51.4005590  25.1999140
  61.6806520  52.3068420  25.1191160  61.9319750  50.9124370  24.5858710
  59.1372510  55.9791830  21.0690790  58.9113430  55.7629000  21.9737410
  58.3565040  56.4120290  20.7236760  66.3670270  55.9855200  19.6681440
  65.7679160  56.7091000  19.4845060  66.9149880  55.9231980  18.8857890
  61.5771720  56.8777410  31.7351060  61.4815320  55.9372140  31.5851460
  62.4203700  57.0992480  31.3399130  64.9735140  54.6218740  21.6984720
  65.3664710  54.9390940  20.8853410  65.3351990  53.7430620  21.8129240
  56.7082260  53.2891080  29.8884840  56.3145650  54.1366290  30.0957620
  56.0200660  52.6517450  30.0793480  63.2827310  53.3726050  32.9581580
  62.5925630  53.1798250  33.5927670  64.0259610  53.6560690  33.4905880
  54.0099310  51.2119540  23.9214920  53.7212360  51.7822400  24.6339900
  54.7545070  50.7323990  24.2846150  54.1969540  55.1539660  15.1317640
  54.1144210  56.0970420  15.2732630  53.8452600  55.0114570  14.2529990
  65.5590280  57.2124490  25.7935500  64.8271400  57.7211300  26.1425600
  65.1614620  56.3954470  25.4924280  61.9967670  53.8878690  24.1987990
  62.0003730  53.4468640  23.3492530  62.8918790  54.2096020  24.3059810
  57.8470050  53.7705180  23.1582200  57.5070100  54.2480410  23.9149250
  57.0847370  53.3170300  22.7983300  62.0587820  54.8890770  17.1894750
  62.1800640  54.8477250  18.1380570  61.6736330  55.7514920  17.0341480
  66.0216190  52.6658170  25.2058440  66.0388930  53.1166820  26.0500290
  65.7731770  51.7663810  25.4191880  61.0709320  57.1991910  16.5878050
  60.5026220  56.7510160  15.9613960  61.7798320  57.5584690  16.0543200
  56.1478500  61.1003930  30.4644780  55.7633290  60.4597600  31.0627740
  56.4590690  61.8040050  31.0339510  62.2975640  57.9480470  25.9453400
  62.6645770  57.4739040  26.6914740  62.1080700  58.8222040  26.2861740
  55.1616130  52.6924160  22.0746870  54.8763050  52.3279830  22.9125490
  55.0994990  51.9604620  21.4610010  60.0875010  56.9889110  28.2637610
  59.7832080  57.8681090  28.4887970  61.0421470  57.0488900  28.2995050
  58.6156800  61.1950100  18.8604460  57.8419060  60.6547720  18.7003180
  59.3451430  60.6756710  18.5222220  69.3744780  60.1915460  24.6530850
  70.0943900  60.6870750  24.2626960  69.1726600  59.5133350  24.0084720
  64.8354720  51.5853420  18.7960240  64.0219330  51.0866590  18.7205550
  64.6416670  52.4251670  18.3796590  64.7563580  60.2624520  30.5399850
  64.6900890  59.3420190  30.2857440  64.1268720  60.3599960  31.2544490
  67.5503110  55.9573070  17.0922400  68.4382730  56.2690300  16.9173740
  67.5208200  55.0845320  16.7002980  58.6594200  60.8630480  22.4983270
  59.1772870  60.0598740  22.4440160  58.2078220  60.8009620  23.3400100
  63.5463700  62.1296760  17.7710570  63.8879400  62.8738990  17.2753890
  62.7176410  62.4427880  18.1335400  56.1438740  57.8291850  29.4108970
  55.7853680  58.4945700  29.9982310  55.8493300  56.9975400  29.7821590
  59.3451860  58.2876090  32.2948520  59.0452000  58.4333270  31.3976340
  60.1163100  57.7281380  32.2021910  64.6880310  63.0845090  30.2903650
  64.7024850  62.1526050  30.0722560  63.9805410  63.1704850  30.9293420
  69.8217380  57.2684910  16.5602260  69.7381100  57.6999130  15.7098700
  70.5411570  57.7283260  16.9929080  70.8991520  59.7252430  29.6372230
  70.1739710  60.3181210  29.4401620  71.4266980  59.7175970  28.8385600
  70.8504630  64.1227170  19.2884390  70.2080790  63.4682790  19.5628110
  70.4635290  64.5282260  18.5125060  66.4291110  61.4512600  23.1356080
  66.7814930  60.8540730  22.4757450  65.5453440  61.1256830  23.3064330
  62.5154390  62.2110290  20.5426490  63.2025520  62.7579500  20.9234080
  61.7286810  62.7551020  20.5776100  54.6546790  57.8283110  16.0343570
  55.5241640  58.1107910  16.3179490  54.1637110  58.6418980  15.9192380
  61.8181600  59.2156320  20.1551850  62.2744380  60.0261570  20.3812040
  61.4669810  58.8979460  20.9870340  64.1214210  64.7262660  27.3844150
  64.7656430  64.9322040  28.0617570  64.4843650  63.9651060  26.9315000
  57.7193380  49.5593970  20.6274370  57.5908010  49.5511870  21.5759290
  56.8955400  49.8977060  20.2765380  65.3946290  62.7295010  26.1021600
  66.0368520  62.0288170  26.2153770  65.9195640  63.5093450  25.9218490
  69.2402010  63.0143630  15.8260740  69.0139590  62.2974070  16.4185380
  68.8498210  62.7656070  14.9882490  67.1683910  63.5289910  29.3057660
  67.5040150  64.1156600  29.9835580  66.2484250  63.3982620  29.5355450
  55.0218040  67.0410490  16.6005200  55.3815680  67.6399830  15.9462470
  54.8810380  67.5870380  17.3740230  54.7187310  51.3185090  30.0881070
  54.0045830  51.5182010  30.6933680  55.1382350  50.5424660  30.4595870
  68.8218260  60.9315570  17.4874900  68.5339960  61.3928260  18.2752780
  69.6170430  60.4713340  17.7559120  55.0059900  65.3065350  31.0747600
  55.1151020  64.3660090  30.9342990  54.3540460  65.5720100  30.4261330
  62.9972490  63.5781240  32.4745720  62.6769360  62.8590480  33.0191410
  62.3230850  64.2536310  32.5481780  61.0386660  64.4241690  17.4178870
  61.0296760  65.1571380  16.8023380  60.1185020  64.1773270  17.5105830
  56.6393300  59.6456580  18.1625630  56.0321250  60.3855480  18.1720930
  57.1142650  59.7355940  17.3363830  66.2126090  53.8107400  27.8382520
  66.5806910  52.9902610  28.1662090  65.3524290  53.8709290  28.2538170
  69.5788120  52.7664340  18.6470080  68.9501280  52.8710010  17.9328310
  69.0840040  52.9861120  19.4363960  64.0246260  64.4869930  16.0804060
  64.1258240  64.2833920  15.1506040  63.1248000  64.2328210  16.2851840
  61.5472150  55.0450290  20.0627960  60.8388300  55.5136630  20.5041570
  61.8316630  54.3872300  20.6973150  63.1728080  56.4646990  28.0620490
  63.6713330  56.9392810  28.7272340  63.3151030  55.5410510  28.2690520
  65.5787580  51.7700950  21.5023750  65.4555360  51.7887080  20.5533260
  66.5272140  51.8179890  21.6222150  62.6664370  67.0056250  20.7751730
  62.9205870  66.9677640  19.8531100  61.7176850  66.8789580  20.7679980
  59.7507170  53.3535370  17.4378670  60.5997700  53.7905520  17.3718860
  59.3838440  53.6655630  18.2650730  70.3794940  52.6814950  28.9048880
  69.8768540  53.4220350  29.2442690  71.1951600  53.0698950  28.5885670
  68.6716950  57.9248130  22.3510240  67.7307090  57.9398360  22.5257930
  68.9861020  57.1384090  22.7970540  58.6498590  59.6067730  15.9114200
  59.4161860  59.4949090  16.4739630  58.7273280  58.9105700  15.2590970
  57.3445350  57.0392800  16.5947090  57.4248940  56.0920310  16.7064490
  58.2365100  57.3699680  16.7007750  70.6742530  65.0956980  24.0264500
  70.7989950  65.9188150  24.4988310  71.5408090  64.8847710  23.6788650
  58.1460060  67.1888190  23.6981630  58.8822540  66.6403650  23.9690200
  58.5300980  68.0544200  23.5587620  55.0305540  63.2561760  19.5723140
  54.1045320  63.4982900  19.5628550  55.4961970  64.0836020  19.4507890
  57.1518340  66.3734260  32.8867210  57.9531070  66.6946310  33.3002610
  56.6370160  66.0129840  33.6087120  61.2562370  66.3618500  15.5207200
  62.0490980  66.6507330  15.0688990  60.7366720  65.9310670  14.8419680
  65.9882970  62.4814130  32.8342620  65.3821130  62.5045730  32.0938370
  65.6837080  61.7497170  33.3709870  67.4183340  66.2094420  31.4452030
  68.3705090  66.1252440  31.3952270  67.2711560  66.8736130  32.1185820
  70.3092540  65.5888630  16.9443940  70.0234050  65.1753770  16.1298120
  70.1112090  66.5176340  16.8244460  54.8716150  58.8607720  31.8303260
  55.3755170  58.2815000  32.4019490  54.1323570  59.1447950  32.3679630
  61.7739770  61.5821910  15.3849550  61.6690410  60.9674260  16.1110930
  61.6063990  61.0587800  14.6012560  61.9254090  60.2678710  31.3638780
  61.1599760  60.8363710  31.2793450  62.1070050  59.9754920  30.4707010
  65.0142500  60.6441940  15.9891540  64.4652600  61.0911240  16.6334280
  65.6361760  60.1391190  16.5129210  69.0677440  61.9984040  31.9213800
  69.8086910  62.3359800  31.4181260  68.3050120  62.1676100  31.3683570
  56.9039230  57.0037310  32.7253330  56.9444570  56.7051180  33.6338560
  57.7584730  57.4044920  32.5660850  60.6817620  59.6032860  17.8856840
  61.1034040  59.4372730  18.7288230  60.8068460  58.7933090  17.3911980
  58.8445040  55.5829410  30.6927820  58.3141500  55.0920360  30.0651160
  59.5133110  56.0113610  30.1585750  63.1945260  58.6270470  15.1333940
  63.7150920  57.9119490  14.7675090  63.8413660  59.2656340  15.4334450
  67.7423100  60.0498870  30.4569010  68.1564120  60.2043950  31.3059430
  66.8074100  60.1754090  30.6194790  68.2145270  57.3895030  32.4608160
  68.7966040  56.6347350  32.3728640  68.3907040  57.9202470  31.6839640
  59.3317340  52.5491780  30.7725110  59.2374210  51.9312530  30.0475980
  58.7514730  53.2758070  30.5455020  62.0978780  51.1065020  27.8052500
  61.6496080  51.1289280  26.9598050  61.4643980  50.7084040  28.4022800
  62.5038330  60.0019350  28.4264940  62.9226440  60.8452080  28.2541180
  61.5846960  60.1391390  28.1971720  64.8402230  57.7335530  29.8102780
  64.9598440  57.1376670  30.5497620  65.6996230  57.7705220  29.3904080
  67.1790130  58.2872720  28.3865290  66.6525350  58.8115340  27.7830430
  67.5221470  58.9200110  29.0175020  59.5776520  55.6766090  14.8315000
  59.3765580  54.8133450  15.1928340  59.4068570  55.5899450  13.8936600
  60.3545750  66.3072360  29.5422670  59.8166840  67.0318420  29.2231370
  60.6079710  65.8302700  28.7520010  61.6071000  54.2756880  31.0678600
  62.1970690  53.9672730  31.7556420  60.7891240  53.8036630  31.2238500
  66.4264430  53.8922690  31.3011620  65.7379950  53.2304230  31.2361610
  67.1470450  53.4460960  31.7460080  67.0564830  50.4874320  17.3601880
  67.3367120  49.6442220  17.7161300  66.2830560  50.7197430  17.8740630
  58.3759320  52.7766710  14.8192880  58.6785220  52.7834140  13.9112030
  59.1153910  52.4264570  15.3160540  63.2107960  67.5423570  29.8009320
  63.1366660  68.4458710  30.1081690  62.3086800  67.2235470  29.7731390
  61.5944250  51.7201330  15.8049080  61.2466250  51.0425320  15.2251530
  61.7957020  51.2590840  16.6192470  63.7593290  66.7082080  17.4235680
  64.6544080  67.0467050  17.4454440  63.7910920  65.9861490  16.7959960
  57.3989450  62.0809130  15.6522680  57.8364320  62.6238800  16.3080260
  57.8837180  61.2556080  15.6619020  54.6135250  64.8698160  23.1042940
  54.9438260  64.0019220  22.8721580  55.0426250  65.0756680  23.9347900
  59.2097170  63.2007170  20.7644910  58.9092710  63.0772140  21.6648820
  59.1034660  62.3415760  20.3560640  55.1025460  65.7368750  25.8424570
  54.6656450  65.9169550  26.6748720  55.6703140  66.4943370  25.7006290
  70.7387640  65.2385750  30.1301880  70.1389630  65.2978310  29.3865800
  70.8681540  64.2990730  30.2598730  71.9789090  62.9803570  15.4671590
  71.1482050  63.0480220  15.9378820  72.1560920  63.8707690  15.1638450
  71.4345550  59.7251050  17.9705790  72.1964460  60.2947700  18.0765480
  71.4499920  59.1578250  18.7414100  54.9349890  58.2488980  22.2013450
  54.2798730  57.9800620  21.5573150  55.7727840  58.1393460  21.7515430
  72.4405520  60.5801150  22.8147720  72.8114350  59.7968470  22.4083690
  73.0807450  61.2690250  22.6365020  69.4239280  61.9637730  28.2278040
  68.6099120  62.3934890  28.4903830  69.8313480  62.5756140  27.6147090
  71.4864720  60.0185420  15.1278310  71.7613560  60.9264300  14.9997530
  71.2975460  59.9547950  16.0640300  67.8840330  53.0430270  16.4231940
  68.3025210  52.8561250  15.5828600  67.5776390  52.1909320  16.7334870
  71.3830060  57.9554410  20.1207740  71.0073660  57.1882340  19.6889030
  70.6533180  58.3377110  20.6082670  55.9725820  58.6341550  26.7416790
  56.3398860  58.5468950  27.6212810  55.4036640  57.8708100  26.6423650
  70.7729680  57.1025930  29.7547260  70.5415770  56.8738680  28.8545210
  71.0334230  58.0225480  29.7092150  55.5241820  55.5450640  30.6475210
  54.6297870  55.5117400  30.9868920  56.0639370  55.7437430  31.4126460
  54.1487970  55.4587910  18.1438780  53.2452050  55.7218110  17.9690440
  54.6328590  55.7299080  17.3638740  70.6581020  56.1811900  23.4214980
  71.1818500  55.6874550  22.7905150  71.2440440  56.3162260  24.1662550
  70.8370740  56.2651770  26.9434530  69.8873450  56.2315310  27.0579520
  71.0183750  57.1751880  26.7084300  56.6915180  54.5153450  16.0533160
  57.4006880  54.0936670  15.5680440  55.9755120  54.5828680  15.4216510
  56.3389340  50.5692780  15.0935810  57.0617470  51.1101720  15.4117030
  56.6113860  50.2956200  14.2177350  70.1480990  55.4385250  19.3607390
  70.6440110  55.2056120  20.1456270  69.9497060  54.5997090  18.9445030
  56.0281530  49.8198970  24.9958430  56.6757720  49.2696350  24.5553590
  56.4483370  50.0742120  25.8174240  71.5768150  54.0746200  21.8945070
  71.4667430  53.9202240  22.8327340  72.3375740  53.5467140  21.6520480
  69.9233870  50.0140330  28.3528070  70.5606090  50.6274470  28.7187260
  70.0708760  50.0500990  27.4077300  72.4658420  51.9054120  15.1351210
  73.3907730  51.7735300  14.9269500  72.4434210  51.9846940  16.0887660
  72.5396910  52.6764780  17.7607920  71.7448410  52.6109900  18.2900830
  72.7440190  53.6115420  17.7493270  69.4815330  66.7156330  21.7546310
  70.0774400  66.3940900  21.0780730  69.7393480  66.2428150  22.5459580
  55.7813530  49.9754640  27.7383750  55.4328350  50.4318460  28.5041930
  55.4501230  49.0811770  27.8206180  57.3877900  63.1474240  31.9036940
  57.3447530  62.7767150  32.7851400  57.5188910  64.0851810  32.0438760
  61.0883930  64.7033830  27.5046660  60.8475290  64.9708390  26.6177180
  62.0286570  64.8739560  27.5597520  63.2938350  51.1666520  31.2603170
  63.2327240  51.7588350  32.0098580  64.2338730  51.0592480  31.1153430
  65.9312910  50.8236580  30.8995460  66.5453320  51.1415870  30.2376540
  66.4762470  50.3385170  31.5191320  72.3488090  66.7228210  28.3057300
  71.8546370  67.1197080  27.5884430  71.7401380  66.0977420  28.6994580
  56.4534170  49.5030840  31.0134520  57.0017160  49.3218890  30.2500630
  56.5189480  48.7124950  31.5490830  57.2265930  66.0936490  29.0234720
  56.6326250  65.9621190  29.7624760  57.2189770  65.2574630  28.5576820
  66.6720950  49.3868720  27.2264750  65.7980790  49.7203830  27.0237680
  66.5631700  48.9141900  28.0516620  67.5792930  51.5939590  28.6106470
  67.2506290  50.7791350  28.2308200  68.5275230  51.5509400  28.4872160
  70.0327540  67.3651630  25.5844040  69.5730510  68.1167440  25.2102060
  69.4040000  66.6458100  25.5258840  56.8578160  63.4594870  27.9742760
  56.1312220  62.8400160  27.9068710  56.9187310  63.8535480  27.1040840
  60.4623260  65.6739870  24.7592170  60.9788280  65.0627230  24.2340430
  61.1120640  66.1768650  25.2503180  63.2018760  66.5648360  25.5861150
  63.4896570  66.3102660  24.7094160  63.7141980  66.0125720  26.1766720
  64.4195770  50.3038560  26.1657660  63.6367560  50.7784060  26.4454420
  64.1258700  49.3993390  26.0570840  68.9716840  51.0061660  24.2106750
  69.4124930  50.9506760  23.3628350  68.7024430  51.9219670  24.2816930
  70.8355410  50.6376900  22.2215570  70.7743810  49.6938120  22.0746590
  71.6147440  50.7456990  22.7669030  55.1408160  66.7769260  21.1839520
  54.9730200  66.1439940  21.8821410  54.2742670  66.9828660  20.8333710
  55.7636180  50.6086040  18.6871380  56.5215540  50.7214920  18.1135410
  55.3013350  51.4455240  18.6414810  62.3049990  52.7225310  21.6773690
  61.4924500  52.3482200  21.3369570  62.8091630  51.9670390  21.9794880
  66.8074970  49.3867760  22.9156760  67.4104340  49.9587970  23.3905280
  66.0667960  49.9507200  22.6930660  69.9509570  49.7889320  18.1897040
  70.1460200  50.6872770  18.4564470  69.1639440  49.5576400  18.6829990
  56.7470860  65.4702490  18.6289660  56.2218480  65.8510520  17.9251620
  56.6715440  66.0953260  19.3499370  58.1361330  51.1350090  17.2273350
  58.6654090  50.3479890  17.0981300  58.7689650  51.8141280  17.4608880
  60.3299170  50.8725230  20.2818740  59.7001910  50.1712540  20.4488870
  59.7904310  51.6329360  20.0651900  63.2691120  67.4864460  32.9529350
  64.1958430  67.2508730  32.9965310  63.2541550  68.3136460  32.4715380
  71.5036180  67.0290030  19.9503600  71.6788370  66.3427770  19.3064520
  70.8057750  67.5537080  19.5580270  60.4554730  50.1509210  32.7171230
  60.1739000  50.6542810  31.9532050  60.8374430  49.3530960  32.3513360
  59.3463830  67.4184870  17.5038910  60.0782650  67.1344150  16.9562800
  59.6057500  67.1798150  18.3938290  58.5078620  63.5349600  17.5085240
  57.8787500  64.0034700  18.0571070  58.6226450  62.6898820  17.9431430
  69.8368680  66.7134320  32.7770390  70.6294000  66.2183550  32.5696350
  70.1301830  67.3924460  33.3846000  65.9628340  57.5855260   3.6586440
  65.8822390  56.6709870   3.3878150  65.5492760  58.0822330   2.9526150
  64.0946380  59.3634280   5.5395710  63.3188480  58.8834720   5.8294280
  64.7459310  58.6839930   5.3651870  58.1112210  59.6754090   6.4171470
  57.2797090  59.4202800   6.8167980  58.7193190  59.7464860   7.1529390
  68.1153810  63.7694470   4.3194840  67.6535340  62.9981710   4.6482010
  68.9279360  63.7960540   4.8247290  58.0913470  63.7094180   6.6129490
  58.3941510  62.8191920   6.4339710  58.8357060  64.2664400   6.3851740
  54.4837170  57.2361630   6.0853560  55.0553280  56.4683830   6.0857200
  54.4838710  57.5350390   5.1760170  64.3417120  66.0552480   3.9398830
  63.7228560  66.5109980   3.3693270  65.1968900  66.2103940   3.5388530
  63.5355370  62.0391470   5.5465870  63.4663650  61.0981410   5.3855000
  64.2975230  62.1292880   6.1188440  55.7262040  52.6445990   7.8722490
  55.5464880  51.7471740   8.1525250  55.3242120  53.1917860   8.5469440
  64.5660540  54.8461850   5.7734800  64.9425360  53.9733730   5.6608470
  64.4680050  55.1820550   4.8825240  68.3484660  52.3412290   2.7063140
  69.1694280  51.8508860   2.7488620  68.3818740  52.9309950   3.4594980
  56.3448710  55.1406490   6.4804830  57.0258820  55.4044860   7.0992230
  56.0296760  54.3007360   6.8142840  60.5373280  56.1873850   5.5677420
  61.0451500  56.6854820   6.2082440  61.0686520  55.4109050   5.3916780
  72.6384210  54.3579040   9.2706770  71.9336380  54.7460750   8.7521880
  72.9042130  55.0529330   9.8727700  58.8209380  50.8272410   9.8340840
  58.8227820  51.3444800   9.0286740  57.9913690  50.3502590   9.8110770
  60.0712230  60.4667590   8.0114340  59.7381610  61.0936510   8.6535410
  60.2478910  60.9929470   7.2316010  68.5846140  54.2812670   5.4790680
  67.8801710  54.5697560   6.0593790  68.9458300  55.0912780   5.1190240
  58.5024710  52.5382370   7.8411290  58.8441520  53.3824420   7.5465160
  57.5640520  52.6866110   7.9576630  59.2831330  62.4348390   9.8263520
  59.9005330  63.1099470   9.5447970  58.4224450  62.8436370   9.7351020
  70.2008920  63.8987800   7.7418160  69.5172440  64.5686910   7.7334830
  70.7403210  64.0968450   6.9763020  71.6533060  53.7267460   5.8699890
  70.7057970  53.7606440   6.0015320  71.9783050  54.5406410   6.2549250
  62.1852600  50.0264640   4.1655880  62.4927580  49.4711530   3.4491380
  61.2553300  50.1609100   3.9828870  67.7367660  65.7431930   6.4563340
  67.7494820  65.3394220   5.5885600  67.1842880  66.5179220   6.3524770
  67.1353100  60.6461770   7.7845950  67.5521890  60.4321880   6.9499410
  67.8592920  60.9034560   8.3554570  71.0815200  59.0448990   7.8762190
  70.2533830  59.1142080   7.4012320  71.6765680  59.6303300   7.4078020
  68.0457210  55.8318310   8.8217060  67.6328390  56.6572020   9.0757050
  67.3133160  55.2463350   8.6293420  60.1790000  58.6178210   3.6835730
  59.7747000  57.9055460   3.1881630  60.2653120  58.2731450   4.5723770
  60.6471700  62.3045770   5.8474940  60.3499990  61.6991240   5.1682720
  61.5971520  62.3423080   5.7364300  58.8918620  55.3921420   7.4634770
  59.4433210  55.5016760   6.6888020  59.4062130  55.7659020   8.1790000
  68.7357310  65.8777640   9.5098040  68.2587870  66.6849830   9.3170650
  68.0519100  65.2255970   9.6624250  59.7390130  62.0427460  12.4982740
  58.8418660  62.2667430  12.7456140  59.7643000  62.1662400  11.5494140
  58.5661350  58.9140780  11.0740110  58.4269120  59.7863580  11.4427510
  57.6842710  58.5713590  10.9288050  64.8890730  63.8316650   2.3805240
  65.3286640  64.5740980   1.9660630  64.8277620  64.0743220   3.3044200
  60.3641700  64.8562480  13.2825260  60.3357130  65.2605430  12.4153690
  60.2006670  63.9272840  13.1196860  72.3156520  65.6389580  14.5789430
  72.7916240  66.1172470  15.2578510  72.9363680  65.5707070  13.8534930
  54.5180000  60.6838330   6.9911020  54.5960420  60.8187100   6.0466740
  55.1321680  59.9754220   7.1839140  55.7627630  62.3838520   3.4017200
  55.3555710  62.5253110   2.5470800  56.6540640  62.0998680   3.1988410
  71.7189770  62.8302430  11.7389440  71.8452830  62.5914310  10.8206620
  71.7611150  61.9986970  12.2111520  65.5806510  66.5330430  10.3084250
  66.0951180  66.4438440  11.1106680  64.7375590  66.8790130  10.6012160
  66.8236970  65.9536040   2.3714740  67.2793920  65.1725420   2.6853360
  67.1629490  66.6642860   2.9155920  71.5713780  54.8834890  12.7039180
  70.9558050  55.3914560  12.1754640  71.2510200  53.9833220  12.6465120
  54.5739520  61.7252500   9.5305480  54.7370560  61.2557860   8.7124850
  55.0391970  61.2176060  10.1954320  59.3458290  50.8558260   4.5666050
  58.9026440  51.6367800   4.2350570  59.9043280  51.1788150   5.2736990
  63.6328100  53.7226780  10.1701370  63.1707470  53.9309800  10.9821310
  63.2306210  52.9086130   9.8672040  68.6332610  54.9435730  11.2998030
  67.7826200  54.6441480  11.6207100  68.4734400  55.1877740  10.3881850
  65.7282320  56.4437480  13.3996820  66.0535730  55.6101230  13.0599050
  66.5162650  56.9666000  13.5475150  61.3834190  51.4005590   6.4255650
  61.6806520  52.3068420   6.3447670  61.9319750  50.9124370   5.8115220
  59.1372510  55.9791830   2.2947300  58.9113430  55.7629000   3.1993920
  58.3565040  56.4120290   1.9493270  61.5771720  56.8777410  12.9607570
  61.4815320  55.9372140  12.8107970  62.4203700  57.0992480  12.5655640
  64.9735140  54.6218740   2.9241230  65.3664710  54.9390940   2.1109920
  65.3351990  53.7430620   3.0385750  56.7082260  53.2891080  11.1141350
  56.3145650  54.1366290  11.3214130  56.0200660  52.6517450  11.3049990
  63.2827310  53.3726050  14.1838090  62.5925630  53.1798250  14.8184180
  64.0259610  53.6560690  14.7162390  54.0099310  51.2119540   5.1471430
  53.7212360  51.7822400   5.8596410  54.7545070  50.7323990   5.5102660
  65.5590280  57.2124490   7.0192010  64.8271400  57.7211300   7.3682110
  65.1614620  56.3954470   6.7180790  61.9967670  53.8878690   5.4244500
  62.0003730  53.4468640   4.5749040  62.8918790  54.2096020   5.5316320
  57.8470050  53.7705180   4.3838710  57.5070100  54.2480410   5.1405760
  57.0847370  53.3170300   4.0239810  66.0216190  52.6658170   6.4314950
  66.0388930  53.1166820   7.2756800  65.7731770  51.7663810   6.6448390
  69.4486940  50.0790350  12.2701330  69.7732710  49.3480010  12.7959310
  69.4843450  49.7603990  11.3682320  56.1478500  61.1003930  11.6901290
  55.7633290  60.4597600  12.2884250  56.4590690  61.8040050  12.2596020
  62.2975640  57.9480470   7.1709910  62.6645770  57.4739040   7.9171250
  62.1080700  58.8222040   7.5118250  55.1616130  52.6924160   3.3003380
  54.8763050  52.3279830   4.1382000  55.0994990  51.9604620   2.6866520
  60.0875010  56.9889110   9.4894120  59.7832080  57.8681090   9.7144480
  61.0421470  57.0488900   9.5251560  69.3744780  60.1915460   5.8787360
  70.0943900  60.6870750   5.4883470  69.1726600  59.5133350   5.2341230
  64.7563580  60.2624520  11.7656360  64.6900890  59.3420190  11.5113950
  64.1268720  60.3599960  12.4801000  58.6594200  60.8630480   3.7239780
  59.1772870  60.0598740   3.6696670  58.2078220  60.8009620   4.5656610
  56.1438740  57.8291850  10.6365480  55.7853680  58.4945700  11.2238820
  55.8493300  56.9975400  11.0078100  59.3451860  58.2876090  13.5205030
  59.0452000  58.4333270  12.6232850  60.1163100  57.7281380  13.4278420
  64.6880310  63.0845090  11.5160160  64.7024850  62.1526050  11.2979070
  63.9805410  63.1704850  12.1549930  70.8991520  59.7252430  10.8628740
  70.1739710  60.3181210  10.6658130  71.4266980  59.7175970  10.0642110
  66.4291110  61.4512600   4.3612590  66.7814930  60.8540730   3.7013960
  65.5453440  61.1256830   4.5320840  62.5154390  62.2110290   1.7683000
  63.2025520  62.7579500   2.1490590  61.7286810  62.7551020   1.8032610
  64.1214210  64.7262660   8.6100660  64.7656430  64.9322040   9.2874080
  64.4843650  63.9651060   8.1571510  65.3946290  62.7295010   7.3278110
  66.0368520  62.0288170   7.4410280  65.9195640  63.5093450   7.1475000
  67.1683910  63.5289910  10.5314170  67.5040150  64.1156600  11.2092090
  66.2484250  63.3982620  10.7611960  54.7187310  51.3185090  11.3137580
  54.0045830  51.5182010  11.9190190  55.1382350  50.5424660  11.6852380
  55.0059900  65.3065350  12.3004110  55.1151020  64.3660090  12.1599500
  54.3540460  65.5720100  11.6517840  62.9972490  63.5781240  13.7002230
  62.6769360  62.8590480  14.2447920  62.3230850  64.2536310  13.7738290
  66.2126090  53.8107400   9.0639030  66.5806910  52.9902610   9.3918600
  65.3524290  53.8709290   9.4794680  63.1728080  56.4646990   9.2877000
  63.6713330  56.9392810   9.9528850  63.3151030  55.5410510   9.4947030
  65.5787580  51.7700950   2.7280260  65.4555360  51.7887080   1.7789770
  66.5272140  51.8179890   2.8478660  70.3794940  52.6814950  10.1305390
  69.8768540  53.4220350  10.4699200  71.1951600  53.0698950   9.8142180
  68.6716950  57.9248130   3.5766750  67.7307090  57.9398360   3.7514440
  68.9861020  57.1384090   4.0227050  70.6742530  65.0956980   5.2521010
  70.7989950  65.9188150   5.7244820  71.5408090  64.8847710   4.9045160
  58.1460060  67.1888190   4.9238140  58.8822540  66.6403650   5.1946710
  58.5300980  68.0544200   4.7844130  57.1518340  66.3734260  14.1123720
  57.9531070  66.6946310  14.5259120  56.6370160  66.0129840  14.8343630
  65.9882970  62.4814130  14.0599130  65.3821130  62.5045730  13.3194880
  65.6837080  61.7497170  14.5966380  67.4183340  66.2094420  12.6708540
  68.3705090  66.1252440  12.6208780  67.2711560  66.8736130  13.3442330
  54.8716150  58.8607720  13.0559770  55.3755170  58.2815000  13.6276000
  54.1323570  59.1447950  13.5936140  61.9254090  60.2678710  12.5895290
  61.1599760  60.8363710  12.5049960  62.1070050  59.9754920  11.6963520
  69.0677440  61.9984040  13.1470310  69.8086910  62.3359800  12.6437770
  68.3050120  62.1676100  12.5940080  56.9039230  57.0037310  13.9509840
  56.9444570  56.7051180  14.8595070  57.7584730  57.4044920  13.7917360
  58.8445040  55.5829410  11.9184330  58.3141500  55.0920360  11.2907670
  59.5133110  56.0113610  11.3842260  67.7423100  60.0498870  11.6825520
  68.1564120  60.2043950  12.5315940  66.8074100  60.1754090  11.8451300
  68.2145270  57.3895030  13.6864670  68.7966040  56.6347350  13.5985150
  68.3907040  57.9202470  12.9096150  59.3317340  52.5491780  11.9981620
  59.2374210  51.9312530  11.2732490  58.7514730  53.2758070  11.7711530
  62.0978780  51.1065020   9.0309010  61.6496080  51.1289280   8.1854560
  61.4643980  50.7084040   9.6279310  62.5038330  60.0019350   9.6521450
  62.9226440  60.8452080   9.4797690  61.5846960  60.1391390   9.4228230
  64.8402230  57.7335530  11.0359290  64.9598440  57.1376670  11.7754130
  65.6996230  57.7705220  10.6160590  67.1790130  58.2872720   9.6121800
  66.6525350  58.8115340   9.0086940  67.5221470  58.9200110  10.2431530
  60.3545750  66.3072360  10.7679180  59.8166840  67.0318420  10.4487880
  60.6079710  65.8302700   9.9776520  61.6071000  54.2756880  12.2935110
  62.1970690  53.9672730  12.9812930  60.7891240  53.8036630  12.4495010
  66.4264430  53.8922690  12.5268130  65.7379950  53.2304230  12.4618120
  67.1470450  53.4460960  12.9716590  63.2107960  67.5423570  11.0265830
  63.1366660  68.4458710  11.3338200  62.3086800  67.2235470  10.9987900
  54.6135250  64.8698160   4.3299450  54.9438260  64.0019220   4.0978090
  55.0426250  65.0756680   5.1604410  55.1025460  65.7368750   7.0681080
  54.6656450  65.9169550   7.9005230  55.6703140  66.4943370   6.9262800
  70.7387640  65.2385750  11.3558390  70.1389630  65.2978310  10.6122310
  70.8681540  64.2990730  11.4855240  54.9349890  58.2488980   3.4269960
  54.2798730  57.9800620   2.7829660  55.7727840  58.1393460   2.9771940
  72.4405520  60.5801150   4.0404230  72.8114350  59.7968470   3.6340200
  73.0807450  61.2690250   3.8621530  69.4239280  61.9637730   9.4534550
  68.6099120  62.3934890   9.7160340  69.8313480  62.5756140   8.8403600
  55.9725820  58.6341550   7.9673300  56.3398860  58.5468950   8.8469320
  55.4036640  57.8708100   7.8680160  70.7729680  57.1025930  10.9803770
  70.5415770  56.8738680  10.0801720  71.0334230  58.0225480  10.9348660
  55.5241820  55.5450640  11.8731720  54.6297870  55.5117400  12.2125430
  56.0639370  55.7437430  12.6382970  69.2117750  52.3282360  13.7583470
  70.0887930  52.3365760  14.1417470  69.2238590  51.5913200  13.1475820
  70.6581020  56.1811900   4.6471490  71.1818500  55.6874550   4.0161660
  71.2440440  56.3162260   5.3919060  70.8370740  56.2651770   8.1691040
  69.8873450  56.2315310   8.2836030  71.0183750  57.1751880   7.9340810
  56.0281530  49.8198970   6.2214940  56.6757720  49.2696350   5.7810100
  56.4483370  50.0742120   7.0430750  71.5768150  54.0746200   3.1201580
  71.4667430  53.9202240   4.0583850  72.3375740  53.5467140   2.8776990
  69.9233870  50.0140330   9.5784580  70.5606090  50.6274470   9.9443770
  70.0708760  50.0500990   8.6333810  69.4815330  66.7156330   2.9802820
  70.0774400  66.3940900   2.3037240  69.7393480  66.2428150   3.7716090
  55.7813530  49.9754640   8.9640260  55.4328350  50.4318460   9.7298440
  55.4501230  49.0811770   9.0462690  57.3877900  63.1474240  13.1293450
  57.3447530  62.7767150  14.0107910  57.5188910  64.0851810  13.2695270
  61.0883930  64.7033830   8.7303170  60.8475290  64.9708390   7.8433690
  62.0286570  64.8739560   8.7854030  63.2938350  51.1666520  12.4859680
  63.2327240  51.7588350  13.2355090  64.2338730  51.0592480  12.3409940
  65.9312910  50.8236580  12.1251970  66.5453320  51.1415870  11.4633050
  66.4762470  50.3385170  12.7447830  72.3488090  66.7228210   9.5313810
  71.8546370  67.1197080   8.8140940  71.7401380  66.0977420   9.9251090
  56.4534170  49.5030840  12.2391030  57.0017160  49.3218890  11.4757140
  56.5189480  48.7124950  12.7747340  57.2265930  66.0936490  10.2491230
  56.6326250  65.9621190  10.9881270  57.2189770  65.2574630   9.7833330
  66.6720950  49.3868720   8.4521260  65.7980790  49.7203830   8.2494190
  66.5631700  48.9141900   9.2773130  67.5792930  51.5939590   9.8362980
  67.2506290  50.7791350   9.4564710  68.5275230  51.5509400   9.7128670
  70.0327540  67.3651630   6.8100550  69.5730510  68.1167440   6.4358570
  69.4040000  66.6458100   6.7515350  56.8578160  63.4594870   9.1999270
  56.1312220  62.8400160   9.1325220  56.9187310  63.8535480   8.3297350
  60.4623260  65.6739870   5.9848680  60.9788280  65.0627230   5.4596940
  61.1120640  66.1768650   6.4759690  63.2018760  66.5648360   6.8117660
  63.4896570  66.3102660   5.9350670  63.7141980  66.0125720   7.4023230
  64.4195770  50.3038560   7.3914170  63.6367560  50.7784060   7.6710930
  64.1258700  49.3993390   7.2827350  68.9716840  51.0061660   5.4363260
  69.4124930  50.9506760   4.5884860  68.7024430  51.9219670   5.5073440
  70.8355410  50.6376900   3.4472080  70.7743810  49.6938120   3.3003100
  71.6147440  50.7456990   3.9925540  55.1408160  66.7769260   2.4096030
  54.9730200  66.1439940   3.1077920  54.2742670  66.9828660   2.0590220
  62.3049990  52.7225310   2.9030200  61.4924500  52.3482200   2.5626080
  62.8091630  51.9670390   3.2051390  66.8074970  49.3867760   4.1413270
  67.4104340  49.9587970   4.6161790  66.0667960  49.9507200   3.9187170
  63.2691120  67.4864460  14.1785860  64.1958430  67.2508730  14.2221820
  63.2541550  68.3136460  13.6971890  60.4554730  50.1509210  13.9427740
  60.1739000  50.6542810  13.1788560  60.8374430  49.3530960  13.5769870
  67.0570190  49.5662790  14.5208210  66.9435640  49.8857400  15.4159730
  67.8739930  49.9675300  14.2245490  69.8368680  66.7134320  14.0026900
  70.6294000  66.2183550  13.7952860  70.1301830  67.3924460  14.6102510
  65.9628340  38.8111770  97.5303890  65.8822390  37.8966380  97.2595600
  65.5492760  39.3078840  96.8243600  64.0946380  40.5890790  99.4113160
  63.3188480  40.1091230  99.7011730  64.7459310  39.9096440  99.2369320
  58.1112210  40.9010600 100.2888920  57.2797090  40.6459310 100.6885430
  58.7193190  40.9721370 101.0246840  68.1153810  44.9950980  98.1912290
  67.6535340  44.2238220  98.5199460  68.9279360  45.0217050  98.6964740
  58.0913470  44.9350690 100.4846940  58.3941510  44.0448430 100.3057160
  58.8357060  45.4920910 100.2569190  56.5204160  35.8612490  94.0731310
  55.6320860  36.2028460  93.9711190  56.8045350  35.6612810  93.1812140
  54.4837170  38.4618140  99.9571010  55.0553280  37.6940340  99.9574650
  54.4838710  38.7606900  99.0477620  64.3417120  47.2808990  97.8116280
  63.7228560  47.7366490  97.2410720  65.1968900  47.4360450  97.4105980
  63.5355370  43.2647980  99.4183320  63.4663650  42.3237920  99.2572450
  64.2975230  43.3549390  99.9905890  55.7262040  33.8702500 101.7439940
  55.5464880  32.9728250 102.0242700  55.3242120  34.4174370 102.4186890
  64.5660540  36.0718360  99.6452250  64.9425360  35.1990240  99.5325920
  64.4680050  36.4077060  98.7542690  58.6965550  34.4443990  95.1069690
  58.8032300  35.3447720  95.4138450  57.7857910  34.3961960  94.8164340
  68.3484660  33.5668800  96.5780590  69.1694280  33.0765370  96.6206070
  68.3818740  34.1566460  97.3312430  56.3448710  36.3663000 100.3522280
  57.0258820  36.6301370 100.9709680  56.0296760  35.5263870 100.6860290
  60.5373280  37.4130360  99.4394870  61.0451500  37.9111330 100.0799890
  61.0686520  36.6365560  99.2634230  65.2080470  42.1648230  95.2048190
  64.5897740  42.6297680  94.6410910  65.7203720  42.8575710  95.6217700
  60.0712230  41.6924100 101.8831790  59.7381610  42.3193020 102.5252860
  60.2478910  42.2185980 101.1033460  68.5846140  35.5069180  99.3508130
  67.8801710  35.7954070  99.9311240  68.9458300  36.3169290  98.9907690
  58.5024710  33.7638880 101.7128740  58.8441520  34.6080930 101.4182610
  57.5640520  33.9122620 101.8294080  54.5763670  42.8504760  92.5787820
  54.1991650  43.3391860  91.8472720  54.8336740  43.5230040  93.2094350
  70.2008920  45.1244310 101.6135610  69.5172440  45.7943420 101.6052280
  70.7403210  45.3224960 100.8480470  71.6533060  34.9523970  99.7417340
  70.7057970  34.9862950  99.8732770  71.9783050  35.7662920 100.1266700
  62.1852600  31.2521150  98.0373330  62.4927580  30.6968040  97.3208830
  61.2553300  31.3865610  97.8546320  67.7367660  46.9688440 100.3280790
  67.7494820  46.5650730  99.4603050  67.1842880  47.7435730 100.2242220
  69.0313080  43.6904660  95.4170960  68.9209410  42.7478990  95.5420380
  69.0281330  44.0520300  96.3033720  67.1353100  41.8718280 101.6563400
  67.5521890  41.6578390 100.8216860  67.8592920  42.1291070 102.2272020
  64.5733360  39.3169980  94.7733450  63.6462640  39.2507360  95.0021920
  64.7258180  40.2550110  94.6588690  64.5602440  35.5886980  91.7700610
  63.6206110  35.7500940  91.8553070  64.8785700  36.3072660  91.2236600
  71.0815200  40.2705500 101.7479640  70.2533830  40.3398590 101.2729770
  71.6765680  40.8559810 101.2795470  68.6030650  40.8790280  95.2768700
  67.9843070  40.5409830  94.6295000  68.5855100  40.2350040  95.9847890
  60.1790000  39.8434720  97.5553180  59.7747000  39.1311970  97.0599080
  60.2653120  39.4987960  98.4441220  60.6471700  43.5302280  99.7192390
  60.3499990  42.9247750  99.0400170  61.5971520  43.5679590  99.6081750
  58.8918620  36.6177930 101.3352220  59.4433210  36.7273270 100.5605470
  59.4062130  36.9915530 102.0507450  66.7795350  40.1177090  92.2841450
  67.2188630  39.2799520  92.1379270  67.4923770  40.7506490  92.3705590
  64.8890730  45.0573160  96.2522690  65.3286640  45.7997490  95.8378080
  64.8277620  45.2999730  97.1761650  70.3612490  31.3719900  90.5982490
  70.0485150  31.4646730  91.4981560  71.1224960  31.9500930  90.5479920
  56.8794630  38.7379700  95.0559830  56.7592230  39.4641790  94.4441100
  56.5695520  37.9682610  94.5787740  54.5180000  41.9094840 100.8628470
  54.5960420  42.0443610  99.9184190  55.1321680  41.2010730 101.0556590
  55.7627630  43.6095030  97.2734650  55.3555710  43.7509620  96.4188250
  56.6540640  43.3255190  97.0705860  67.5560910  48.0442280  93.6085700
  67.3962050  47.7545220  94.5067530  67.3907620  47.2682410  93.0730930
  60.0349290  47.8240810  95.3857320  59.8591770  46.9076350  95.1725120
  59.1805030  48.1828100  95.6255120  67.2587040  45.5529840  92.1683700
  66.5652200  45.5507130  91.5085980  68.0009900  45.1289160  91.7377870
  66.8236970  47.1792550  96.2432190  67.2793920  46.3981930  96.5570810
  67.1629490  47.8899370  96.7873370  59.3458290  32.0814770  98.4383500
  58.9026440  32.8624310  98.1068020  59.9043280  32.4044660  99.1454440
  62.4617110  31.7025470  93.3189330  61.8371290  31.6985340  94.0442640
  62.3747230  30.8356430  92.9225300  61.3834190  32.6262100 100.2973100
  61.6806520  33.5324930 100.2165120  61.9319750  32.1380880  99.6832670
  59.1372510  37.2048340  96.1664750  58.9113430  36.9885510  97.0711370
  58.3565040  37.6376800  95.8210720  66.3670270  37.2111710  94.7655400
  65.7679160  37.9347510  94.5819020  66.9149880  37.1488490  93.9831850
  64.9735140  35.8475250  96.7958680  65.3664710  36.1647450  95.9827370
  65.3351990  34.9687130  96.9103200  54.0099310  32.4376050  99.0188880
  53.7212360  33.0078910  99.7313860  54.7545070  31.9580500  99.3820110
  54.1969540  36.3796170  90.2291600  54.1144210  37.3226930  90.3706590
  53.8452600  36.2371080  89.3503950  65.5590280  38.4381000 100.8909460
  64.8271400  38.9467810 101.2399560  65.1614620  37.6210980 100.5898240
  61.9967670  35.1135200  99.2961950  62.0003730  34.6725150  98.4466490
  62.8918790  35.4352530  99.4033770  57.8470050  34.9961690  98.2556160
  57.5070100  35.4736920  99.0123210  57.0847370  34.5426810  97.8957260
  62.0587820  36.1147280  92.2868710  62.1800640  36.0733760  93.2354530
  61.6736330  36.9771430  92.1315440  66.0216190  33.8914680 100.3032400
  66.0388930  34.3423330 101.1474250  65.7731770  32.9920320 100.5165840
  61.0709320  38.4248420  91.6852010  60.5026220  37.9766670  91.0587920
  61.7798320  38.7841200  91.1517160  62.2975640  39.1736980 101.0427360
  62.6645770  38.6995550 101.7888700  62.1080700  40.0478550 101.3835700
  55.1616130  33.9180670  97.1720830  54.8763050  33.5536340  98.0099450
  55.0994990  33.1861130  96.5583970  58.6156800  42.4206610  93.9578420
  57.8419060  41.8804230  93.7977140  59.3451430  41.9013220  93.6196180
  69.3744780  41.4171970  99.7504810  70.0943900  41.9127260  99.3600920
  69.1726600  40.7389860  99.1058680  64.8354720  32.8109930  93.8934200
  64.0219330  32.3123100  93.8179510  64.6416670  33.6508180  93.4770550
  67.5503110  37.1829580  92.1896360  68.4382730  37.4946810  92.0147700
  67.5208200  36.3101830  91.7976940  58.6594200  42.0886990  97.5957230
  59.1772870  41.2855250  97.5414120  58.2078220  42.0266130  98.4374060
  63.5463700  43.3553270  92.8684530  63.8879400  44.0995500  92.3727850
  62.7176410  43.6684390  93.2309360  69.8217380  38.4941420  91.6576220
  69.7381100  38.9255640  90.8072660  70.5411570  38.9539770  92.0903040
  70.8504630  45.3483680  94.3858350  70.2080790  44.6939300  94.6602070
  70.4635290  45.7538770  93.6099020  66.4291110  42.6769110  98.2330040
  66.7814930  42.0797240  97.5731410  65.5453440  42.3513340  98.4038290
  62.5154390  43.4366800  95.6400450  63.2025520  43.9836010  96.0208040
  61.7286810  43.9807530  95.6750060  54.6546790  39.0539620  91.1317530
  55.5241640  39.3364420  91.4153450  54.1637110  39.8675490  91.0166340
  61.8181600  40.4412830  95.2525810  62.2744380  41.2518080  95.4786000
  61.4669810  40.1235970  96.0844300  57.7193380  30.7850480  95.7248330
  57.5908010  30.7768380  96.6733250  56.8955400  31.1233570  95.3739340
  65.3946290  43.9551520 101.1995560  66.0368520  43.2544680 101.3127730
  65.9195640  44.7349960 101.0192450  69.2402010  44.2400140  90.9234700
  69.0139590  43.5230580  91.5159340  68.8498210  43.9912580  90.0856450
  55.0218040  48.2667000  91.6979160  55.3815680  48.8656340  91.0436430
  54.8810380  48.8126890  92.4714190  68.8218260  42.1572080  92.5848860
  68.5339960  42.6184770  93.3726740  69.6170430  41.6969850  92.8533080
  61.0386660  45.6498200  92.5152830  61.0296760  46.3827890  91.8997340
  60.1185020  45.4029780  92.6079790  56.6393300  40.8713090  93.2599590
  56.0321250  41.6111990  93.2694890  57.1142650  40.9612450  92.4337790
  69.5788120  33.9920850  93.7444040  68.9501280  34.0966520  93.0302270
  69.0840040  34.2117630  94.5337920  64.0246260  45.7126440  91.1778020
  64.1258240  45.5090430  90.2480000  63.1248000  45.4584720  91.3825800
  61.5472150  36.2706800  95.1601920  60.8388300  36.7393140  95.6015530
  61.8316630  35.6128810  95.7947110  65.5787580  32.9957460  96.5997710
  65.4555360  33.0143590  95.6507220  66.5272140  33.0436400  96.7196110
  62.6664370  48.2312760  95.8725690  62.9205870  48.1934150  94.9505060
  61.7176850  48.1046090  95.8653940  59.7507170  34.5791880  92.5352630
  60.5997700  35.0162030  92.4692820  59.3838440  34.8912140  93.3624690
  68.6716950  39.1504640  97.4484200  67.7307090  39.1654870  97.6231890
  68.9861020  38.3640600  97.8944500  58.6498590  40.8324240  91.0088160
  59.4161860  40.7205600  91.5713590  58.7273280  40.1362210  90.3564930
  57.3445350  38.2649310  91.6921050  57.4248940  37.3176820  91.8038450
  58.2365100  38.5956190  91.7981710  70.6742530  46.3213490  99.1238460
  70.7989950  47.1444660  99.5962270  71.5408090  46.1104220  98.7762610
  58.1460060  48.4144700  98.7955590  58.8822540  47.8660160  99.0664160
  58.5300980  49.2800710  98.6561580  55.0305540  44.4818270  94.6697100
  54.1045320  44.7239410  94.6602510  55.4961970  45.3092530  94.5481850
  61.2562370  47.5875010  90.6181160  62.0490980  47.8763840  90.1662950
  60.7366720  47.1567180  89.9393640  70.3092540  46.8145140  92.0417900
  70.0234050  46.4010280  91.2272080  70.1112090  47.7432850  91.9218420
  61.7739770  42.8078420  90.4823510  61.6690410  42.1930770  91.2084890
  61.6063990  42.2844310  89.6986520  65.0142500  41.8698450  91.0865500
  64.4652600  42.3167750  91.7308240  65.6361760  41.3647700  91.6103170
  60.6817620  40.8289370  92.9830800  61.1034040  40.6629240  93.8262190
  60.8068460  40.0189600  92.4885940  63.1945260  39.8526980  90.2307900
  63.7150920  39.1376000  89.8649050  63.8413660  40.4912850  90.5308410
  59.5776520  36.9022600  89.9288960  59.3765580  36.0389960  90.2902300
  59.4068570  36.8155960  88.9910560  67.0564830  31.7130830  92.4575840
  67.3367120  30.8698730  92.8135260  66.2830560  31.9453940  92.9714590
  58.3759320  34.0023220  89.9166840  58.6785220  34.0090650  89.0085990
  59.1153910  33.6521080  90.4134500  61.5944250  32.9457840  90.9023040
  61.2466250  32.2681830  90.3225490  61.7957020  32.4847350  91.7166430
  63.7593290  47.9338590  92.5209640  64.6544080  48.2723560  92.5428400
  63.7910920  47.2118000  91.8933920  57.3989450  43.3065640  90.7496640
  57.8364320  43.8495310  91.4054220  57.8837180  42.4812590  90.7592980
  54.6135250  46.0954670  98.2016900  54.9438260  45.2275730  97.9695540
  55.0426250  46.3013190  99.0321860  59.2097170  44.4263680  95.8618870
  58.9092710  44.3028650  96.7622780  59.1034660  43.5672270  95.4534600
  55.1025460  46.9625260 100.9398530  54.6656450  47.1426060 101.7722680
  55.6703140  47.7199880 100.7980250  71.9789090  44.2060080  90.5645550
  71.1482050  44.2736730  91.0352780  72.1560920  45.0964200  90.2612410
  71.4345550  40.9507560  93.0679750  72.1964460  41.5204210  93.1739440
  71.4499920  40.3834760  93.8388060  54.9349890  39.4745490  97.2987410
  54.2798730  39.2057130  96.6547110  55.7727840  39.3649970  96.8489390
  72.4405520  41.8057660  97.9121680  72.8114350  41.0224980  97.5057650
  73.0807450  42.4946760  97.7338980  71.4864720  41.2441930  90.2252270
  71.7613560  42.1520810  90.0971490  71.2975460  41.1804460  91.1614260
  67.8840330  34.2686780  91.5205900  68.3025210  34.0817760  90.6802560
  67.5776390  33.4165830  91.8308830  71.3830060  39.1810920  95.2181700
  71.0073660  38.4138850  94.7862990  70.6533180  39.5633620  95.7056630
  55.9725820  39.8598060 101.8390750  56.3398860  39.7725460 102.7186770
  55.4036640  39.0964610 101.7397610  54.1487970  36.6844420  93.2412740
  53.2452050  36.9474620  93.0664400  54.6328590  36.9555590  92.4612700
  70.6581020  37.4068410  98.5188940  71.1818500  36.9131060  97.8879110
  71.2440440  37.5418770  99.2636510  70.8370740  37.4908280 102.0408490
  69.8873450  37.4571820 102.1553480  71.0183750  38.4008390 101.8058260
  56.6915180  35.7409960  91.1507120  57.4006880  35.3193180  90.6654400
  55.9755120  35.8085190  90.5190470  56.3389340  31.7949290  90.1909770
  57.0617470  32.3358230  90.5090990  56.6113860  31.5212710  89.3151310
  70.1480990  36.6641760  94.4581350  70.6440110  36.4312630  95.2430230
  69.9497060  35.8253600  94.0418990  56.0281530  31.0455480 100.0932390
  56.6757720  30.4952860  99.6527550  56.4483370  31.2998630 100.9148200
  71.5768150  35.3002710  96.9919030  71.4667430  35.1458750  97.9301300
  72.3375740  34.7723650  96.7494440  72.4658420  33.1310630  90.2325170
  73.3907730  32.9991810  90.0243460  72.4434210  33.2103450  91.1861620
  72.5396910  33.9021290  92.8581880  71.7448410  33.8366410  93.3874790
  72.7440190  34.8371930  92.8467230  69.4815330  47.9412840  96.8520270
  70.0774400  47.6197410  96.1754690  69.7393480  47.4684660  97.6433540
  61.0883930  45.9290340 102.6020620  60.8475290  46.1964900 101.7151140
  62.0286570  46.0996070 102.6571480  70.0327540  48.5908140 100.6818000
  69.5730510  49.3423950 100.3076020  69.4040000  47.8714610 100.6232800
  60.4623260  46.8996380  99.8566130  60.9788280  46.2883740  99.3314390
  61.1120640  47.4025160 100.3477140  63.2018760  47.7904870 100.6835110
  63.4896570  47.5359170  99.8068120  63.7141980  47.2382230 101.2740680
  64.4195770  31.5295070 101.2631620  63.6367560  32.0040570 101.5428380
  64.1258700  30.6249900 101.1544800  68.9716840  32.2318170  99.3080710
  69.4124930  32.1763270  98.4602310  68.7024430  33.1476180  99.3790890
  70.8355410  31.8633410  97.3189530  70.7743810  30.9194630  97.1720550
  71.6147440  31.9713500  97.8642990  55.1408160  48.0025770  96.2813480
  54.9730200  47.3696450  96.9795370  54.2742670  48.2085170  95.9307670
  55.7636180  31.8342550  93.7845340  56.5215540  31.9471430  93.2109370
  55.3013350  32.6711750  93.7388770  62.3049990  33.9481820  96.7747650
  61.4924500  33.5738710  96.4343530  62.8091630  33.1926900  97.0768840
  66.8074970  30.6124270  98.0130720  67.4104340  31.1844480  98.4879240
  66.0667960  31.1763710  97.7904620  69.9509570  31.0145830  93.2871000
  70.1460200  31.9129280  93.5538430  69.1639440  30.7832910  93.7803950
  56.7470860  46.6959000  93.7263620  56.2218480  47.0767030  93.0225580
  56.6715440  47.3209770  94.4473330  58.1361330  32.3606600  92.3247310
  58.6654090  31.5736400  92.1955260  58.7689650  33.0397790  92.5582840
  60.3299170  32.0981740  95.3792700  59.7001910  31.3969050  95.5462830
  59.7904310  32.8585870  95.1625860  71.5036180  48.2546540  95.0477560
  71.6788370  47.5684280  94.4038480  70.8057750  48.7793590  94.6554230
  59.3463830  48.6441380  92.6012870  60.0782650  48.3600660  92.0536760
  59.6057500  48.4054660  93.4912250  58.5078620  44.7606110  92.6059200
  57.8787500  45.2291210  93.1545030  58.6226450  43.9155330  93.0405390
  64.0946380  40.5890790  80.6369670  63.3188480  40.1091230  80.9268240
  64.7459310  39.9096440  80.4625830  58.1112210  40.9010600  81.5145430
  57.2797090  40.6459310  81.9141940  58.7193190  40.9721370  82.2503350
  68.1153810  44.9950980  79.4168800  67.6535340  44.2238220  79.7455970
  68.9279360  45.0217050  79.9221250  58.0913470  44.9350690  81.7103450
  58.3941510  44.0448430  81.5313670  58.8357060  45.4920910  81.4825700
  56.5204160  35.8612490  75.2987820  55.6320860  36.2028460  75.1967700
  56.8045350  35.6612810  74.4068650  54.4837170  38.4618140  81.1827520
  55.0553280  37.6940340  81.1831160  54.4838710  38.7606900  80.2734130
  64.3417120  47.2808990  79.0372790  63.7228560  47.7366490  78.4667230
  65.1968900  47.4360450  78.6362490  63.5355370  43.2647980  80.6439830
  63.4663650  42.3237920  80.4828960  64.2975230  43.3549390  81.2162400
  55.7262040  33.8702500  82.9696450  55.5464880  32.9728250  83.2499210
  55.3242120  34.4174370  83.6443400  64.5660540  36.0718360  80.8708760
  64.9425360  35.1990240  80.7582430  64.4680050  36.4077060  79.9799200
  58.6965550  34.4443990  76.3326200  58.8032300  35.3447720  76.6394960
  57.7857910  34.3961960  76.0420850  68.3484660  33.5668800  77.8037100
  69.1694280  33.0765370  77.8462580  68.3818740  34.1566460  78.5568940
  56.3448710  36.3663000  81.5778790  57.0258820  36.6301370  82.1966190
  56.0296760  35.5263870  81.9116800  60.5373280  37.4130360  80.6651380
  61.0451500  37.9111330  81.3056400  61.0686520  36.6365560  80.4890740
  72.6384210  35.5835550  84.3680730  71.9336380  35.9717260  83.8495840
  72.9042130  36.2785840  84.9701660  58.8209380  32.0528920  84.9314800
  58.8227820  32.5701310  84.1260700  57.9913690  31.5759100  84.9084730
  60.0712230  41.6924100  83.1088300  59.7381610  42.3193020  83.7509370
  60.2478910  42.2185980  82.3289970  68.5846140  35.5069180  80.5764640
  67.8801710  35.7954070  81.1567750  68.9458300  36.3169290  80.2164200
  58.5024710  33.7638880  82.9385250  58.8441520  34.6080930  82.6439120
  57.5640520  33.9122620  83.0550590  59.2831330  43.6604900  84.9237480
  59.9005330  44.3355980  84.6421930  58.4224450  44.0692880  84.8324980
  54.5763670  42.8504760  73.8044330  54.1991650  43.3391860  73.0729230
  54.8336740  43.5230040  74.4350860  70.2008920  45.1244310  82.8392120
  69.5172440  45.7943420  82.8308790  70.7403210  45.3224960  82.0736980
  71.6533060  34.9523970  80.9673850  70.7057970  34.9862950  81.0989280
  71.9783050  35.7662920  81.3523210  62.1852600  31.2521150  79.2629840
  62.4927580  30.6968040  78.5465340  61.2553300  31.3865610  79.0802830
  67.7367660  46.9688440  81.5537300  67.7494820  46.5650730  80.6859560
  67.1842880  47.7435730  81.4498730  69.0313080  43.6904660  76.6427470
  68.9209410  42.7478990  76.7676890  69.0281330  44.0520300  77.5290230
  67.1353100  41.8718280  82.8819910  67.5521890  41.6578390  82.0473370
  67.8592920  42.1291070  83.4528530  71.0815200  40.2705500  82.9736150
  70.2533830  40.3398590  82.4986280  71.6765680  40.8559810  82.5051980
  68.0457210  37.0574820  83.9191020  67.6328390  37.8828530  84.1731010
  67.3133160  36.4719860  83.7267380  60.1790000  39.8434720  78.7809690
  59.7747000  39.1311970  78.2855590  60.2653120  39.4987960  79.6697730
  60.6471700  43.5302280  80.9448900  60.3499990  42.9247750  80.2656680
  61.5971520  43.5679590  80.8338260  58.8918620  36.6177930  82.5608730
  59.4433210  36.7273270  81.7861980  59.4062130  36.9915530  83.2763960
  68.7357310  47.1034150  84.6072000  68.2587870  47.9106340  84.4144610
  68.0519100  46.4512480  84.7598210  59.7390130  43.2683970  87.5956700
  58.8418660  43.4923940  87.8430100  59.7643000  43.3918910  86.6468100
  58.5661350  40.1397290  86.1714070  58.4269120  41.0120090  86.5401470
  57.6842710  39.7970100  86.0262010  64.8890730  45.0573160  77.4779200
  65.3286640  45.7997490  77.0634590  64.8277620  45.2999730  78.4018160
  60.3641700  46.0818990  88.3799220  60.3357130  46.4861940  87.5127650
  60.2006670  45.1529350  88.2170820  56.8794630  38.7379700  76.2816340
  56.7592230  39.4641790  75.6697610  56.5695520  37.9682610  75.8044250
  72.3156520  46.8646090  89.6763390  72.7916240  47.3428980  90.3552470
  72.9363680  46.7963580  88.9508890  54.5180000  41.9094840  82.0884980
  54.5960420  42.0443610  81.1440700  55.1321680  41.2010730  82.2813100
  55.7627630  43.6095030  78.4991160  55.3555710  43.7509620  77.6444760
  56.6540640  43.3255190  78.2962370  71.7189770  44.0558940  86.8363400
  71.8452830  43.8170820  85.9180580  71.7611150  43.2243480  87.3085480
  65.5806510  47.7586940  85.4058210  66.0951180  47.6694950  86.2080640
  64.7375590  48.1046640  85.6986120  60.0349290  47.8240810  76.6113830
  59.8591770  46.9076350  76.3981630  59.1805030  48.1828100  76.8511630
  66.8236970  47.1792550  77.4688700  67.2793920  46.3981930  77.7827320
  67.1629490  47.8899370  78.0129880  71.5713780  36.1091400  87.8013140
  70.9558050  36.6171070  87.2728600  71.2510200  35.2089730  87.7439080
  54.5739520  42.9509010  84.6279440  54.7370560  42.4814370  83.8098810
  55.0391970  42.4432570  85.2928280  59.3458290  32.0814770  79.6640010
  58.9026440  32.8624310  79.3324530  59.9043280  32.4044660  80.3710950
  63.6328100  34.9483290  85.2675330  63.1707470  35.1566310  86.0795270
  63.2306210  34.1342640  84.9646000  68.6332610  36.1692240  86.3971990
  67.7826200  35.8697990  86.7181060  68.4734400  36.4134250  85.4855810
  65.7282320  37.6693990  88.4970780  66.0535730  36.8357740  88.1573010
  66.5162650  38.1922510  88.6449110  62.4617110  31.7025470  74.5445840
  61.8371290  31.6985340  75.2699150  62.3747230  30.8356430  74.1481810
  61.3834190  32.6262100  81.5229610  61.6806520  33.5324930  81.4421630
  61.9319750  32.1380880  80.9089180  59.1372510  37.2048340  77.3921260
  58.9113430  36.9885510  78.2967880  58.3565040  37.6376800  77.0467230
  61.5771720  38.1033920  88.0581530  61.4815320  37.1628650  87.9081930
  62.4203700  38.3248990  87.6629600  56.7082260  34.5147590  86.2115310
  56.3145650  35.3622800  86.4188090  56.0200660  33.8773960  86.4023950
  63.2827310  34.5982560  89.2812050  62.5925630  34.4054760  89.9158140
  64.0259610  34.8817200  89.8136350  54.0099310  32.4376050  80.2445390
  53.7212360  33.0078910  80.9570370  54.7545070  31.9580500  80.6076620
  54.1969540  36.3796170  71.4548110  54.1144210  37.3226930  71.5963100
  53.8452600  36.2371080  70.5760460  65.5590280  38.4381000  82.1165970
  64.8271400  38.9467810  82.4656070  65.1614620  37.6210980  81.8154750
  61.9967670  35.1135200  80.5218460  62.0003730  34.6725150  79.6723000
  62.8918790  35.4352530  80.6290280  57.8470050  34.9961690  79.4812670
  57.5070100  35.4736920  80.2379720  57.0847370  34.5426810  79.1213770
  66.0216190  33.8914680  81.5288910  66.0388930  34.3423330  82.3730760
  65.7731770  32.9920320  81.7422350  61.0709320  38.4248420  72.9108520
  60.5026220  37.9766670  72.2844430  61.7798320  38.7841200  72.3773670
  69.4486940  31.3046860  87.3675290  69.7732710  30.5736520  87.8933270
  69.4843450  30.9860500  86.4656280  56.1478500  42.3260440  86.7875250
  55.7633290  41.6854110  87.3858210  56.4590690  43.0296560  87.3569980
  62.2975640  39.1736980  82.2683870  62.6645770  38.6995550  83.0145210
  62.1080700  40.0478550  82.6092210  55.1616130  33.9180670  78.3977340
  54.8763050  33.5536340  79.2355960  55.0994990  33.1861130  77.7840480
  60.0875010  38.2145620  84.5868080  59.7832080  39.0937600  84.8118440
  61.0421470  38.2745410  84.6225520  58.6156800  42.4206610  75.1834930
  57.8419060  41.8804230  75.0233650  59.3451430  41.9013220  74.8452690
  69.3744780  41.4171970  80.9761320  70.0943900  41.9127260  80.5857430
  69.1726600  40.7389860  80.3315190  64.8354720  32.8109930  75.1190710
  64.0219330  32.3123100  75.0436020  64.6416670  33.6508180  74.7027060
  64.7563580  41.4881030  86.8630320  64.6900890  40.5676700  86.6087910
  64.1268720  41.5856470  87.5774960  58.6594200  42.0886990  78.8213740
  59.1772870  41.2855250  78.7670630  58.2078220  42.0266130  79.6630570
  56.1438740  39.0548360  85.7339440  55.7853680  39.7202210  86.3212780
  55.8493300  38.2231910  86.1052060  59.3451860  39.5132600  88.6178990
  59.0452000  39.6589780  87.7206810  60.1163100  38.9537890  88.5252380
  64.6880310  44.3101600  86.6134120  64.7024850  43.3782560  86.3953030
  63.9805410  44.3961360  87.2523890  70.8991520  40.9508940  85.9602700
  70.1739710  41.5437720  85.7632090  71.4266980  40.9432480  85.1616070
  66.4291110  42.6769110  79.4586550  66.7814930  42.0797240  78.7987920
  65.5453440  42.3513340  79.6294800  62.5154390  43.4366800  76.8656960
  63.2025520  43.9836010  77.2464550  61.7286810  43.9807530  76.9006570
  54.6546790  39.0539620  72.3574040  55.5241640  39.3364420  72.6409960
  54.1637110  39.8675490  72.2422850  61.8181600  40.4412830  76.4782320
  62.2744380  41.2518080  76.7042510  61.4669810  40.1235970  77.3100810
  64.1214210  45.9519170  83.7074620  64.7656430  46.1578550  84.3848040
  64.4843650  45.1907570  83.2545470  57.7193380  30.7850480  76.9504840
  57.5908010  30.7768380  77.8989760  56.8955400  31.1233570  76.5995850
  65.3946290  43.9551520  82.4252070  66.0368520  43.2544680  82.5384240
  65.9195640  44.7349960  82.2448960  67.1683910  44.7546420  85.6288130
  67.5040150  45.3413110  86.3066050  66.2484250  44.6239130  85.8585920
  55.0218040  48.2667000  72.9235670  55.3815680  48.8656340  72.2692940
  54.8810380  48.8126890  73.6970700  54.7187310  32.5441600  86.4111540
  54.0045830  32.7438520  87.0164150  55.1382350  31.7681170  86.7826340
  68.8218260  42.1572080  73.8105370  68.5339960  42.6184770  74.5983250
  69.6170430  41.6969850  74.0789590  55.0059900  46.5321860  87.3978070
  55.1151020  45.5916600  87.2573460  54.3540460  46.7976610  86.7491800
  62.9972490  44.8037750  88.7976190  62.6769360  44.0846990  89.3421880
  62.3230850  45.4792820  88.8712250  56.6393300  40.8713090  74.4856100
  56.0321250  41.6111990  74.4951400  57.1142650  40.9612450  73.6594300
  66.2126090  35.0363910  84.1612990  66.5806910  34.2159120  84.4892560
  65.3524290  35.0965800  84.5768640  61.5472150  36.2706800  76.3858430
  60.8388300  36.7393140  76.8272040  61.8316630  35.6128810  77.0203620
  63.1728080  37.6903500  84.3850960  63.6713330  38.1649320  85.0502810
  63.3151030  36.7667020  84.5920990  65.5787580  32.9957460  77.8254220
  65.4555360  33.0143590  76.8763730  66.5272140  33.0436400  77.9452620
  62.6664370  48.2312760  77.0982200  62.9205870  48.1934150  76.1761570
  61.7176850  48.1046090  77.0910450  59.7507170  34.5791880  73.7609140
  60.5997700  35.0162030  73.6949330  59.3838440  34.8912140  74.5881200
  70.3794940  33.9071460  85.2279350  69.8768540  34.6476860  85.5673160
  71.1951600  34.2955460  84.9116140  68.6716950  39.1504640  78.6740710
  67.7307090  39.1654870  78.8488400  68.9861020  38.3640600  79.1201010
  58.6498590  40.8324240  72.2344670  59.4161860  40.7205600  72.7970100
  58.7273280  40.1362210  71.5821440  57.3445350  38.2649310  72.9177560
  57.4248940  37.3176820  73.0294960  58.2365100  38.5956190  73.0238220
  70.6742530  46.3213490  80.3494970  70.7989950  47.1444660  80.8218780
  71.5408090  46.1104220  80.0019120  58.1460060  48.4144700  80.0212100
  58.8822540  47.8660160  80.2920670  58.5300980  49.2800710  79.8818090
  55.0305540  44.4818270  75.8953610  54.1045320  44.7239410  75.8859020
  55.4961970  45.3092530  75.7738360  57.1518340  47.5990770  89.2097680
  57.9531070  47.9202820  89.6233080  56.6370160  47.2386350  89.9317590
  65.9882970  43.7070640  89.1573090  65.3821130  43.7302240  88.4168840
  65.6837080  42.9753680  89.6940340  67.4183340  47.4350930  87.7682500
  68.3705090  47.3508950  87.7182740  67.2711560  48.0992640  88.4416290
  54.8716150  40.0864230  88.1533730  55.3755170  39.5071510  88.7249960
  54.1323570  40.3704460  88.6910100  61.9254090  41.4935220  87.6869250
  61.1599760  42.0620220  87.6023920  62.1070050  41.2011430  86.7937480
  69.0677440  43.2240550  88.2444270  69.8086910  43.5616310  87.7411730
  68.3050120  43.3932610  87.6914040  56.9039230  38.2293820  89.0483800
  56.9444570  37.9307690  89.9569030  57.7584730  38.6301430  88.8891320
  60.6817620  40.8289370  74.2087310  61.1034040  40.6629240  75.0518700
  60.8068460  40.0189600  73.7142450  58.8445040  36.8085920  87.0158290
  58.3141500  36.3176870  86.3881630  59.5133110  37.2370120  86.4816220
  67.7423100  41.2755380  86.7799480  68.1564120  41.4300460  87.6289900
  66.8074100  41.4010600  86.9425260  68.2145270  38.6151540  88.7838630
  68.7966040  37.8603860  88.6959110  68.3907040  39.1458980  88.0070110
  59.3317340  33.7748290  87.0955580  59.2374210  33.1569040  86.3706450
  58.7514730  34.5014580  86.8685490  62.0978780  32.3321530  84.1282970
  61.6496080  32.3545790  83.2828520  61.4643980  31.9340550  84.7253270
  62.5038330  41.2275860  84.7495410  62.9226440  42.0708590  84.5771650
  61.5846960  41.3647900  84.5202190  64.8402230  38.9592040  86.1333250
  64.9598440  38.3633180  86.8728090  65.6996230  38.9961730  85.7134550
  67.1790130  39.5129230  84.7095760  66.6525350  40.0371850  84.1060900
  67.5221470  40.1456620  85.3405490  59.5776520  36.9022600  71.1545470
  59.3765580  36.0389960  71.5158810  59.4068570  36.8155960  70.2167070
  60.3545750  47.5328870  85.8653140  59.8166840  48.2574930  85.5461840
  60.6079710  47.0559210  85.0750480  61.6071000  35.5013390  87.3909070
  62.1970690  35.1929240  88.0786890  60.7891240  35.0293140  87.5468970
  66.4264430  35.1179200  87.6242090  65.7379950  34.4560740  87.5592080
  67.1470450  34.6717470  88.0690550  58.3759320  34.0023220  71.1423350
  58.6785220  34.0090650  70.2342500  59.1153910  33.6521080  71.6391010
  63.2107960  48.7680080  86.1239790  63.1366660  49.6715220  86.4312160
  62.3086800  48.4491980  86.0961860  57.3989450  43.3065640  71.9753150
  57.8364320  43.8495310  72.6310730  57.8837180  42.4812590  71.9849490
  54.6135250  46.0954670  79.4273410  54.9438260  45.2275730  79.1952050
  55.0426250  46.3013190  80.2578370  59.2097170  44.4263680  77.0875380
  58.9092710  44.3028650  77.9879290  59.1034660  43.5672270  76.6791110
  55.1025460  46.9625260  82.1655040  54.6656450  47.1426060  82.9979190
  55.6703140  47.7199880  82.0236760  70.7387640  46.4642260  86.4532350
  70.1389630  46.5234820  85.7096270  70.8681540  45.5247240  86.5829200
  71.9789090  44.2060080  71.7902060  71.1482050  44.2736730  72.2609290
  72.1560920  45.0964200  71.4868920  71.4345550  40.9507560  74.2936260
  72.1964460  41.5204210  74.3995950  71.4499920  40.3834760  75.0644570
  54.9349890  39.4745490  78.5243920  54.2798730  39.2057130  77.8803620
  55.7727840  39.3649970  78.0745900  72.4405520  41.8057660  79.1378190
  72.8114350  41.0224980  78.7314160  73.0807450  42.4946760  78.9595490
  69.4239280  43.1894240  84.5508510  68.6099120  43.6191400  84.8134300
  69.8313480  43.8012650  83.9377560  71.4864720  41.2441930  71.4508780
  71.7613560  42.1520810  71.3228000  71.2975460  41.1804460  72.3870770
  71.3830060  39.1810920  76.4438210  71.0073660  38.4138850  76.0119500
  70.6533180  39.5633620  76.9313140  55.9725820  39.8598060  83.0647260
  56.3398860  39.7725460  83.9443280  55.4036640  39.0964610  82.9654120
  70.7729680  38.3282440  86.0777730  70.5415770  38.0995190  85.1775680
  71.0334230  39.2481990  86.0322620  55.5241820  36.7707150  86.9705680
  54.6297870  36.7373910  87.3099390  56.0639370  36.9693940  87.7356930
  69.2117750  33.5538870  88.8557430  70.0887930  33.5622270  89.2391430
  69.2238590  32.8169710  88.2449780  54.1487970  36.6844420  74.4669250
  53.2452050  36.9474620  74.2920910  54.6328590  36.9555590  73.6869210
  70.6581020  37.4068410  79.7445450  71.1818500  36.9131060  79.1135620
  71.2440440  37.5418770  80.4893020  70.8370740  37.4908280  83.2665000
  69.8873450  37.4571820  83.3809990  71.0183750  38.4008390  83.0314770
  56.6915180  35.7409960  72.3763630  57.4006880  35.3193180  71.8910910
  55.9755120  35.8085190  71.7446980  56.3389340  31.7949290  71.4166280
  57.0617470  32.3358230  71.7347500  56.6113860  31.5212710  70.5407820
  56.0281530  31.0455480  81.3188900  56.6757720  30.4952860  80.8784060
  56.4483370  31.2998630  82.1404710  71.5768150  35.3002710  78.2175540
  71.4667430  35.1458750  79.1557810  72.3375740  34.7723650  77.9750950
  69.9233870  31.2396840  84.6758540  70.5606090  31.8530980  85.0417730
  70.0708760  31.2757500  83.7307770  55.7813530  31.2011150  84.0614220
  55.4328350  31.6574970  84.8272400  55.4501230  30.3068280  84.1436650
  57.3877900  44.3730750  88.2267410  57.3447530  44.0023660  89.1081870
  57.5188910  45.3108320  88.3669230  61.0883930  45.9290340  83.8277130
  60.8475290  46.1964900  82.9407650  62.0286570  46.0996070  83.8827990
  63.2938350  32.3923030  87.5833640  63.2327240  32.9844860  88.3329050
  64.2338730  32.2848990  87.4383900  65.9312910  32.0493090  87.2225930
  66.5453320  32.3672380  86.5607010  66.4762470  31.5641680  87.8421790
  72.3488090  47.9484720  84.6287770  71.8546370  48.3453590  83.9114900
  71.7401380  47.3233930  85.0225050  56.4534170  30.7287350  87.3364990
  57.0017160  30.5475400  86.5731100  56.5189480  29.9381460  87.8721300
  57.2265930  47.3193000  85.3465190  56.6326250  47.1877700  86.0855230
  57.2189770  46.4831140  84.8807290  66.6720950  30.6125230  83.5495220
  65.7980790  30.9460340  83.3468150  66.5631700  30.1398410  84.3747090
  67.5792930  32.8196100  84.9336940  67.2506290  32.0047860  84.5538670
  68.5275230  32.7765910  84.8102630  70.0327540  48.5908140  81.9074510
  69.5730510  49.3423950  81.5332530  69.4040000  47.8714610  81.8489310
  56.8578160  44.6851380  84.2973230  56.1312220  44.0656670  84.2299180
  56.9187310  45.0791990  83.4271310  60.4623260  46.8996380  81.0822640
  60.9788280  46.2883740  80.5570900  61.1120640  47.4025160  81.5733650
  63.2018760  47.7904870  81.9091620  63.4896570  47.5359170  81.0324630
  63.7141980  47.2382230  82.4997190  64.4195770  31.5295070  82.4888130
  63.6367560  32.0040570  82.7684890  64.1258700  30.6249900  82.3801310
  68.9716840  32.2318170  80.5337220  69.4124930  32.1763270  79.6858820
  68.7024430  33.1476180  80.6047400  70.8355410  31.8633410  78.5446040
  70.7743810  30.9194630  78.3977060  71.6147440  31.9713500  79.0899500
  55.1408160  48.0025770  77.5069990  54.9730200  47.3696450  78.2051880
  54.2742670  48.2085170  77.1564180  55.7636180  31.8342550  75.0101850
  56.5215540  31.9471430  74.4365880  55.3013350  32.6711750  74.9645280
  62.3049990  33.9481820  78.0004160  61.4924500  33.5738710  77.6600040
  62.8091630  33.1926900  78.3025350  66.8074970  30.6124270  79.2387230
  67.4104340  31.1844480  79.7135750  66.0667960  31.1763710  79.0161130
  56.7470860  46.6959000  74.9520130  56.2218480  47.0767030  74.2482090
  56.6715440  47.3209770  75.6729840  58.1361330  32.3606600  73.5503820
  58.6654090  31.5736400  73.4211770  58.7689650  33.0397790  73.7839350
  60.3299170  32.0981740  76.6049210  59.7001910  31.3969050  76.7719340
  59.7904310  32.8585870  76.3882370  63.2691120  48.7120970  89.2759820
  64.1958430  48.4765240  89.3195780  63.2541550  49.5392970  88.7945850
  60.4554730  31.3765720  89.0401700  60.1739000  31.8799320  88.2762520
  60.8374430  30.5787470  88.6743830  59.3463830  48.6441380  73.8269380
  60.0782650  48.3600660  73.2793270  59.6057500  48.4054660  74.7168760
  58.5078620  44.7606110  73.8315710  57.8787500  45.2291210  74.3801540
  58.6226450  43.9155330  74.2661900  67.0570190  30.7919300  89.6182170
  66.9435640  31.1113910  90.5133690  67.8739930  31.1931810  89.3219450
  69.8368680  47.9390830  89.1000860  70.6294000  47.4440060  88.8926820
  70.1301830  48.6180970  89.7076470  58.1112210  40.9010600  62.7401940
  57.2797090  40.6459310  63.1398450  58.7193190  40.9721370  63.4759860
  56.5204160  35.8612490  56.5244330  55.6320860  36.2028460  56.4224210
  56.8045350  35.6612810  55.6325160  58.6965550  34.4443990  57.5582710
  58.8032300  35.3447720  57.8651470  57.7857910  34.3961960  57.2677360
  68.3484660  33.5668800  59.0293610  69.1694280  33.0765370  59.0719090
  68.3818740  34.1566460  59.7825450  54.5763670  42.8504760  55.0300840
  54.1991650  43.3391860  54.2985740  54.8336740  43.5230040  55.6607370
  62.1852600  31.2521150  60.4886350  62.4927580  30.6968040  59.7721850
  61.2553300  31.3865610  60.3059340  64.5602440  35.5886980  54.2213630
  63.6206110  35.7500940  54.3066090  64.8785700  36.3072660  53.6749620
  68.6030650  40.8790280  57.7281720  67.9843070  40.5409830  57.0808020
  68.5855100  40.2350040  58.4360910  66.7795350  40.1177090  54.7354470
  67.2188630  39.2799520  54.5892290  67.4923770  40.7506490  54.8218610
  56.8794630  38.7379700  57.5072850  56.7592230  39.4641790  56.8954120
  56.5695520  37.9682610  57.0300760  54.5180000  41.9094840  63.3141490
  54.5960420  42.0443610  62.3697210  55.1321680  41.2010730  63.5069610
  71.7189770  44.0558940  68.0619910  71.8452830  43.8170820  67.1437090
  71.7611150  43.2243480  68.5341990  62.4617110  31.7025470  55.7702350
  61.8371290  31.6985340  56.4955660  62.3747230  30.8356430  55.3738320
  61.3834190  32.6262100  62.7486120  61.6806520  33.5324930  62.6678140
  61.9319750  32.1380880  62.1345690  66.3670270  37.2111710  57.2168420
  65.7679160  37.9347510  57.0332040  66.9149880  37.1488490  56.4344870
  64.9735140  35.8475250  59.2471700  65.3664710  36.1647450  58.4340390
  65.3351990  34.9687130  59.3616220  62.0587820  36.1147280  54.7381730
  62.1800640  36.0733760  55.6867550  61.6736330  36.9771430  54.5828460
  56.1478500  42.3260440  68.0131760  55.7633290  41.6854110  68.6114720
  56.4590690  43.0296560  68.5826490  64.8354720  32.8109930  56.3447220
  64.0219330  32.3123100  56.2692530  64.6416670  33.6508180  55.9283570
  67.5503110  37.1829580  54.6409380  68.4382730  37.4946810  54.4660720
  67.5208200  36.3101830  54.2489960  56.1438740  39.0548360  66.9595950
  55.7853680  39.7202210  67.5469290  55.8493300  38.2231910  67.3308570
  59.3451860  39.5132600  69.8435500  59.0452000  39.6589780  68.9463320
  60.1163100  38.9537890  69.7508890  69.8217380  38.4941420  54.1089240
  69.7381100  38.9255640  53.2585680  70.5411570  38.9539770  54.5416060
  70.8991520  40.9508940  67.1859210  70.1739710  41.5437720  66.9888600
  71.4266980  40.9432480  66.3872580  70.8504630  45.3483680  56.8371370
  70.2080790  44.6939300  57.1115090  70.4635290  45.7538770  56.0612040
  54.6546790  39.0539620  53.5830550  55.5241640  39.3364420  53.8666470
  54.1637110  39.8675490  53.4679360  57.7193380  30.7850480  58.1761350
  57.5908010  30.7768380  59.1246270  56.8955400  31.1233570  57.8252360
  69.2402010  44.2400140  53.3747720  69.0139590  43.5230580  53.9672360
  68.8498210  43.9912580  52.5369470  54.7187310  32.5441600  67.6368050
  54.0045830  32.7438520  68.2420660  55.1382350  31.7681170  68.0082850
  68.8218260  42.1572080  55.0361880  68.5339960  42.6184770  55.8239760
  69.6170430  41.6969850  55.3046100  56.6393300  40.8713090  55.7112610
  56.0321250  41.6111990  55.7207910  57.1142650  40.9612450  54.8850810
  69.5788120  33.9920850  56.1957060  68.9501280  34.0966520  55.4815290
  69.0840040  34.2117630  56.9850940  65.5787580  32.9957460  59.0510730
  65.4555360  33.0143590  58.1020240  66.5272140  33.0436400  59.1709130
  59.7507170  34.5791880  54.9865650  60.5997700  35.0162030  54.9205840
  59.3838440  34.8912140  55.8137710  57.3445350  38.2649310  54.1434070
  57.4248940  37.3176820  54.2551470  58.2365100  38.5956190  54.2494730
  55.0305540  44.4818270  57.1210120  54.1045320  44.7239410  57.1115530
  55.4961970  45.3092530  56.9994870  57.1518340  47.5990770  70.4354190
  57.9531070  47.9202820  70.8489590  56.6370160  47.2386350  71.1574100
  67.4183340  47.4350930  68.9939010  68.3705090  47.3508950  68.9439250
  67.2711560  48.0992640  69.6672800  70.3092540  46.8145140  54.4930920
  70.0234050  46.4010280  53.6785100  70.1112090  47.7432850  54.3731440
  54.8716150  40.0864230  69.3790240  55.3755170  39.5071510  69.9506470
  54.1323570  40.3704460  69.9166610  69.0677440  43.2240550  69.4700780
  69.8086910  43.5616310  68.9668240  68.3050120  43.3932610  68.9170550
  56.9039230  38.2293820  70.2740310  56.9444570  37.9307690  71.1825540
  57.7584730  38.6301430  70.1147830  59.5776520  36.9022600  52.3801980
  59.3765580  36.0389960  52.7415320  59.4068570  36.8155960  51.4423580
  67.0564830  31.7130830  54.9088860  67.3367120  30.8698730  55.2648280
  66.2830560  31.9453940  55.4227610  58.3759320  34.0023220  52.3679860
  58.6785220  34.0090650  51.4599010  59.1153910  33.6521080  52.8647520
  61.5944250  32.9457840  53.3536060  61.2466250  32.2681830  52.7738510
  61.7957020  32.4847350  54.1679450  57.3989450  43.3065640  53.2009660
  57.8364320  43.8495310  53.8567240  57.8837180  42.4812590  53.2106000
  71.9789090  44.2060080  53.0158570  71.1482050  44.2736730  53.4865800
  72.1560920  45.0964200  52.7125430  71.4345550  40.9507560  55.5192770
  72.1964460  41.5204210  55.6252460  71.4499920  40.3834760  56.2901080
  54.9349890  39.4745490  59.7500430  54.2798730  39.2057130  59.1060130
  55.7727840  39.3649970  59.3002410  72.4405520  41.8057660  60.3634700
  72.8114350  41.0224980  59.9570670  73.0807450  42.4946760  60.1852000
  71.4864720  41.2441930  52.6765290  71.7613560  42.1520810  52.5484510
  71.2975460  41.1804460  53.6127280  67.8840330  34.2686780  53.9718920
  68.3025210  34.0817760  53.1315580  67.5776390  33.4165830  54.2821850
  55.9725820  39.8598060  64.2903770  56.3398860  39.7725460  65.1699790
  55.4036640  39.0964610  64.1910630  55.5241820  36.7707150  68.1962190
  54.6297870  36.7373910  68.5355900  56.0639370  36.9693940  68.9613440
  54.1487970  36.6844420  55.6925760  53.2452050  36.9474620  55.5177420
  54.6328590  36.9555590  54.9125720  70.1480990  36.6641760  56.9094370
  70.6440110  36.4312630  57.6943250  69.9497060  35.8253600  56.4932010
  56.0281530  31.0455480  62.5445410  56.6757720  30.4952860  62.1040570
  56.4483370  31.2998630  63.3661220  72.4658420  33.1310630  52.6838190
  73.3907730  32.9991810  52.4756480  72.4434210  33.2103450  53.6374640
  72.5396910  33.9021290  55.3094900  71.7448410  33.8366410  55.8387810
  72.7440190  34.8371930  55.2980250  55.7813530  31.2011150  65.2870730
  55.4328350  31.6574970  66.0528910  55.4501230  30.3068280  65.3693160
  56.4534170  30.7287350  68.5621500  57.0017160  30.5475400  67.7987610
  56.5189480  29.9381460  69.0977810  70.8355410  31.8633410  59.7702550
  70.7743810  30.9194630  59.6233570  71.6147440  31.9713500  60.3156010
  55.1408160  48.0025770  58.7326500  54.9730200  47.3696450  59.4308390
  54.2742670  48.2085170  58.3820690  55.7636180  31.8342550  56.2358360
  56.5215540  31.9471430  55.6622390  55.3013350  32.6711750  56.1901790
  62.3049990  33.9481820  59.2260670  61.4924500  33.5738710  58.8856550
  62.8091630  33.1926900  59.5281860  58.1361330  32.3606600  54.7760330
  58.6654090  31.5736400  54.6468280  58.7689650  33.0397790  55.0095860
  60.3299170  32.0981740  57.8305720  59.7001910  31.3969050  57.9975850
  59.7904310  32.8585870  57.6138880  65.9628340  38.8111770  41.2073420
  65.8822390  37.8966380  40.9365130  65.5492760  39.3078840  40.5013130
  64.0946380  40.5890790  43.0882690  63.3188480  40.1091230  43.3781260
  64.7459310  39.9096440  42.9138850  58.1112210  40.9010600  43.9658450
  57.2797090  40.6459310  44.3654960  58.7193190  40.9721370  44.7016370
  68.1153810  44.9950980  41.8681820  67.6535340  44.2238220  42.1968990
  68.9279360  45.0217050  42.3734270  56.5204160  35.8612490  37.7500840
  55.6320860  36.2028460  37.6480720  56.8045350  35.6612810  36.8581670
  54.4837170  38.4618140  43.6340540  55.0553280  37.6940340  43.6344180
  54.4838710  38.7606900  42.7247150  63.5355370  43.2647980  43.0952850
  63.4663650  42.3237920  42.9341980  64.2975230  43.3549390  43.6675420
  55.7262040  33.8702500  45.4209470  55.5464880  32.9728250  45.7012230
  55.3242120  34.4174370  46.0956420  64.5660540  36.0718360  43.3221780
  64.9425360  35.1990240  43.2095450  64.4680050  36.4077060  42.4312220
  58.6965550  34.4443990  38.7839220  58.8032300  35.3447720  39.0907980
  57.7857910  34.3961960  38.4933870  68.3484660  33.5668800  40.2550120
  69.1694280  33.0765370  40.2975600  68.3818740  34.1566460  41.0081960
  56.3448710  36.3663000  44.0291810  57.0258820  36.6301370  44.6479210
  56.0296760  35.5263870  44.3629820  60.5373280  37.4130360  43.1164400
  61.0451500  37.9111330  43.7569420  61.0686520  36.6365560  42.9403760
  72.6384210  35.5835550  46.8193750  71.9336380  35.9717260  46.3008860
  72.9042130  36.2785840  47.4214680  58.8209380  32.0528920  47.3827820
  58.8227820  32.5701310  46.5773720  57.9913690  31.5759100  47.3597750
  65.2080470  42.1648230  38.8817720  64.5897740  42.6297680  38.3180440
  65.7203720  42.8575710  39.2987230  60.0712230  41.6924100  45.5601320
  59.7381610  42.3193020  46.2022390  60.2478910  42.2185980  44.7802990
  68.5846140  35.5069180  43.0277660  67.8801710  35.7954070  43.6080770
  68.9458300  36.3169290  42.6677220  58.5024710  33.7638880  45.3898270
  58.8441520  34.6080930  45.0952140  57.5640520  33.9122620  45.5063610
  59.2831330  43.6604900  47.3750500  59.9005330  44.3355980  47.0934950
  58.4224450  44.0692880  47.2838000  54.5763670  42.8504760  36.2557350
  54.1991650  43.3391860  35.5242250  54.8336740  43.5230040  36.8863880
  70.2008920  45.1244310  45.2905140  69.5172440  45.7943420  45.2821810
  70.7403210  45.3224960  44.5250000  71.6533060  34.9523970  43.4186870
  70.7057970  34.9862950  43.5502300  71.9783050  35.7662920  43.8036230
  62.1852600  31.2521150  41.7142860  62.4927580  30.6968040  40.9978360
  61.2553300  31.3865610  41.5315850  69.0313080  43.6904660  39.0940490
  68.9209410  42.7478990  39.2189910  69.0281330  44.0520300  39.9803250
  67.1353100  41.8718280  45.3332930  67.5521890  41.6578390  44.4986390
  67.8592920  42.1291070  45.9041550  64.5733360  39.3169980  38.4502980
  63.6462640  39.2507360  38.6791450  64.7258180  40.2550110  38.3358220
  64.5602440  35.5886980  35.4470140  63.6206110  35.7500940  35.5322600
  64.8785700  36.3072660  34.9006130  71.0815200  40.2705500  45.4249170
  70.2533830  40.3398590  44.9499300  71.6765680  40.8559810  44.9565000
  68.6030650  40.8790280  38.9538230  67.9843070  40.5409830  38.3064530
  68.5855100  40.2350040  39.6617420  68.0457210  37.0574820  46.3704040
  67.6328390  37.8828530  46.6244030  67.3133160  36.4719860  46.1780400
  60.1790000  39.8434720  41.2322710  59.7747000  39.1311970  40.7368610
  60.2653120  39.4987960  42.1210750  58.8918620  36.6177930  45.0121750
  59.4433210  36.7273270  44.2375000  59.4062130  36.9915530  45.7276980
  68.7357310  47.1034150  47.0585020  68.2587870  47.9106340  46.8657630
  68.0519100  46.4512480  47.2111230  59.7390130  43.2683970  50.0469720
  58.8418660  43.4923940  50.2943120  59.7643000  43.3918910  49.0981120
  66.7795350  40.1177090  35.9610980  67.2188630  39.2799520  35.8148800
  67.4923770  40.7506490  36.0475120  58.5661350  40.1397290  48.6227090
  58.4269120  41.0120090  48.9914490  57.6842710  39.7970100  48.4775030
  60.3641700  46.0818990  50.8312240  60.3357130  46.4861940  49.9640670
  60.2006670  45.1529350  50.6683840  70.3612490  31.3719900  34.2752020
  70.0485150  31.4646730  35.1751090  71.1224960  31.9500930  34.2249450
  56.8794630  38.7379700  38.7329360  56.7592230  39.4641790  38.1210630
  56.5695520  37.9682610  38.2557270  72.3156520  46.8646090  52.1276410
  72.7916240  47.3428980  52.8065490  72.9363680  46.7963580  51.4021910
  54.5180000  41.9094840  44.5398000  54.5960420  42.0443610  43.5953720
  55.1321680  41.2010730  44.7326120  55.7627630  43.6095030  40.9504180
  55.3555710  43.7509620  40.0957780  56.6540640  43.3255190  40.7475390
  71.7189770  44.0558940  49.2876420  71.8452830  43.8170820  48.3693600
  71.7611150  43.2243480  49.7598500  65.5806510  47.7586940  47.8571230
  66.0951180  47.6694950  48.6593660  64.7375590  48.1046640  48.1499140
  60.0349290  47.8240810  39.0626850  59.8591770  46.9076350  38.8494650
  59.1805030  48.1828100  39.3024650  71.5713780  36.1091400  50.2526160
  70.9558050  36.6171070  49.7241620  71.2510200  35.2089730  50.1952100
  54.5739520  42.9509010  47.0792460  54.7370560  42.4814370  46.2611830
  55.0391970  42.4432570  47.7441300  59.3458290  32.0814770  42.1153030
  58.9026440  32.8624310  41.7837550  59.9043280  32.4044660  42.8223970
  63.6328100  34.9483290  47.7188350  63.1707470  35.1566310  48.5308290
  63.2306210  34.1342640  47.4159020  68.6332610  36.1692240  48.8485010
  67.7826200  35.8697990  49.1694080  68.4734400  36.4134250  47.9368830
  65.7282320  37.6693990  50.9483800  66.0535730  36.8357740  50.6086030
  66.5162650  38.1922510  51.0962130  62.4617110  31.7025470  36.9958860
  61.8371290  31.6985340  37.7212170  62.3747230  30.8356430  36.5994830
  61.3834190  32.6262100  43.9742630  61.6806520  33.5324930  43.8934650
  61.9319750  32.1380880  43.3602200  59.1372510  37.2048340  39.8434280
  58.9113430  36.9885510  40.7480900  58.3565040  37.6376800  39.4980250
  66.3670270  37.2111710  38.4424930  65.7679160  37.9347510  38.2588550
  66.9149880  37.1488490  37.6601380  61.5771720  38.1033920  50.5094550
  61.4815320  37.1628650  50.3594950  62.4203700  38.3248990  50.1142620
  64.9735140  35.8475250  40.4728210  65.3664710  36.1647450  39.6596900
  65.3351990  34.9687130  40.5872730  56.7082260  34.5147590  48.6628330
  56.3145650  35.3622800  48.8701110  56.0200660  33.8773960  48.8536970
  63.2827310  34.5982560  51.7325070  62.5925630  34.4054760  52.3671160
  64.0259610  34.8817200  52.2649370  54.0099310  32.4376050  42.6958410
  53.7212360  33.0078910  43.4083390  54.7545070  31.9580500  43.0589640
  54.1969540  36.3796170  33.9061130  54.1144210  37.3226930  34.0476120
  53.8452600  36.2371080  33.0273480  65.5590280  38.4381000  44.5678990
  64.8271400  38.9467810  44.9169090  65.1614620  37.6210980  44.2667770
  61.9967670  35.1135200  42.9731480  62.0003730  34.6725150  42.1236020
  62.8918790  35.4352530  43.0803300  57.8470050  34.9961690  41.9325690
  57.5070100  35.4736920  42.6892740  57.0847370  34.5426810  41.5726790
  62.0587820  36.1147280  35.9638240  62.1800640  36.0733760  36.9124060
  61.6736330  36.9771430  35.8084970  66.0216190  33.8914680  43.9801930
  66.0388930  34.3423330  44.8243780  65.7731770  32.9920320  44.1935370
  61.0709320  38.4248420  35.3621540  60.5026220  37.9766670  34.7357450
  61.7798320  38.7841200  34.8286690  69.4486940  31.3046860  49.8188310
  69.7732710  30.5736520  50.3446290  69.4843450  30.9860500  48.9169300
  56.1478500  42.3260440  49.2388270  55.7633290  41.6854110  49.8371230
  56.4590690  43.0296560  49.8083000  62.2975640  39.1736980  44.7196890
  62.6645770  38.6995550  45.4658230  62.1080700  40.0478550  45.0605230
  55.1616130  33.9180670  40.8490360  54.8763050  33.5536340  41.6868980
  55.0994990  33.1861130  40.2353500  60.0875010  38.2145620  47.0381100
  59.7832080  39.0937600  47.2631460  61.0421470  38.2745410  47.0738540
  58.6156800  42.4206610  37.6347950  57.8419060  41.8804230  37.4746670
  59.3451430  41.9013220  37.2965710  69.3744780  41.4171970  43.4274340
  70.0943900  41.9127260  43.0370450  69.1726600  40.7389860  42.7828210
  64.8354720  32.8109930  37.5703730  64.0219330  32.3123100  37.4949040
  64.6416670  33.6508180  37.1540080  64.7563580  41.4881030  49.3143340
  64.6900890  40.5676700  49.0600930  64.1268720  41.5856470  50.0287980
  67.5503110  37.1829580  35.8665890  68.4382730  37.4946810  35.6917230
  67.5208200  36.3101830  35.4746470  58.6594200  42.0886990  41.2726760
  59.1772870  41.2855250  41.2183650  58.2078220  42.0266130  42.1143590
  56.1438740  39.0548360  48.1852460  55.7853680  39.7202210  48.7725800
  55.8493300  38.2231910  48.5565080  59.3451860  39.5132600  51.0692010
  59.0452000  39.6589780  50.1719830  60.1163100  38.9537890  50.9765400
  69.8217380  38.4941420  35.3345750  69.7381100  38.9255640  34.4842190
  70.5411570  38.9539770  35.7672570  70.8991520  40.9508940  48.4115720
  70.1739710  41.5437720  48.2145110  71.4266980  40.9432480  47.6129090
  70.8504630  45.3483680  38.0627880  70.2080790  44.6939300  38.3371600
  70.4635290  45.7538770  37.2868550  66.4291110  42.6769110  41.9099570
  66.7814930  42.0797240  41.2500940  65.5453440  42.3513340  42.0807820
  62.5154390  43.4366800  39.3169980  63.2025520  43.9836010  39.6977570
  61.7286810  43.9807530  39.3519590  54.6546790  39.0539620  34.8087060
  55.5241640  39.3364420  35.0922980  54.1637110  39.8675490  34.6935870
  61.8181600  40.4412830  38.9295340  62.2744380  41.2518080  39.1555530
  61.4669810  40.1235970  39.7613830  64.1214210  45.9519170  46.1587640
  64.7656430  46.1578550  46.8361060  64.4843650  45.1907570  45.7058490
  57.7193380  30.7850480  39.4017860  57.5908010  30.7768380  40.3502780
  56.8955400  31.1233570  39.0508870  65.3946290  43.9551520  44.8765090
  66.0368520  43.2544680  44.9897260  65.9195640  44.7349960  44.6961980
  69.2402010  44.2400140  34.6004230  69.0139590  43.5230580  35.1928870
  68.8498210  43.9912580  33.7625980  67.1683910  44.7546420  48.0801150
  67.5040150  45.3413110  48.7579070  66.2484250  44.6239130  48.3098940
  55.0218040  48.2667000  35.3748690  55.3815680  48.8656340  34.7205960
  54.8810380  48.8126890  36.1483720  68.8218260  42.1572080  36.2618390
  68.5339960  42.6184770  37.0496270  69.6170430  41.6969850  36.5302610
  56.6393300  40.8713090  36.9369120  56.0321250  41.6111990  36.9464420
  57.1142650  40.9612450  36.1107320  66.2126090  35.0363910  46.6126010
  66.5806910  34.2159120  46.9405580  65.3524290  35.0965800  47.0281660
  69.5788120  33.9920850  37.4213570  68.9501280  34.0966520  36.7071800
  69.0840040  34.2117630  38.2107450  61.5472150  36.2706800  38.8371450
  60.8388300  36.7393140  39.2785060  61.8316630  35.6128810  39.4716640
  63.1728080  37.6903500  46.8363980  63.6713330  38.1649320  47.5015830
  63.3151030  36.7667020  47.0434010  65.5787580  32.9957460  40.2767240
  65.4555360  33.0143590  39.3276750  66.5272140  33.0436400  40.3965640
  59.7507170  34.5791880  36.2122160  60.5997700  35.0162030  36.1462350
  59.3838440  34.8912140  37.0394220  70.3794940  33.9071460  47.6792370
  69.8768540  34.6476860  48.0186180  71.1951600  34.2955460  47.3629160
  68.6716950  39.1504640  41.1253730  67.7307090  39.1654870  41.3001420
  68.9861020  38.3640600  41.5714030  58.6498590  40.8324240  34.6857690
  59.4161860  40.7205600  35.2483120  58.7273280  40.1362210  34.0334460
  57.3445350  38.2649310  35.3690580  57.4248940  37.3176820  35.4807980
  58.2365100  38.5956190  35.4751240  55.0305540  44.4818270  38.3466630
  54.1045320  44.7239410  38.3372040  55.4961970  45.3092530  38.2251380
  67.4183340  47.4350930  50.2195520  68.3705090  47.3508950  50.1695760
  67.2711560  48.0992640  50.8929310  70.3092540  46.8145140  35.7187430
  70.0234050  46.4010280  34.9041610  70.1112090  47.7432850  35.5987950
  54.8716150  40.0864230  50.6046750  55.3755170  39.5071510  51.1762980
  54.1323570  40.3704460  51.1423120  61.7739770  42.8078420  34.1593040
  61.6690410  42.1930770  34.8854420  61.6063990  42.2844310  33.3756050
  61.9254090  41.4935220  50.1382270  61.1599760  42.0620220  50.0536940
  62.1070050  41.2011430  49.2450500  65.0142500  41.8698450  34.7635030
  64.4652600  42.3167750  35.4077770  65.6361760  41.3647700  35.2872700
  69.0677440  43.2240550  50.6957290  69.8086910  43.5616310  50.1924750
  68.3050120  43.3932610  50.1427060  56.9039230  38.2293820  51.4996820
  56.9444570  37.9307690  52.4082050  57.7584730  38.6301430  51.3404340
  60.6817620  40.8289370  36.6600330  61.1034040  40.6629240  37.5031720
  60.8068460  40.0189600  36.1655470  58.8445040  36.8085920  49.4671310
  58.3141500  36.3176870  48.8394650  59.5133110  37.2370120  48.9329240
  63.1945260  39.8526980  33.9077430  63.7150920  39.1376000  33.5418580
  63.8413660  40.4912850  34.2077940  67.7423100  41.2755380  49.2312500
  68.1564120  41.4300460  50.0802920  66.8074100  41.4010600  49.3938280
  68.2145270  38.6151540  51.2351650  68.7966040  37.8603860  51.1472130
  68.3907040  39.1458980  50.4583130  59.3317340  33.7748290  49.5468600
  59.2374210  33.1569040  48.8219470  58.7514730  34.5014580  49.3198510
  62.0978780  32.3321530  46.5795990  61.6496080  32.3545790  45.7341540
  61.4643980  31.9340550  47.1766290  62.5038330  41.2275860  47.2008430
  62.9226440  42.0708590  47.0284670  61.5846960  41.3647900  46.9715210
  64.8402230  38.9592040  48.5846270  64.9598440  38.3633180  49.3241110
  65.6996230  38.9961730  48.1647570  67.1790130  39.5129230  47.1608780
  66.6525350  40.0371850  46.5573920  67.5221470  40.1456620  47.7918510
  59.5776520  36.9022600  33.6058490  59.3765580  36.0389960  33.9671830
  59.4068570  36.8155960  32.6680090  61.6071000  35.5013390  49.8422090
  62.1970690  35.1929240  50.5299910  60.7891240  35.0293140  49.9981990
  66.4264430  35.1179200  50.0755110  65.7379950  34.4560740  50.0105100
  67.1470450  34.6717470  50.5203570  67.0564830  31.7130830  36.1345370
  67.3367120  30.8698730  36.4904790  66.2830560  31.9453940  36.6484120
  58.3759320  34.0023220  33.5936370  58.6785220  34.0090650  32.6855520
  59.1153910  33.6521080  34.0904030  61.5944250  32.9457840  34.5792570
  61.2466250  32.2681830  33.9995020  61.7957020  32.4847350  35.3935960
  57.3989450  43.3065640  34.4266170  57.8364320  43.8495310  35.0823750
  57.8837180  42.4812590  34.4362510  54.6135250  46.0954670  41.8786430
  54.9438260  45.2275730  41.6465070  55.0426250  46.3013190  42.7091390
  59.2097170  44.4263680  39.5388400  58.9092710  44.3028650  40.4392310
  59.1034660  43.5672270  39.1304130  70.7387640  46.4642260  48.9045370
  70.1389630  46.5234820  48.1609290  70.8681540  45.5247240  49.0342220
  71.4345550  40.9507560  36.7449280  72.1964460  41.5204210  36.8508970
  71.4499920  40.3834760  37.5157590  54.9349890  39.4745490  40.9756940
  54.2798730  39.2057130  40.3316640  55.7727840  39.3649970  40.5258920
  72.4405520  41.8057660  41.5891210  72.8114350  41.0224980  41.1827180
  73.0807450  42.4946760  41.4108510  69.4239280  43.1894240  47.0021530
  68.6099120  43.6191400  47.2647320  69.8313480  43.8012650  46.3890580
  71.4864720  41.2441930  33.9021800  71.7613560  42.1520810  33.7741020
  71.2975460  41.1804460  34.8383790  67.8840330  34.2686780  35.1975430
  68.3025210  34.0817760  34.3572090  67.5776390  33.4165830  35.5078360
  71.3830060  39.1810920  38.8951230  71.0073660  38.4138850  38.4632520
  70.6533180  39.5633620  39.3826160  55.9725820  39.8598060  45.5160280
  56.3398860  39.7725460  46.3956300  55.4036640  39.0964610  45.4167140
  70.7729680  38.3282440  48.5290750  70.5415770  38.0995190  47.6288700
  71.0334230  39.2481990  48.4835640  69.2117750  33.5538870  51.3070450
  70.0887930  33.5622270  51.6904450  69.2238590  32.8169710  50.6962800
  54.1487970  36.6844420  36.9182270  53.2452050  36.9474620  36.7433930
  54.6328590  36.9555590  36.1382230  70.6581020  37.4068410  42.1958470
  71.1818500  36.9131060  41.5648640  71.2440440  37.5418770  42.9406040
  70.8370740  37.4908280  45.7178020  69.8873450  37.4571820  45.8323010
  71.0183750  38.4008390  45.4827790  56.6915180  35.7409960  34.8276650
  57.4006880  35.3193180  34.3423930  55.9755120  35.8085190  34.1960000
  56.3389340  31.7949290  33.8679300  57.0617470  32.3358230  34.1860520
  56.6113860  31.5212710  32.9920840  70.1480990  36.6641760  38.1350880
  70.6440110  36.4312630  38.9199760  69.9497060  35.8253600  37.7188520
  56.0281530  31.0455480  43.7701920  56.6757720  30.4952860  43.3297080
  56.4483370  31.2998630  44.5917730  71.5768150  35.3002710  40.6688560
  71.4667430  35.1458750  41.6070830  72.3375740  34.7723650  40.4263970
  69.9233870  31.2396840  47.1271560  70.5606090  31.8530980  47.4930750
  70.0708760  31.2757500  46.1820790  72.4658420  33.1310630  33.9094700
  73.3907730  32.9991810  33.7012990  72.4434210  33.2103450  34.8631150
  72.5396910  33.9021290  36.5351410  71.7448410  33.8366410  37.0644320
  72.7440190  34.8371930  36.5236760  55.7813530  31.2011150  46.5127240
  55.4328350  31.6574970  47.2785420  55.4501230  30.3068280  46.5949670
  57.3877900  44.3730750  50.6780430  57.3447530  44.0023660  51.5594890
  57.5188910  45.3108320  50.8182250  63.2938350  32.3923030  50.0346660
  63.2327240  32.9844860  50.7842070  64.2338730  32.2848990  49.8896920
  65.9312910  32.0493090  49.6738950  66.5453320  32.3672380  49.0120030
  66.4762470  31.5641680  50.2934810  72.3488090  47.9484720  47.0800790
  71.8546370  48.3453590  46.3627920  71.7401380  47.3233930  47.4738070
  56.4534170  30.7287350  49.7878010  57.0017160  30.5475400  49.0244120
  56.5189480  29.9381460  50.3234320  66.6720950  30.6125230  46.0008240
  65.7980790  30.9460340  45.7981170  66.5631700  30.1398410  46.8260110
  67.5792930  32.8196100  47.3849960  67.2506290  32.0047860  47.0051690
  68.5275230  32.7765910  47.2615650  56.8578160  44.6851380  46.7486250
  56.1312220  44.0656670  46.6812200  56.9187310  45.0791990  45.8784330
  64.4195770  31.5295070  44.9401150  63.6367560  32.0040570  45.2197910
  64.1258700  30.6249900  44.8314330  68.9716840  32.2318170  42.9850240
  69.4124930  32.1763270  42.1371840  68.7024430  33.1476180  43.0560420
  70.8355410  31.8633410  40.9959060  70.7743810  30.9194630  40.8490080
  71.6147440  31.9713500  41.5412520  55.1408160  48.0025770  39.9583010
  54.9730200  47.3696450  40.6564900  54.2742670  48.2085170  39.6077200
  55.7636180  31.8342550  37.4614870  56.5215540  31.9471430  36.8878900
  55.3013350  32.6711750  37.4158300  62.3049990  33.9481820  40.4517180
  61.4924500  33.5738710  40.1113060  62.8091630  33.1926900  40.7538370
  66.8074970  30.6124270  41.6900250  67.4104340  31.1844480  42.1648770
  66.0667960  31.1763710  41.4674150  69.9509570  31.0145830  36.9640530
  70.1460200  31.9129280  37.2307960  69.1639440  30.7832910  37.4573480
  56.7470860  46.6959000  37.4033150  56.2218480  47.0767030  36.6995110
  56.6715440  47.3209770  38.1242860  58.1361330  32.3606600  36.0016840
  58.6654090  31.5736400  35.8724790  58.7689650  33.0397790  36.2352370
  60.3299170  32.0981740  39.0562230  59.7001910  31.3969050  39.2232360
  59.7904310  32.8585870  38.8395390  63.2691120  48.7120970  51.7272840
  64.1958430  48.4765240  51.7708800  63.2541550  49.5392970  51.2458870
  60.4554730  31.3765720  51.4914720  60.1739000  31.8799320  50.7275540
  60.8374430  30.5787470  51.1256850  59.3463830  48.6441380  36.2782400
  60.0782650  48.3600660  35.7306290  59.6057500  48.4054660  37.1681780
  58.5078620  44.7606110  36.2828730  57.8787500  45.2291210  36.8314560
  58.6226450  43.9155330  36.7174920  67.0570190  30.7919300  52.0695190
  66.9435640  31.1113910  52.9646710  67.8739930  31.1931810  51.7732470
  69.8368680  47.9390830  51.5513880  70.6294000  47.4440060  51.3439840
  70.1301830  48.6180970  52.1589490  65.9628340  38.8111770  22.4329930
  65.8822390  37.8966380  22.1621640  65.5492760  39.3078840  21.7269640
  64.0946380  40.5890790  24.3139200  63.3188480  40.1091230  24.6037770
  64.7459310  39.9096440  24.1395360  58.1112210  40.9010600  25.1914960
  57.2797090  40.6459310  25.5911470  58.7193190  40.9721370  25.9272880
  68.1153810  44.9950980  23.0938330  67.6535340  44.2238220  23.4225500
  68.9279360  45.0217050  23.5990780  58.0913470  44.9350690  25.3872980
  58.3941510  44.0448430  25.2083200  58.8357060  45.4920910  25.1595230
  56.5204160  35.8612490  18.9757350  55.6320860  36.2028460  18.8737230
  56.8045350  35.6612810  18.0838180  54.4837170  38.4618140  24.8597050
  55.0553280  37.6940340  24.8600690  54.4838710  38.7606900  23.9503660
  55.7262040  33.8702500  26.6465980  55.5464880  32.9728250  26.9268740
  55.3242120  34.4174370  27.3212930  64.5660540  36.0718360  24.5478290
  64.9425360  35.1990240  24.4351960  64.4680050  36.4077060  23.6568730
  58.6965550  34.4443990  20.0095730  58.8032300  35.3447720  20.3164490
  57.7857910  34.3961960  19.7190380  68.3484660  33.5668800  21.4806630
  69.1694280  33.0765370  21.5232110  68.3818740  34.1566460  22.2338470
  56.3448710  36.3663000  25.2548320  57.0258820  36.6301370  25.8735720
  56.0296760  35.5263870  25.5886330  60.5373280  37.4130360  24.3420910
  61.0451500  37.9111330  24.9825930  61.0686520  36.6365560  24.1660270
  72.6384210  35.5835550  28.0450260  71.9336380  35.9717260  27.5265370
  72.9042130  36.2785840  28.6471190  58.8209380  32.0528920  28.6084330
  58.8227820  32.5701310  27.8030230  57.9913690  31.5759100  28.5854260
  65.2080470  42.1648230  20.1074230  64.5897740  42.6297680  19.5436950
  65.7203720  42.8575710  20.5243740  60.0712230  41.6924100  26.7857830
  59.7381610  42.3193020  27.4278900  60.2478910  42.2185980  26.0059500
  68.5846140  35.5069180  24.2534170  67.8801710  35.7954070  24.8337280
  68.9458300  36.3169290  23.8933730  58.5024710  33.7638880  26.6154780
  58.8441520  34.6080930  26.3208650  57.5640520  33.9122620  26.7320120
  59.2831330  43.6604900  28.6007010  59.9005330  44.3355980  28.3191460
  58.4224450  44.0692880  28.5094510  54.5763670  42.8504760  17.4813860
  54.1991650  43.3391860  16.7498760  54.8336740  43.5230040  18.1120390
  70.2008920  45.1244310  26.5161650  69.5172440  45.7943420  26.5078320
  70.7403210  45.3224960  25.7506510  71.6533060  34.9523970  24.6443380
  70.7057970  34.9862950  24.7758810  71.9783050  35.7662920  25.0292740
  62.1852600  31.2521150  22.9399370  62.4927580  30.6968040  22.2234870
  61.2553300  31.3865610  22.7572360  67.7367660  46.9688440  25.2306830
  67.7494820  46.5650730  24.3629090  67.1842880  47.7435730  25.1268260
  69.0313080  43.6904660  20.3197000  68.9209410  42.7478990  20.4446420
  69.0281330  44.0520300  21.2059760  67.1353100  41.8718280  26.5589440
  67.5521890  41.6578390  25.7242900  67.8592920  42.1291070  27.1298060
  64.5733360  39.3169980  19.6759490  63.6462640  39.2507360  19.9047960
  64.7258180  40.2550110  19.5614730  64.5602440  35.5886980  16.6726650
  63.6206110  35.7500940  16.7579110  64.8785700  36.3072660  16.1262640
  71.0815200  40.2705500  26.6505680  70.2533830  40.3398590  26.1755810
  71.6765680  40.8559810  26.1821510  68.6030650  40.8790280  20.1794740
  67.9843070  40.5409830  19.5321040  68.5855100  40.2350040  20.8873930
  68.0457210  37.0574820  27.5960550  67.6328390  37.8828530  27.8500540
  67.3133160  36.4719860  27.4036910  60.1790000  39.8434720  22.4579220
  59.7747000  39.1311970  21.9625120  60.2653120  39.4987960  23.3467260
  58.8918620  36.6177930  26.2378260  59.4433210  36.7273270  25.4631510
  59.4062130  36.9915530  26.9533490  68.7357310  47.1034150  28.2841530
  68.2587870  47.9106340  28.0914140  68.0519100  46.4512480  28.4367740
  59.7390130  43.2683970  31.2726230  58.8418660  43.4923940  31.5199630
  59.7643000  43.3918910  30.3237630  66.7795350  40.1177090  17.1867490
  67.2188630  39.2799520  17.0405310  67.4923770  40.7506490  17.2731630
  58.5661350  40.1397290  29.8483600  58.4269120  41.0120090  30.2171000
  57.6842710  39.7970100  29.7031540  60.3641700  46.0818990  32.0568750
  60.3357130  46.4861940  31.1897180  60.2006670  45.1529350  31.8940350
  70.3612490  31.3719900  15.5008530  70.0485150  31.4646730  16.4007600
  71.1224960  31.9500930  15.4505960  56.8794630  38.7379700  19.9585870
  56.7592230  39.4641790  19.3467140  56.5695520  37.9682610  19.4813780
  54.5180000  41.9094840  25.7654510  54.5960420  42.0443610  24.8210230
  55.1321680  41.2010730  25.9582630  55.7627630  43.6095030  22.1760690
  55.3555710  43.7509620  21.3214290  56.6540640  43.3255190  21.9731900
  71.7189770  44.0558940  30.5132930  71.8452830  43.8170820  29.5950110
  71.7611150  43.2243480  30.9855010  65.5806510  47.7586940  29.0827740
  66.0951180  47.6694950  29.8850170  64.7375590  48.1046640  29.3755650
  67.5560910  48.0442280  18.5111740  67.3962050  47.7545220  19.4093570
  67.3907620  47.2682410  17.9756970  60.0349290  47.8240810  20.2883360
  59.8591770  46.9076350  20.0751160  59.1805030  48.1828100  20.5281160
  67.2587040  45.5529840  17.0709740  66.5652200  45.5507130  16.4112020
  68.0009900  45.1289160  16.6403910  66.8236970  47.1792550  21.1458230
  67.2793920  46.3981930  21.4596850  67.1629490  47.8899370  21.6899410
  71.5713780  36.1091400  31.4782670  70.9558050  36.6171070  30.9498130
  71.2510200  35.2089730  31.4208610  54.5739520  42.9509010  28.3048970
  54.7370560  42.4814370  27.4868340  55.0391970  42.4432570  28.9697810
  59.3458290  32.0814770  23.3409540  58.9026440  32.8624310  23.0094060
  59.9043280  32.4044660  24.0480480  63.6328100  34.9483290  28.9444860
  63.1707470  35.1566310  29.7564800  63.2306210  34.1342640  28.6415530
  68.6332610  36.1692240  30.0741520  67.7826200  35.8697990  30.3950590
  68.4734400  36.4134250  29.1625340  65.7282320  37.6693990  32.1740310
  66.0535730  36.8357740  31.8342540  66.5162650  38.1922510  32.3218640
  62.4617110  31.7025470  18.2215370  61.8371290  31.6985340  18.9468680
  62.3747230  30.8356430  17.8251340  61.3834190  32.6262100  25.1999140
  61.6806520  33.5324930  25.1191160  61.9319750  32.1380880  24.5858710
  59.1372510  37.2048340  21.0690790  58.9113430  36.9885510  21.9737410
  58.3565040  37.6376800  20.7236760  66.3670270  37.2111710  19.6681440
  65.7679160  37.9347510  19.4845060  66.9149880  37.1488490  18.8857890
  61.5771720  38.1033920  31.7351060  61.4815320  37.1628650  31.5851460
  62.4203700  38.3248990  31.3399130  64.9735140  35.8475250  21.6984720
  65.3664710  36.1647450  20.8853410  65.3351990  34.9687130  21.8129240
  56.7082260  34.5147590  29.8884840  56.3145650  35.3622800  30.0957620
  56.0200660  33.8773960  30.0793480  63.2827310  34.5982560  32.9581580
  62.5925630  34.4054760  33.5927670  64.0259610  34.8817200  33.4905880
  54.0099310  32.4376050  23.9214920  53.7212360  33.0078910  24.6339900
  54.7545070  31.9580500  24.2846150  54.1969540  36.3796170  15.1317640
  54.1144210  37.3226930  15.2732630  53.8452600  36.2371080  14.2529990
  65.5590280  38.4381000  25.7935500  64.8271400  38.9467810  26.1425600
  65.1614620  37.6210980  25.4924280  61.9967670  35.1135200  24.1987990
  62.0003730  34.6725150  23.3492530  62.8918790  35.4352530  24.3059810
  57.8470050  34.9961690  23.1582200  57.5070100  35.4736920  23.9149250
  57.0847370  34.5426810  22.7983300  62.0587820  36.1147280  17.1894750
  62.1800640  36.0733760  18.1380570  61.6736330  36.9771430  17.0341480
  66.0216190  33.8914680  25.2058440  66.0388930  34.3423330  26.0500290
  65.7731770  32.9920320  25.4191880  61.0709320  38.4248420  16.5878050
  60.5026220  37.9766670  15.9613960  61.7798320  38.7841200  16.0543200
  69.4486940  31.3046860  31.0444820  69.7732710  30.5736520  31.5702800
  69.4843450  30.9860500  30.1425810  56.1478500  42.3260440  30.4644780
  55.7633290  41.6854110  31.0627740  56.4590690  43.0296560  31.0339510
  62.2975640  39.1736980  25.9453400  62.6645770  38.6995550  26.6914740
  62.1080700  40.0478550  26.2861740  55.1616130  33.9180670  22.0746870
  54.8763050  33.5536340  22.9125490  55.0994990  33.1861130  21.4610010
  60.0875010  38.2145620  28.2637610  59.7832080  39.0937600  28.4887970
  61.0421470  38.2745410  28.2995050  58.6156800  42.4206610  18.8604460
  57.8419060  41.8804230  18.7003180  59.3451430  41.9013220  18.5222220
  69.3744780  41.4171970  24.6530850  70.0943900  41.9127260  24.2626960
  69.1726600  40.7389860  24.0084720  64.8354720  32.8109930  18.7960240
  64.0219330  32.3123100  18.7205550  64.6416670  33.6508180  18.3796590
  64.7563580  41.4881030  30.5399850  64.6900890  40.5676700  30.2857440
  64.1268720  41.5856470  31.2544490  67.5503110  37.1829580  17.0922400
  68.4382730  37.4946810  16.9173740  67.5208200  36.3101830  16.7002980
  58.6594200  42.0886990  22.4983270  59.1772870  41.2855250  22.4440160
  58.2078220  42.0266130  23.3400100  63.5463700  43.3553270  17.7710570
  63.8879400  44.0995500  17.2753890  62.7176410  43.6684390  18.1335400
  56.1438740  39.0548360  29.4108970  55.7853680  39.7202210  29.9982310
  55.8493300  38.2231910  29.7821590  59.3451860  39.5132600  32.2948520
  59.0452000  39.6589780  31.3976340  60.1163100  38.9537890  32.2021910
  64.6880310  44.3101600  30.2903650  64.7024850  43.3782560  30.0722560
  63.9805410  44.3961360  30.9293420  69.8217380  38.4941420  16.5602260
  69.7381100  38.9255640  15.7098700  70.5411570  38.9539770  16.9929080
  70.8991520  40.9508940  29.6372230  70.1739710  41.5437720  29.4401620
  71.4266980  40.9432480  28.8385600  66.4291110  42.6769110  23.1356080
  66.7814930  42.0797240  22.4757450  65.5453440  42.3513340  23.3064330
  54.6546790  39.0539620  16.0343570  55.5241640  39.3364420  16.3179490
  54.1637110  39.8675490  15.9192380  61.8181600  40.4412830  20.1551850
  62.2744380  41.2518080  20.3812040  61.4669810  40.1235970  20.9870340
  57.7193380  30.7850480  20.6274370  57.5908010  30.7768380  21.5759290
  56.8955400  31.1233570  20.2765380  69.2402010  44.2400140  15.8260740
  69.0139590  43.5230580  16.4185380  68.8498210  43.9912580  14.9882490
  67.1683910  44.7546420  29.3057660  67.5040150  45.3413110  29.9835580
  66.2484250  44.6239130  29.5355450  55.0218040  48.2667000  16.6005200
  55.3815680  48.8656340  15.9462470  54.8810380  48.8126890  17.3740230
  54.7187310  32.5441600  30.0881070  54.0045830  32.7438520  30.6933680
  55.1382350  31.7681170  30.4595870  68.8218260  42.1572080  17.4874900
  68.5339960  42.6184770  18.2752780  69.6170430  41.6969850  17.7559120
  55.0059900  46.5321860  31.0747600  55.1151020  45.5916600  30.9342990
  54.3540460  46.7976610  30.4261330  62.9972490  44.8037750  32.4745720
  62.6769360  44.0846990  33.0191410  62.3230850  45.4792820  32.5481780
  61.0386660  45.6498200  17.4178870  61.0296760  46.3827890  16.8023380
  60.1185020  45.4029780  17.5105830  56.6393300  40.8713090  18.1625630
  56.0321250  41.6111990  18.1720930  57.1142650  40.9612450  17.3363830
  66.2126090  35.0363910  27.8382520  66.5806910  34.2159120  28.1662090
  65.3524290  35.0965800  28.2538170  69.5788120  33.9920850  18.6470080
  68.9501280  34.0966520  17.9328310  69.0840040  34.2117630  19.4363960
  64.0246260  45.7126440  16.0804060  64.1258240  45.5090430  15.1506040
  63.1248000  45.4584720  16.2851840  61.5472150  36.2706800  20.0627960
  60.8388300  36.7393140  20.5041570  61.8316630  35.6128810  20.6973150
  63.1728080  37.6903500  28.0620490  63.6713330  38.1649320  28.7272340
  63.3151030  36.7667020  28.2690520  65.5787580  32.9957460  21.5023750
  65.4555360  33.0143590  20.5533260  66.5272140  33.0436400  21.6222150
  62.6664370  48.2312760  20.7751730  62.9205870  48.1934150  19.8531100
  61.7176850  48.1046090  20.7679980  59.7507170  34.5791880  17.4378670
  60.5997700  35.0162030  17.3718860  59.3838440  34.8912140  18.2650730
  70.3794940  33.9071460  28.9048880  69.8768540  34.6476860  29.2442690
  71.1951600  34.2955460  28.5885670  68.6716950  39.1504640  22.3510240
  67.7307090  39.1654870  22.5257930  68.9861020  38.3640600  22.7970540
  58.6498590  40.8324240  15.9114200  59.4161860  40.7205600  16.4739630
  58.7273280  40.1362210  15.2590970  57.3445350  38.2649310  16.5947090
  57.4248940  37.3176820  16.7064490  58.2365100  38.5956190  16.7007750
  70.6742530  46.3213490  24.0264500  70.7989950  47.1444660  24.4988310
  71.5408090  46.1104220  23.6788650  58.1460060  48.4144700  23.6981630
  58.8822540  47.8660160  23.9690200  58.5300980  49.2800710  23.5587620
  55.0305540  44.4818270  19.5723140  54.1045320  44.7239410  19.5628550
  55.4961970  45.3092530  19.4507890  57.1518340  47.5990770  32.8867210
  57.9531070  47.9202820  33.3002610  56.6370160  47.2386350  33.6087120
  61.2562370  47.5875010  15.5207200  62.0490980  47.8763840  15.0688990
  60.7366720  47.1567180  14.8419680  65.9882970  43.7070640  32.8342620
  65.3821130  43.7302240  32.0938370  65.6837080  42.9753680  33.3709870
  67.4183340  47.4350930  31.4452030  68.3705090  47.3508950  31.3952270
  67.2711560  48.0992640  32.1185820  54.8716150  40.0864230  31.8303260
  55.3755170  39.5071510  32.4019490  54.1323570  40.3704460  32.3679630
  61.7739770  42.8078420  15.3849550  61.6690410  42.1930770  16.1110930
  61.6063990  42.2844310  14.6012560  61.9254090  41.4935220  31.3638780
  61.1599760  42.0620220  31.2793450  62.1070050  41.2011430  30.4707010
  65.0142500  41.8698450  15.9891540  64.4652600  42.3167750  16.6334280
  65.6361760  41.3647700  16.5129210  69.0677440  43.2240550  31.9213800
  69.8086910  43.5616310  31.4181260  68.3050120  43.3932610  31.3683570
  56.9039230  38.2293820  32.7253330  56.9444570  37.9307690  33.6338560
  57.7584730  38.6301430  32.5660850  60.6817620  40.8289370  17.8856840
  61.1034040  40.6629240  18.7288230  60.8068460  40.0189600  17.3911980
  58.8445040  36.8085920  30.6927820  58.3141500  36.3176870  30.0651160
  59.5133110  37.2370120  30.1585750  63.1945260  39.8526980  15.1333940
  63.7150920  39.1376000  14.7675090  63.8413660  40.4912850  15.4334450
  67.7423100  41.2755380  30.4569010  68.1564120  41.4300460  31.3059430
  66.8074100  41.4010600  30.6194790  68.2145270  38.6151540  32.4608160
  68.7966040  37.8603860  32.3728640  68.3907040  39.1458980  31.6839640
  59.3317340  33.7748290  30.7725110  59.2374210  33.1569040  30.0475980
  58.7514730  34.5014580  30.5455020  62.0978780  32.3321530  27.8052500
  61.6496080  32.3545790  26.9598050  61.4643980  31.9340550  28.4022800
  62.5038330  41.2275860  28.4264940  62.9226440  42.0708590  28.2541180
  61.5846960  41.3647900  28.1971720  64.8402230  38.9592040  29.8102780
  64.9598440  38.3633180  30.5497620  65.6996230  38.9961730  29.3904080
  67.1790130  39.5129230  28.3865290  66.6525350  40.0371850  27.7830430
  67.5221470  40.1456620  29.0175020  59.5776520  36.9022600  14.8315000
  59.3765580  36.0389960  15.1928340  59.4068570  36.8155960  13.8936600
  60.3545750  47.5328870  29.5422670  59.8166840  48.2574930  29.2231370
  60.6079710  47.0559210  28.7520010  61.6071000  35.5013390  31.0678600
  62.1970690  35.1929240  31.7556420  60.7891240  35.0293140  31.2238500
  66.4264430  35.1179200  31.3011620  65.7379950  34.4560740  31.2361610
  67.1470450  34.6717470  31.7460080  67.0564830  31.7130830  17.3601880
  67.3367120  30.8698730  17.7161300  66.2830560  31.9453940  17.8740630
  58.3759320  34.0023220  14.8192880  58.6785220  34.0090650  13.9112030
  59.1153910  33.6521080  15.3160540  63.2107960  48.7680080  29.8009320
  63.1366660  49.6715220  30.1081690  62.3086800  48.4491980  29.7731390
  61.5944250  32.9457840  15.8049080  61.2466250  32.2681830  15.2251530
  61.7957020  32.4847350  16.6192470  63.7593290  47.9338590  17.4235680
  64.6544080  48.2723560  17.4454440  63.7910920  47.2118000  16.7959960
  57.3989450  43.3065640  15.6522680  57.8364320  43.8495310  16.3080260
  57.8837180  42.4812590  15.6619020  54.6135250  46.0954670  23.1042940
  54.9438260  45.2275730  22.8721580  55.0426250  46.3013190  23.9347900
  59.2097170  44.4263680  20.7644910  58.9092710  44.3028650  21.6648820
  59.1034660  43.5672270  20.3560640  55.1025460  46.9625260  25.8424570
  54.6656450  47.1426060  26.6748720  55.6703140  47.7199880  25.7006290
  70.7387640  46.4642260  30.1301880  70.1389630  46.5234820  29.3865800
  70.8681540  45.5247240  30.2598730  71.9789090  44.2060080  15.4671590
  71.1482050  44.2736730  15.9378820  72.1560920  45.0964200  15.1638450
  71.4345550  40.9507560  17.9705790  72.1964460  41.5204210  18.0765480
  71.4499920  40.3834760  18.7414100  54.9349890  39.4745490  22.2013450
  54.2798730  39.2057130  21.5573150  55.7727840  39.3649970  21.7515430
  72.4405520  41.8057660  22.8147720  72.8114350  41.0224980  22.4083690
  73.0807450  42.4946760  22.6365020  69.4239280  43.1894240  28.2278040
  68.6099120  43.6191400  28.4903830  69.8313480  43.8012650  27.6147090
  71.4864720  41.2441930  15.1278310  71.7613560  42.1520810  14.9997530
  71.2975460  41.1804460  16.0640300  67.8840330  34.2686780  16.4231940
  68.3025210  34.0817760  15.5828600  67.5776390  33.4165830  16.7334870
  71.3830060  39.1810920  20.1207740  71.0073660  38.4138850  19.6889030
  70.6533180  39.5633620  20.6082670  55.9725820  39.8598060  26.7416790
  56.3398860  39.7725460  27.6212810  55.4036640  39.0964610  26.6423650
  70.7729680  38.3282440  29.7547260  70.5415770  38.0995190  28.8545210
  71.0334230  39.2481990  29.7092150  55.5241820  36.7707150  30.6475210
  54.6297870  36.7373910  30.9868920  56.0639370  36.9693940  31.4126460
  69.2117750  33.5538870  32.5326960  70.0887930  33.5622270  32.9160960
  69.2238590  32.8169710  31.9219310  54.1487970  36.6844420  18.1438780
  53.2452050  36.9474620  17.9690440  54.6328590  36.9555590  17.3638740
  70.6581020  37.4068410  23.4214980  71.1818500  36.9131060  22.7905150
  71.2440440  37.5418770  24.1662550  70.8370740  37.4908280  26.9434530
  69.8873450  37.4571820  27.0579520  71.0183750  38.4008390  26.7084300
  56.6915180  35.7409960  16.0533160  57.4006880  35.3193180  15.5680440
  55.9755120  35.8085190  15.4216510  56.3389340  31.7949290  15.0935810
  57.0617470  32.3358230  15.4117030  56.6113860  31.5212710  14.2177350
  70.1480990  36.6641760  19.3607390  70.6440110  36.4312630  20.1456270
  69.9497060  35.8253600  18.9445030  56.0281530  31.0455480  24.9958430
  56.6757720  30.4952860  24.5553590  56.4483370  31.2998630  25.8174240
  71.5768150  35.3002710  21.8945070  71.4667430  35.1458750  22.8327340
  72.3375740  34.7723650  21.6520480  69.9233870  31.2396840  28.3528070
  70.5606090  31.8530980  28.7187260  70.0708760  31.2757500  27.4077300
  72.4658420  33.1310630  15.1351210  73.3907730  32.9991810  14.9269500
  72.4434210  33.2103450  16.0887660  72.5396910  33.9021290  17.7607920
  71.7448410  33.8366410  18.2900830  72.7440190  34.8371930  17.7493270
  69.4815330  47.9412840  21.7546310  70.0774400  47.6197410  21.0780730
  69.7393480  47.4684660  22.5459580  55.7813530  31.2011150  27.7383750
  55.4328350  31.6574970  28.5041930  55.4501230  30.3068280  27.8206180
  57.3877900  44.3730750  31.9036940  57.3447530  44.0023660  32.7851400
  57.5188910  45.3108320  32.0438760  63.2938350  32.3923030  31.2603170
  63.2327240  32.9844860  32.0098580  64.2338730  32.2848990  31.1153430
  65.9312910  32.0493090  30.8995460  66.5453320  32.3672380  30.2376540
  66.4762470  31.5641680  31.5191320  72.3488090  47.9484720  28.3057300
  71.8546370  48.3453590  27.5884430  71.7401380  47.3233930  28.6994580
  56.4534170  30.7287350  31.0134520  57.0017160  30.5475400  30.2500630
  56.5189480  29.9381460  31.5490830  57.2265930  47.3193000  29.0234720
  56.6326250  47.1877700  29.7624760  57.2189770  46.4831140  28.5576820
  66.6720950  30.6125230  27.2264750  65.7980790  30.9460340  27.0237680
  66.5631700  30.1398410  28.0516620  67.5792930  32.8196100  28.6106470
  67.2506290  32.0047860  28.2308200  68.5275230  32.7765910  28.4872160
  70.0327540  48.5908140  25.5844040  69.5730510  49.3423950  25.2102060
  69.4040000  47.8714610  25.5258840  56.8578160  44.6851380  27.9742760
  56.1312220  44.0656670  27.9068710  56.9187310  45.0791990  27.1040840
  64.4195770  31.5295070  26.1657660  63.6367560  32.0040570  26.4454420
  64.1258700  30.6249900  26.0570840  68.9716840  32.2318170  24.2106750
  69.4124930  32.1763270  23.3628350  68.7024430  33.1476180  24.2816930
  70.8355410  31.8633410  22.2215570  70.7743810  30.9194630  22.0746590
  71.6147440  31.9713500  22.7669030  55.1408160  48.0025770  21.1839520
  54.9730200  47.3696450  21.8821410  54.2742670  48.2085170  20.8333710
  55.7636180  31.8342550  18.6871380  56.5215540  31.9471430  18.1135410
  55.3013350  32.6711750  18.6414810  62.3049990  33.9481820  21.6773690
  61.4924500  33.5738710  21.3369570  62.8091630  33.1926900  21.9794880
  66.8074970  30.6124270  22.9156760  67.4104340  31.1844480  23.3905280
  66.0667960  31.1763710  22.6930660  69.9509570  31.0145830  18.1897040
  70.1460200  31.9129280  18.4564470  69.1639440  30.7832910  18.6829990
  56.7470860  46.6959000  18.6289660  56.2218480  47.0767030  17.9251620
  56.6715440  47.3209770  19.3499370  58.1361330  32.3606600  17.2273350
  58.6654090  31.5736400  17.0981300  58.7689650  33.0397790  17.4608880
  60.3299170  32.0981740  20.2818740  59.7001910  31.3969050  20.4488870
  59.7904310  32.8585870  20.0651900  60.4554730  31.3765720  32.7171230
  60.1739000  31.8799320  31.9532050  60.8374430  30.5787470  32.3513360
  59.3463830  48.6441380  17.5038910  60.0782650  48.3600660  16.9562800
  59.6057500  48.4054660  18.3938290  58.5078620  44.7606110  17.5085240
  57.8787500  45.2291210  18.0571070  58.6226450  43.9155330  17.9431430
  67.0570190  30.7919300  33.2951700  66.9435640  31.1113910  34.1903220
  67.8739930  31.1931810  32.9988980  69.8368680  47.9390830  32.7770390
  70.6294000  47.4440060  32.5696350  70.1301830  48.6180970  33.3846000
  65.9628340  38.8111770   3.6586440  65.8822390  37.8966380   3.3878150
  65.5492760  39.3078840   2.9526150  64.0946380  40.5890790   5.5395710
  63.3188480  40.1091230   5.8294280  64.7459310  39.9096440   5.3651870
  58.1112210  40.9010600   6.4171470  57.2797090  40.6459310   6.8167980
  58.7193190  40.9721370   7.1529390  68.1153810  44.9950980   4.3194840
  67.6535340  44.2238220   4.6482010  68.9279360  45.0217050   4.8247290
  58.0913470  44.9350690   6.6129490  58.3941510  44.0448430   6.4339710
  58.8357060  45.4920910   6.3851740  54.4837170  38.4618140   6.0853560
  55.0553280  37.6940340   6.0857200  54.4838710  38.7606900   5.1760170
  64.3417120  47.2808990   3.9398830  63.7228560  47.7366490   3.3693270
  65.1968900  47.4360450   3.5388530  63.5355370  43.2647980   5.5465870
  63.4663650  42.3237920   5.3855000  64.2975230  43.3549390   6.1188440
  55.7262040  33.8702500   7.8722490  55.5464880  32.9728250   8.1525250
  55.3242120  34.4174370   8.5469440  64.5660540  36.0718360   5.7734800
  64.9425360  35.1990240   5.6608470  64.4680050  36.4077060   4.8825240
  68.3484660  33.5668800   2.7063140  69.1694280  33.0765370   2.7488620
  68.3818740  34.1566460   3.4594980  56.3448710  36.3663000   6.4804830
  57.0258820  36.6301370   7.0992230  56.0296760  35.5263870   6.8142840
  60.5373280  37.4130360   5.5677420  61.0451500  37.9111330   6.2082440
  61.0686520  36.6365560   5.3916780  72.6384210  35.5835550   9.2706770
  71.9336380  35.9717260   8.7521880  72.9042130  36.2785840   9.8727700
  58.8209380  32.0528920   9.8340840  58.8227820  32.5701310   9.0286740
  57.9913690  31.5759100   9.8110770  60.0712230  41.6924100   8.0114340
  59.7381610  42.3193020   8.6535410  60.2478910  42.2185980   7.2316010
  68.5846140  35.5069180   5.4790680  67.8801710  35.7954070   6.0593790
  68.9458300  36.3169290   5.1190240  58.5024710  33.7638880   7.8411290
  58.8441520  34.6080930   7.5465160  57.5640520  33.9122620   7.9576630
  59.2831330  43.6604900   9.8263520  59.9005330  44.3355980   9.5447970
  58.4224450  44.0692880   9.7351020  70.2008920  45.1244310   7.7418160
  69.5172440  45.7943420   7.7334830  70.7403210  45.3224960   6.9763020
  71.6533060  34.9523970   5.8699890  70.7057970  34.9862950   6.0015320
  71.9783050  35.7662920   6.2549250  62.1852600  31.2521150   4.1655880
  62.4927580  30.6968040   3.4491380  61.2553300  31.3865610   3.9828870
  67.7367660  46.9688440   6.4563340  67.7494820  46.5650730   5.5885600
  67.1842880  47.7435730   6.3524770  67.1353100  41.8718280   7.7845950
  67.5521890  41.6578390   6.9499410  67.8592920  42.1291070   8.3554570
  71.0815200  40.2705500   7.8762190  70.2533830  40.3398590   7.4012320
  71.6765680  40.8559810   7.4078020  68.0457210  37.0574820   8.8217060
  67.6328390  37.8828530   9.0757050  67.3133160  36.4719860   8.6293420
  60.1790000  39.8434720   3.6835730  59.7747000  39.1311970   3.1881630
  60.2653120  39.4987960   4.5723770  60.6471700  43.5302280   5.8474940
  60.3499990  42.9247750   5.1682720  61.5971520  43.5679590   5.7364300
  58.8918620  36.6177930   7.4634770  59.4433210  36.7273270   6.6888020
  59.4062130  36.9915530   8.1790000  68.7357310  47.1034150   9.5098040
  68.2587870  47.9106340   9.3170650  68.0519100  46.4512480   9.6624250
  59.7390130  43.2683970  12.4982740  58.8418660  43.4923940  12.7456140
  59.7643000  43.3918910  11.5494140  58.5661350  40.1397290  11.0740110
  58.4269120  41.0120090  11.4427510  57.6842710  39.7970100  10.9288050
  64.8890730  45.0573160   2.3805240  65.3286640  45.7997490   1.9660630
  64.8277620  45.2999730   3.3044200  60.3641700  46.0818990  13.2825260
  60.3357130  46.4861940  12.4153690  60.2006670  45.1529350  13.1196860
  72.3156520  46.8646090  14.5789430  72.7916240  47.3428980  15.2578510
  72.9363680  46.7963580  13.8534930  54.5180000  41.9094840   6.9911020
  54.5960420  42.0443610   6.0466740  55.1321680  41.2010730   7.1839140
  55.7627630  43.6095030   3.4017200  55.3555710  43.7509620   2.5470800
  56.6540640  43.3255190   3.1988410  71.7189770  44.0558940  11.7389440
  71.8452830  43.8170820  10.8206620  71.7611150  43.2243480  12.2111520
  65.5806510  47.7586940  10.3084250  66.0951180  47.6694950  11.1106680
  64.7375590  48.1046640  10.6012160  66.8236970  47.1792550   2.3714740
  67.2793920  46.3981930   2.6853360  67.1629490  47.8899370   2.9155920
  71.5713780  36.1091400  12.7039180  70.9558050  36.6171070  12.1754640
  71.2510200  35.2089730  12.6465120  54.5739520  42.9509010   9.5305480
  54.7370560  42.4814370   8.7124850  55.0391970  42.4432570  10.1954320
  59.3458290  32.0814770   4.5666050  58.9026440  32.8624310   4.2350570
  59.9043280  32.4044660   5.2736990  63.6328100  34.9483290  10.1701370
  63.1707470  35.1566310  10.9821310  63.2306210  34.1342640   9.8672040
  68.6332610  36.1692240  11.2998030  67.7826200  35.8697990  11.6207100
  68.4734400  36.4134250  10.3881850  65.7282320  37.6693990  13.3996820
  66.0535730  36.8357740  13.0599050  66.5162650  38.1922510  13.5475150
  61.3834190  32.6262100   6.4255650  61.6806520  33.5324930   6.3447670
  61.9319750  32.1380880   5.8115220  59.1372510  37.2048340   2.2947300
  58.9113430  36.9885510   3.1993920  58.3565040  37.6376800   1.9493270
  61.5771720  38.1033920  12.9607570  61.4815320  37.1628650  12.8107970
  62.4203700  38.3248990  12.5655640  64.9735140  35.8475250   2.9241230
  65.3664710  36.1647450   2.1109920  65.3351990  34.9687130   3.0385750
  56.7082260  34.5147590  11.1141350  56.3145650  35.3622800  11.3214130
  56.0200660  33.8773960  11.3049990  63.2827310  34.5982560  14.1838090
  62.5925630  34.4054760  14.8184180  64.0259610  34.8817200  14.7162390
  54.0099310  32.4376050   5.1471430  53.7212360  33.0078910   5.8596410
  54.7545070  31.9580500   5.5102660  65.5590280  38.4381000   7.0192010
  64.8271400  38.9467810   7.3682110  65.1614620  37.6210980   6.7180790
  61.9967670  35.1135200   5.4244500  62.0003730  34.6725150   4.5749040
  62.8918790  35.4352530   5.5316320  57.8470050  34.9961690   4.3838710
  57.5070100  35.4736920   5.1405760  57.0847370  34.5426810   4.0239810
  66.0216190  33.8914680   6.4314950  66.0388930  34.3423330   7.2756800
  65.7731770  32.9920320   6.6448390  69.4486940  31.3046860  12.2701330
  69.7732710  30.5736520  12.7959310  69.4843450  30.9860500  11.3682320
  56.1478500  42.3260440  11.6901290  55.7633290  41.6854110  12.2884250
  56.4590690  43.0296560  12.2596020  62.2975640  39.1736980   7.1709910
  62.6645770  38.6995550   7.9171250  62.1080700  40.0478550   7.5118250
  55.1616130  33.9180670   3.3003380  54.8763050  33.5536340   4.1382000
  55.0994990  33.1861130   2.6866520  60.0875010  38.2145620   9.4894120
  59.7832080  39.0937600   9.7144480  61.0421470  38.2745410   9.5251560
  69.3744780  41.4171970   5.8787360  70.0943900  41.9127260   5.4883470
  69.1726600  40.7389860   5.2341230  64.7563580  41.4881030  11.7656360
  64.6900890  40.5676700  11.5113950  64.1268720  41.5856470  12.4801000
  58.6594200  42.0886990   3.7239780  59.1772870  41.2855250   3.6696670
  58.2078220  42.0266130   4.5656610  56.1438740  39.0548360  10.6365480
  55.7853680  39.7202210  11.2238820  55.8493300  38.2231910  11.0078100
  59.3451860  39.5132600  13.5205030  59.0452000  39.6589780  12.6232850
  60.1163100  38.9537890  13.4278420  64.6880310  44.3101600  11.5160160
  64.7024850  43.3782560  11.2979070  63.9805410  44.3961360  12.1549930
  70.8991520  40.9508940  10.8628740  70.1739710  41.5437720  10.6658130
  71.4266980  40.9432480  10.0642110  66.4291110  42.6769110   4.3612590
  66.7814930  42.0797240   3.7013960  65.5453440  42.3513340   4.5320840
  62.5154390  43.4366800   1.7683000  63.2025520  43.9836010   2.1490590
  61.7286810  43.9807530   1.8032610  64.1214210  45.9519170   8.6100660
  64.7656430  46.1578550   9.2874080  64.4843650  45.1907570   8.1571510
  65.3946290  43.9551520   7.3278110  66.0368520  43.2544680   7.4410280
  65.9195640  44.7349960   7.1475000  67.1683910  44.7546420  10.5314170
  67.5040150  45.3413110  11.2092090  66.2484250  44.6239130  10.7611960
  54.7187310  32.5441600  11.3137580  54.0045830  32.7438520  11.9190190
  55.1382350  31.7681170  11.6852380  55.0059900  46.5321860  12.3004110
  55.1151020  45.5916600  12.1599500  54.3540460  46.7976610  11.6517840
  62.9972490  44.8037750  13.7002230  62.6769360  44.0846990  14.2447920
  62.3230850  45.4792820  13.7738290  66.2126090  35.0363910   9.0639030
  66.5806910  34.2159120   9.3918600  65.3524290  35.0965800   9.4794680
  63.1728080  37.6903500   9.2877000  63.6713330  38.1649320   9.9528850
  63.3151030  36.7667020   9.4947030  65.5787580  32.9957460   2.7280260
  65.4555360  33.0143590   1.7789770  66.5272140  33.0436400   2.8478660
  70.3794940  33.9071460  10.1305390  69.8768540  34.6476860  10.4699200
  71.1951600  34.2955460   9.8142180  68.6716950  39.1504640   3.5766750
  67.7307090  39.1654870   3.7514440  68.9861020  38.3640600   4.0227050
  70.6742530  46.3213490   5.2521010  70.7989950  47.1444660   5.7244820
  71.5408090  46.1104220   4.9045160  58.1460060  48.4144700   4.9238140
  58.8822540  47.8660160   5.1946710  58.5300980  49.2800710   4.7844130
  57.1518340  47.5990770  14.1123720  57.9531070  47.9202820  14.5259120
  56.6370160  47.2386350  14.8343630  65.9882970  43.7070640  14.0599130
  65.3821130  43.7302240  13.3194880  65.6837080  42.9753680  14.5966380
  67.4183340  47.4350930  12.6708540  68.3705090  47.3508950  12.6208780
  67.2711560  48.0992640  13.3442330  54.8716150  40.0864230  13.0559770
  55.3755170  39.5071510  13.6276000  54.1323570  40.3704460  13.5936140
  61.9254090  41.4935220  12.5895290  61.1599760  42.0620220  12.5049960
  62.1070050  41.2011430  11.6963520  69.0677440  43.2240550  13.1470310
  69.8086910  43.5616310  12.6437770  68.3050120  43.3932610  12.5940080
  56.9039230  38.2293820  13.9509840  56.9444570  37.9307690  14.8595070
  57.7584730  38.6301430  13.7917360  58.8445040  36.8085920  11.9184330
  58.3141500  36.3176870  11.2907670  59.5133110  37.2370120  11.3842260
  67.7423100  41.2755380  11.6825520  68.1564120  41.4300460  12.5315940
  66.8074100  41.4010600  11.8451300  68.2145270  38.6151540  13.6864670
  68.7966040  37.8603860  13.5985150  68.3907040  39.1458980  12.9096150
  59.3317340  33.7748290  11.9981620  59.2374210  33.1569040  11.2732490
  58.7514730  34.5014580  11.7711530  62.0978780  32.3321530   9.0309010
  61.6496080  32.3545790   8.1854560  61.4643980  31.9340550   9.6279310
  62.5038330  41.2275860   9.6521450  62.9226440  42.0708590   9.4797690
  61.5846960  41.3647900   9.4228230  64.8402230  38.9592040  11.0359290
  64.9598440  38.3633180  11.7754130  65.6996230  38.9961730  10.6160590
  67.1790130  39.5129230   9.6121800  66.6525350  40.0371850   9.0086940
  67.5221470  40.1456620  10.2431530  60.3545750  47.5328870  10.7679180
  59.8166840  48.2574930  10.4487880  60.6079710  47.0559210   9.9776520
  61.6071000  35.5013390  12.2935110  62.1970690  35.1929240  12.9812930
  60.7891240  35.0293140  12.4495010  66.4264430  35.1179200  12.5268130
  65.7379950  34.4560740  12.4618120  67.1470450  34.6717470  12.9716590
  63.2107960  48.7680080  11.0265830  63.1366660  49.6715220  11.3338200
  62.3086800  48.4491980  10.9987900  54.6135250  46.0954670   4.3299450
  54.9438260  45.2275730   4.0978090  55.0426250  46.3013190   5.1604410
  55.1025460  46.9625260   7.0681080  54.6656450  47.1426060   7.9005230
  55.6703140  47.7199880   6.9262800  70.7387640  46.4642260  11.3558390
  70.1389630  46.5234820  10.6122310  70.8681540  45.5247240  11.4855240
  54.9349890  39.4745490   3.4269960  54.2798730  39.2057130   2.7829660
  55.7727840  39.3649970   2.9771940  72.4405520  41.8057660   4.0404230
  72.8114350  41.0224980   3.6340200  73.0807450  42.4946760   3.8621530
  69.4239280  43.1894240   9.4534550  68.6099120  43.6191400   9.7160340
  69.8313480  43.8012650   8.8403600  55.9725820  39.8598060   7.9673300
  56.3398860  39.7725460   8.8469320  55.4036640  39.0964610   7.8680160
  70.7729680  38.3282440  10.9803770  70.5415770  38.0995190  10.0801720
  71.0334230  39.2481990  10.9348660  55.5241820  36.7707150  11.8731720
  54.6297870  36.7373910  12.2125430  56.0639370  36.9693940  12.6382970
  69.2117750  33.5538870  13.7583470  70.0887930  33.5622270  14.1417470
  69.2238590  32.8169710  13.1475820  70.6581020  37.4068410   4.6471490
  71.1818500  36.9131060   4.0161660  71.2440440  37.5418770   5.3919060
  70.8370740  37.4908280   8.1691040  69.8873450  37.4571820   8.2836030
  71.0183750  38.4008390   7.9340810  56.0281530  31.0455480   6.2214940
  56.6757720  30.4952860   5.7810100  56.4483370  31.2998630   7.0430750
  71.5768150  35.3002710   3.1201580  71.4667430  35.1458750   4.0583850
  72.3375740  34.7723650   2.8776990  69.9233870  31.2396840   9.5784580
  70.5606090  31.8530980   9.9443770  70.0708760  31.2757500   8.6333810
  69.4815330  47.9412840   2.9802820  70.0774400  47.6197410   2.3037240
  69.7393480  47.4684660   3.7716090  55.7813530  31.2011150   8.9640260
  55.4328350  31.6574970   9.7298440  55.4501230  30.3068280   9.0462690
  57.3877900  44.3730750  13.1293450  57.3447530  44.0023660  14.0107910
  57.5188910  45.3108320  13.2695270  61.0883930  45.9290340   8.7303170
  60.8475290  46.1964900   7.8433690  62.0286570  46.0996070   8.7854030
  63.2938350  32.3923030  12.4859680  63.2327240  32.9844860  13.2355090
  64.2338730  32.2848990  12.3409940  65.9312910  32.0493090  12.1251970
  66.5453320  32.3672380  11.4633050  66.4762470  31.5641680  12.7447830
  72.3488090  47.9484720   9.5313810  71.8546370  48.3453590   8.8140940
  71.7401380  47.3233930   9.9251090  56.4534170  30.7287350  12.2391030
  57.0017160  30.5475400  11.4757140  56.5189480  29.9381460  12.7747340
  57.2265930  47.3193000  10.2491230  56.6326250  47.1877700  10.9881270
  57.2189770  46.4831140   9.7833330  66.6720950  30.6125230   8.4521260
  65.7980790  30.9460340   8.2494190  66.5631700  30.1398410   9.2773130
  67.5792930  32.8196100   9.8362980  67.2506290  32.0047860   9.4564710
  68.5275230  32.7765910   9.7128670  70.0327540  48.5908140   6.8100550
  69.5730510  49.3423950   6.4358570  69.4040000  47.8714610   6.7515350
  56.8578160  44.6851380   9.1999270  56.1312220  44.0656670   9.1325220
  56.9187310  45.0791990   8.3297350  60.4623260  46.8996380   5.9848680
  60.9788280  46.2883740   5.4596940  61.1120640  47.4025160   6.4759690
  63.2018760  47.7904870   6.8117660  63.4896570  47.5359170   5.9350670
  63.7141980  47.2382230   7.4023230  64.4195770  31.5295070   7.3914170
  63.6367560  32.0040570   7.6710930  64.1258700  30.6249900   7.2827350
  68.9716840  32.2318170   5.4363260  69.4124930  32.1763270   4.5884860
  68.7024430  33.1476180   5.5073440  70.8355410  31.8633410   3.4472080
  70.7743810  30.9194630   3.3003100  71.6147440  31.9713500   3.9925540
  55.1408160  48.0025770   2.4096030  54.9730200  47.3696450   3.1077920
  54.2742670  48.2085170   2.0590220  62.3049990  33.9481820   2.9030200
  61.4924500  33.5738710   2.5626080  62.8091630  33.1926900   3.2051390
  66.8074970  30.6124270   4.1413270  67.4104340  31.1844480   4.6161790
  66.0667960  31.1763710   3.9187170  63.2691120  48.7120970  14.1785860
  64.1958430  48.4765240  14.2221820  63.2541550  49.5392970  13.6971890
  60.4554730  31.3765720  13.9427740  60.1739000  31.8799320  13.1788560
  60.8374430  30.5787470  13.5769870  67.0570190  30.7919300  14.5208210
  66.9435640  31.1113910  15.4159730  67.8739930  31.1931810  14.2245490
  69.8368680  47.9390830  14.0026900  70.6294000  47.4440060  13.7952860
  70.1301830  48.6180970  14.6102510  65.9628340  20.0368280  97.5303890
  65.8822390  19.1222890  97.2595600  65.5492760  20.5335350  96.8243600
  64.0946380  21.8147300  99.4113160  63.3188480  21.3347740  99.7011730
  64.7459310  21.1352950  99.2369320  58.1112210  22.1267110 100.2888920
  57.2797090  21.8715820 100.6885430  58.7193190  22.1977880 101.0246840
  68.1153810  26.2207490  98.1912290  67.6535340  25.4494730  98.5199460
  68.9279360  26.2473560  98.6964740  58.0913470  26.1607200 100.4846940
  58.3941510  25.2704940 100.3057160  58.8357060  26.7177420 100.2569190
  56.5204160  17.0869000  94.0731310  55.6320860  17.4284970  93.9711190
  56.8045350  16.8869320  93.1812140  54.4837170  19.6874650  99.9571010
  55.0553280  18.9196850  99.9574650  54.4838710  19.9863410  99.0477620
  64.3417120  28.5065500  97.8116280  63.7228560  28.9623000  97.2410720
  65.1968900  28.6616960  97.4105980  63.5355370  24.4904490  99.4183320
  63.4663650  23.5494430  99.2572450  64.2975230  24.5805900  99.9905890
  55.7262040  15.0959010 101.7439940  55.5464880  14.1984760 102.0242700
  55.3242120  15.6430880 102.4186890  64.5660540  17.2974870  99.6452250
  64.9425360  16.4246750  99.5325920  64.4680050  17.6333570  98.7542690
  58.6965550  15.6700500  95.1069690  58.8032300  16.5704230  95.4138450
  57.7857910  15.6218470  94.8164340  68.3484660  14.7925310  96.5780590
  69.1694280  14.3021880  96.6206070  68.3818740  15.3822970  97.3312430
  56.3448710  17.5919510 100.3522280  57.0258820  17.8557880 100.9709680
  56.0296760  16.7520380 100.6860290  60.5373280  18.6386870  99.4394870
  61.0451500  19.1367840 100.0799890  61.0686520  17.8622070  99.2634230
  65.2080470  23.3904740  95.2048190  64.5897740  23.8554190  94.6410910
  65.7203720  24.0832220  95.6217700  60.0712230  22.9180610 101.8831790
  59.7381610  23.5449530 102.5252860  60.2478910  23.4442490 101.1033460
  68.5846140  16.7325690  99.3508130  67.8801710  17.0210580  99.9311240
  68.9458300  17.5425800  98.9907690  58.5024710  14.9895390 101.7128740
  58.8441520  15.8337440 101.4182610  57.5640520  15.1379130 101.8294080
  54.5763670  24.0761270  92.5787820  54.1991650  24.5648370  91.8472720
  54.8336740  24.7486550  93.2094350  70.2008920  26.3500820 101.6135610
  69.5172440  27.0199930 101.6052280  70.7403210  26.5481470 100.8480470
  71.6533060  16.1780480  99.7417340  70.7057970  16.2119460  99.8732770
  71.9783050  16.9919430 100.1266700  62.1852600  12.4777660  98.0373330
  62.4927580  11.9224550  97.3208830  61.2553300  12.6122120  97.8546320
  67.7367660  28.1944950 100.3280790  67.7494820  27.7907240  99.4603050
  67.1842880  28.9692240 100.2242220  69.0313080  24.9161170  95.4170960
  68.9209410  23.9735500  95.5420380  69.0281330  25.2776810  96.3033720
  67.1353100  23.0974790 101.6563400  67.5521890  22.8834900 100.8216860
  67.8592920  23.3547580 102.2272020  64.5733360  20.5426490  94.7733450
  63.6462640  20.4763870  95.0021920  64.7258180  21.4806620  94.6588690
  64.5602440  16.8143490  91.7700610  63.6206110  16.9757450  91.8553070
  64.8785700  17.5329170  91.2236600  71.0815200  21.4962010 101.7479640
  70.2533830  21.5655100 101.2729770  71.6765680  22.0816320 101.2795470
  68.6030650  22.1046790  95.2768700  67.9843070  21.7666340  94.6295000
  68.5855100  21.4606550  95.9847890  60.1790000  21.0691230  97.5553180
  59.7747000  20.3568480  97.0599080  60.2653120  20.7244470  98.4441220
  60.6471700  24.7558790  99.7192390  60.3499990  24.1504260  99.0400170
  61.5971520  24.7936100  99.6081750  58.8918620  17.8434440 101.3352220
  59.4433210  17.9529780 100.5605470  59.4062130  18.2172040 102.0507450
  66.7795350  21.3433600  92.2841450  67.2188630  20.5056030  92.1379270
  67.4923770  21.9763000  92.3705590  64.8890730  26.2829670  96.2522690
  65.3286640  27.0254000  95.8378080  64.8277620  26.5256240  97.1761650
  70.3612490  12.5976410  90.5982490  70.0485150  12.6903240  91.4981560
  71.1224960  13.1757440  90.5479920  56.8794630  19.9636210  95.0559830
  56.7592230  20.6898300  94.4441100  56.5695520  19.1939120  94.5787740
  54.5180000  23.1351350 100.8628470  54.5960420  23.2700120  99.9184190
  55.1321680  22.4267240 101.0556590  55.7627630  24.8351540  97.2734650
  55.3555710  24.9766130  96.4188250  56.6540640  24.5511700  97.0705860
  67.5560910  29.2698790  93.6085700  67.3962050  28.9801730  94.5067530
  67.3907620  28.4938920  93.0730930  60.0349290  29.0497320  95.3857320
  59.8591770  28.1332860  95.1725120  59.1805030  29.4084610  95.6255120
  67.2587040  26.7786350  92.1683700  66.5652200  26.7763640  91.5085980
  68.0009900  26.3545670  91.7377870  66.8236970  28.4049060  96.2432190
  67.2793920  27.6238440  96.5570810  67.1629490  29.1155880  96.7873370
  59.3458290  13.3071280  98.4383500  58.9026440  14.0880820  98.1068020
  59.9043280  13.6301170  99.1454440  62.4617110  12.9281980  93.3189330
  61.8371290  12.9241850  94.0442640  62.3747230  12.0612940  92.9225300
  61.3834190  13.8518610 100.2973100  61.6806520  14.7581440 100.2165120
  61.9319750  13.3637390  99.6832670  59.1372510  18.4304850  96.1664750
  58.9113430  18.2142020  97.0711370  58.3565040  18.8633310  95.8210720
  66.3670270  18.4368220  94.7655400  65.7679160  19.1604020  94.5819020
  66.9149880  18.3745000  93.9831850  64.9735140  17.0731760  96.7958680
  65.3664710  17.3903960  95.9827370  65.3351990  16.1943640  96.9103200
  54.0099310  13.6632560  99.0188880  53.7212360  14.2335420  99.7313860
  54.7545070  13.1837010  99.3820110  54.1969540  17.6052680  90.2291600
  54.1144210  18.5483440  90.3706590  53.8452600  17.4627590  89.3503950
  65.5590280  19.6637510 100.8909460  64.8271400  20.1724320 101.2399560
  65.1614620  18.8467490 100.5898240  61.9967670  16.3391710  99.2961950
  62.0003730  15.8981660  98.4466490  62.8918790  16.6609040  99.4033770
  57.8470050  16.2218200  98.2556160  57.5070100  16.6993430  99.0123210
  57.0847370  15.7683320  97.8957260  62.0587820  17.3403790  92.2868710
  62.1800640  17.2990270  93.2354530  61.6736330  18.2027940  92.1315440
  66.0216190  15.1171190 100.3032400  66.0388930  15.5679840 101.1474250
  65.7731770  14.2176830 100.5165840  61.0709320  19.6504930  91.6852010
  60.5026220  19.2023180  91.0587920  61.7798320  20.0097710  91.1517160
  62.2975640  20.3993490 101.0427360  62.6645770  19.9252060 101.7888700
  62.1080700  21.2735060 101.3835700  55.1616130  15.1437180  97.1720830
  54.8763050  14.7792850  98.0099450  55.0994990  14.4117640  96.5583970
  58.6156800  23.6463120  93.9578420  57.8419060  23.1060740  93.7977140
  59.3451430  23.1269730  93.6196180  69.3744780  22.6428480  99.7504810
  70.0943900  23.1383770  99.3600920  69.1726600  21.9646370  99.1058680
  64.8354720  14.0366440  93.8934200  64.0219330  13.5379610  93.8179510
  64.6416670  14.8764690  93.4770550  67.5503110  18.4086090  92.1896360
  68.4382730  18.7203320  92.0147700  67.5208200  17.5358340  91.7976940
  58.6594200  23.3143500  97.5957230  59.1772870  22.5111760  97.5414120
  58.2078220  23.2522640  98.4374060  63.5463700  24.5809780  92.8684530
  63.8879400  25.3252010  92.3727850  62.7176410  24.8940900  93.2309360
  69.8217380  19.7197930  91.6576220  69.7381100  20.1512150  90.8072660
  70.5411570  20.1796280  92.0903040  70.8504630  26.5740190  94.3858350
  70.2080790  25.9195810  94.6602070  70.4635290  26.9795280  93.6099020
  66.4291110  23.9025620  98.2330040  66.7814930  23.3053750  97.5731410
  65.5453440  23.5769850  98.4038290  62.5154390  24.6623310  95.6400450
  63.2025520  25.2092520  96.0208040  61.7286810  25.2064040  95.6750060
  54.6546790  20.2796130  91.1317530  55.5241640  20.5620930  91.4153450
  54.1637110  21.0932000  91.0166340  61.8181600  21.6669340  95.2525810
  62.2744380  22.4774590  95.4786000  61.4669810  21.3492480  96.0844300
  57.7193380  12.0106990  95.7248330  57.5908010  12.0024890  96.6733250
  56.8955400  12.3490080  95.3739340  65.3946290  25.1808030 101.1995560
  66.0368520  24.4801190 101.3127730  65.9195640  25.9606470 101.0192450
  69.2402010  25.4656650  90.9234700  69.0139590  24.7487090  91.5159340
  68.8498210  25.2169090  90.0856450  55.0218040  29.4923510  91.6979160
  55.3815680  30.0912850  91.0436430  54.8810380  30.0383400  92.4714190
  68.8218260  23.3828590  92.5848860  68.5339960  23.8441280  93.3726740
  69.6170430  22.9226360  92.8533080  61.0386660  26.8754710  92.5152830
  61.0296760  27.6084400  91.8997340  60.1185020  26.6286290  92.6079790
  56.6393300  22.0969600  93.2599590  56.0321250  22.8368500  93.2694890
  57.1142650  22.1868960  92.4337790  69.5788120  15.2177360  93.7444040
  68.9501280  15.3223030  93.0302270  69.0840040  15.4374140  94.5337920
  64.0246260  26.9382950  91.1778020  64.1258240  26.7346940  90.2480000
  63.1248000  26.6841230  91.3825800  61.5472150  17.4963310  95.1601920
  60.8388300  17.9649650  95.6015530  61.8316630  16.8385320  95.7947110
  65.5787580  14.2213970  96.5997710  65.4555360  14.2400100  95.6507220
  66.5272140  14.2692910  96.7196110  62.6664370  29.4569270  95.8725690
  62.9205870  29.4190660  94.9505060  61.7176850  29.3302600  95.8653940
  59.7507170  15.8048390  92.5352630  60.5997700  16.2418540  92.4692820
  59.3838440  16.1168650  93.3624690  68.6716950  20.3761150  97.4484200
  67.7307090  20.3911380  97.6231890  68.9861020  19.5897110  97.8944500
  58.6498590  22.0580750  91.0088160  59.4161860  21.9462110  91.5713590
  58.7273280  21.3618720  90.3564930  57.3445350  19.4905820  91.6921050
  57.4248940  18.5433330  91.8038450  58.2365100  19.8212700  91.7981710
  70.6742530  27.5470000  99.1238460  70.7989950  28.3701170  99.5962270
  71.5408090  27.3360730  98.7762610  58.1460060  29.6401210  98.7955590
  58.8822540  29.0916670  99.0664160  58.5300980  30.5057220  98.6561580
  55.0305540  25.7074780  94.6697100  54.1045320  25.9495920  94.6602510
  55.4961970  26.5349040  94.5481850  61.2562370  28.8131520  90.6181160
  62.0490980  29.1020350  90.1662950  60.7366720  28.3823690  89.9393640
  70.3092540  28.0401650  92.0417900  70.0234050  27.6266790  91.2272080
  70.1112090  28.9689360  91.9218420  61.7739770  24.0334930  90.4823510
  61.6690410  23.4187280  91.2084890  61.6063990  23.5100820  89.6986520
  65.0142500  23.0954960  91.0865500  64.4652600  23.5424260  91.7308240
  65.6361760  22.5904210  91.6103170  60.6817620  22.0545880  92.9830800
  61.1034040  21.8885750  93.8262190  60.8068460  21.2446110  92.4885940
  63.1945260  21.0783490  90.2307900  63.7150920  20.3632510  89.8649050
  63.8413660  21.7169360  90.5308410  59.5776520  18.1279110  89.9288960
  59.3765580  17.2646470  90.2902300  59.4068570  18.0412470  88.9910560
  67.0564830  12.9387340  92.4575840  67.3367120  12.0955240  92.8135260
  66.2830560  13.1710450  92.9714590  58.3759320  15.2279730  89.9166840
  58.6785220  15.2347160  89.0085990  59.1153910  14.8777590  90.4134500
  61.5944250  14.1714350  90.9023040  61.2466250  13.4938340  90.3225490
  61.7957020  13.7103860  91.7166430  63.7593290  29.1595100  92.5209640
  64.6544080  29.4980070  92.5428400  63.7910920  28.4374510  91.8933920
  57.3989450  24.5322150  90.7496640  57.8364320  25.0751820  91.4054220
  57.8837180  23.7069100  90.7592980  54.6135250  27.3211180  98.2016900
  54.9438260  26.4532240  97.9695540  55.0426250  27.5269700  99.0321860
  59.2097170  25.6520190  95.8618870  58.9092710  25.5285160  96.7622780
  59.1034660  24.7928780  95.4534600  55.1025460  28.1881770 100.9398530
  54.6656450  28.3682570 101.7722680  55.6703140  28.9456390 100.7980250
  71.9789090  25.4316590  90.5645550  71.1482050  25.4993240  91.0352780
  72.1560920  26.3220710  90.2612410  71.4345550  22.1764070  93.0679750
  72.1964460  22.7460720  93.1739440  71.4499920  21.6091270  93.8388060
  54.9349890  20.7002000  97.2987410  54.2798730  20.4313640  96.6547110
  55.7727840  20.5906480  96.8489390  72.4405520  23.0314170  97.9121680
  72.8114350  22.2481490  97.5057650  73.0807450  23.7203270  97.7338980
  71.4864720  22.4698440  90.2252270  71.7613560  23.3777320  90.0971490
  71.2975460  22.4060970  91.1614260  67.8840330  15.4943290  91.5205900
  68.3025210  15.3074270  90.6802560  67.5776390  14.6422340  91.8308830
  71.3830060  20.4067430  95.2181700  71.0073660  19.6395360  94.7862990
  70.6533180  20.7890130  95.7056630  55.9725820  21.0854570 101.8390750
  56.3398860  20.9981970 102.7186770  55.4036640  20.3221120 101.7397610
  54.1487970  17.9100930  93.2412740  53.2452050  18.1731130  93.0664400
  54.6328590  18.1812100  92.4612700  70.6581020  18.6324920  98.5188940
  71.1818500  18.1387570  97.8879110  71.2440440  18.7675280  99.2636510
  70.8370740  18.7164790 102.0408490  69.8873450  18.6828330 102.1553480
  71.0183750  19.6264900 101.8058260  56.6915180  16.9666470  91.1507120
  57.4006880  16.5449690  90.6654400  55.9755120  17.0341700  90.5190470
  56.3389340  13.0205800  90.1909770  57.0617470  13.5614740  90.5090990
  56.6113860  12.7469220  89.3151310  70.1480990  17.8898270  94.4581350
  70.6440110  17.6569140  95.2430230  69.9497060  17.0510110  94.0418990
  56.0281530  12.2711990 100.0932390  56.6757720  11.7209370  99.6527550
  56.4483370  12.5255140 100.9148200  71.5768150  16.5259220  96.9919030
  71.4667430  16.3715260  97.9301300  72.3375740  15.9980160  96.7494440
  72.4658420  14.3567140  90.2325170  73.3907730  14.2248320  90.0243460
  72.4434210  14.4359960  91.1861620  72.5396910  15.1277800  92.8581880
  71.7448410  15.0622920  93.3874790  72.7440190  16.0628440  92.8467230
  69.4815330  29.1669350  96.8520270  70.0774400  28.8453920  96.1754690
  69.7393480  28.6941170  97.6433540  61.0883930  27.1546850 102.6020620
  60.8475290  27.4221410 101.7151140  62.0286570  27.3252580 102.6571480
  70.0327540  29.8164650 100.6818000  69.5730510  30.5680460 100.3076020
  69.4040000  29.0971120 100.6232800  60.4623260  28.1252890  99.8566130
  60.9788280  27.5140250  99.3314390  61.1120640  28.6281670 100.3477140
  63.2018760  29.0161380 100.6835110  63.4896570  28.7615680  99.8068120
  63.7141980  28.4638740 101.2740680  64.4195770  12.7551580 101.2631620
  63.6367560  13.2297080 101.5428380  64.1258700  11.8506410 101.1544800
  68.9716840  13.4574680  99.3080710  69.4124930  13.4019780  98.4602310
  68.7024430  14.3732690  99.3790890  70.8355410  13.0889920  97.3189530
  70.7743810  12.1451140  97.1720550  71.6147440  13.1970010  97.8642990
  55.1408160  29.2282280  96.2813480  54.9730200  28.5952960  96.9795370
  54.2742670  29.4341680  95.9307670  55.7636180  13.0599060  93.7845340
  56.5215540  13.1727940  93.2109370  55.3013350  13.8968260  93.7388770
  62.3049990  15.1738330  96.7747650  61.4924500  14.7995220  96.4343530
  62.8091630  14.4183410  97.0768840  66.8074970  11.8380780  98.0130720
  67.4104340  12.4100990  98.4879240  66.0667960  12.4020220  97.7904620
  69.9509570  12.2402340  93.2871000  70.1460200  13.1385790  93.5538430
  69.1639440  12.0089420  93.7803950  56.7470860  27.9215510  93.7263620
  56.2218480  28.3023540  93.0225580  56.6715440  28.5466280  94.4473330
  58.1361330  13.5863110  92.3247310  58.6654090  12.7992910  92.1955260
  58.7689650  14.2654300  92.5582840  60.3299170  13.3238250  95.3792700
  59.7001910  12.6225560  95.5462830  59.7904310  14.0842380  95.1625860
  71.5036180  29.4803050  95.0477560  71.6788370  28.7940790  94.4038480
  70.8057750  30.0050100  94.6554230  59.3463830  29.8697890  92.6012870
  60.0782650  29.5857170  92.0536760  59.6057500  29.6311170  93.4912250
  58.5078620  25.9862620  92.6059200  57.8787500  26.4547720  93.1545030
  58.6226450  25.1411840  93.0405390  65.9628340  20.0368280  78.7560400
  65.8822390  19.1222890  78.4852110  65.5492760  20.5335350  78.0500110
  64.0946380  21.8147300  80.6369670  63.3188480  21.3347740  80.9268240
  64.7459310  21.1352950  80.4625830  58.1112210  22.1267110  81.5145430
  57.2797090  21.8715820  81.9141940  58.7193190  22.1977880  82.2503350
  68.1153810  26.2207490  79.4168800  67.6535340  25.4494730  79.7455970
  68.9279360  26.2473560  79.9221250  58.0913470  26.1607200  81.7103450
  58.3941510  25.2704940  81.5313670  58.8357060  26.7177420  81.4825700
  56.5204160  17.0869000  75.2987820  55.6320860  17.4284970  75.1967700
  56.8045350  16.8869320  74.4068650  54.4837170  19.6874650  81.1827520
  55.0553280  18.9196850  81.1831160  54.4838710  19.9863410  80.2734130
  64.3417120  28.5065500  79.0372790  63.7228560  28.9623000  78.4667230
  65.1968900  28.6616960  78.6362490  63.5355370  24.4904490  80.6439830
  63.4663650  23.5494430  80.4828960  64.2975230  24.5805900  81.2162400
  55.7262040  15.0959010  82.9696450  55.5464880  14.1984760  83.2499210
  55.3242120  15.6430880  83.6443400  64.5660540  17.2974870  80.8708760
  64.9425360  16.4246750  80.7582430  64.4680050  17.6333570  79.9799200
  58.6965550  15.6700500  76.3326200  58.8032300  16.5704230  76.6394960
  57.7857910  15.6218470  76.0420850  68.3484660  14.7925310  77.8037100
  69.1694280  14.3021880  77.8462580  68.3818740  15.3822970  78.5568940
  56.3448710  17.5919510  81.5778790  57.0258820  17.8557880  82.1966190
  56.0296760  16.7520380  81.9116800  60.5373280  18.6386870  80.6651380
  61.0451500  19.1367840  81.3056400  61.0686520  17.8622070  80.4890740
  72.6384210  16.8092060  84.3680730  71.9336380  17.1973770  83.8495840
  72.9042130  17.5042350  84.9701660  58.8209380  13.2785430  84.9314800
  58.8227820  13.7957820  84.1260700  57.9913690  12.8015610  84.9084730
  65.2080470  23.3904740  76.4304700  64.5897740  23.8554190  75.8667420
  65.7203720  24.0832220  76.8474210  60.0712230  22.9180610  83.1088300
  59.7381610  23.5449530  83.7509370  60.2478910  23.4442490  82.3289970
  68.5846140  16.7325690  80.5764640  67.8801710  17.0210580  81.1567750
  68.9458300  17.5425800  80.2164200  58.5024710  14.9895390  82.9385250
  58.8441520  15.8337440  82.6439120  57.5640520  15.1379130  83.0550590
  59.2831330  24.8861410  84.9237480  59.9005330  25.5612490  84.6421930
  58.4224450  25.2949390  84.8324980  54.5763670  24.0761270  73.8044330
  54.1991650  24.5648370  73.0729230  54.8336740  24.7486550  74.4350860
  70.2008920  26.3500820  82.8392120  69.5172440  27.0199930  82.8308790
  70.7403210  26.5481470  82.0736980  62.1852600  12.4777660  79.2629840
  62.4927580  11.9224550  78.5465340  61.2553300  12.6122120  79.0802830
  67.7367660  28.1944950  81.5537300  67.7494820  27.7907240  80.6859560
  67.1842880  28.9692240  81.4498730  69.0313080  24.9161170  76.6427470
  68.9209410  23.9735500  76.7676890  69.0281330  25.2776810  77.5290230
  67.1353100  23.0974790  82.8819910  67.5521890  22.8834900  82.0473370
  67.8592920  23.3547580  83.4528530  64.5733360  20.5426490  75.9989960
  63.6462640  20.4763870  76.2278430  64.7258180  21.4806620  75.8845200
  64.5602440  16.8143490  72.9957120  63.6206110  16.9757450  73.0809580
  64.8785700  17.5329170  72.4493110  71.0815200  21.4962010  82.9736150
  70.2533830  21.5655100  82.4986280  71.6765680  22.0816320  82.5051980
  68.6030650  22.1046790  76.5025210  67.9843070  21.7666340  75.8551510
  68.5855100  21.4606550  77.2104400  68.0457210  18.2831330  83.9191020
  67.6328390  19.1085040  84.1731010  67.3133160  17.6976370  83.7267380
  60.1790000  21.0691230  78.7809690  59.7747000  20.3568480  78.2855590
  60.2653120  20.7244470  79.6697730  60.6471700  24.7558790  80.9448900
  60.3499990  24.1504260  80.2656680  61.5971520  24.7936100  80.8338260
  58.8918620  17.8434440  82.5608730  59.4433210  17.9529780  81.7861980
  59.4062130  18.2172040  83.2763960  68.7357310  28.3290660  84.6072000
  68.2587870  29.1362850  84.4144610  68.0519100  27.6768990  84.7598210
  59.7390130  24.4940480  87.5956700  58.8418660  24.7180450  87.8430100
  59.7643000  24.6175420  86.6468100  58.5661350  21.3653800  86.1714070
  58.4269120  22.2376600  86.5401470  57.6842710  21.0226610  86.0262010
  64.8890730  26.2829670  77.4779200  65.3286640  27.0254000  77.0634590
  64.8277620  26.5256240  78.4018160  60.3641700  27.3075500  88.3799220
  60.3357130  27.7118450  87.5127650  60.2006670  26.3785860  88.2170820
  70.3612490  12.5976410  71.8239000  70.0485150  12.6903240  72.7238070
  71.1224960  13.1757440  71.7736430  56.8794630  19.9636210  76.2816340
  56.7592230  20.6898300  75.6697610  56.5695520  19.1939120  75.8044250
  72.3156520  28.0902600  89.6763390  72.7916240  28.5685490  90.3552470
  72.9363680  28.0220090  88.9508890  54.5180000  23.1351350  82.0884980
  54.5960420  23.2700120  81.1440700  55.1321680  22.4267240  82.2813100
  55.7627630  24.8351540  78.4991160  55.3555710  24.9766130  77.6444760
  56.6540640  24.5511700  78.2962370  71.7189770  25.2815450  86.8363400
  71.8452830  25.0427330  85.9180580  71.7611150  24.4499990  87.3085480
  65.5806510  28.9843450  85.4058210  66.0951180  28.8951460  86.2080640
  64.7375590  29.3303150  85.6986120  67.5560910  29.2698790  74.8342210
  67.3962050  28.9801730  75.7324040  67.3907620  28.4938920  74.2987440
  60.0349290  29.0497320  76.6113830  59.8591770  28.1332860  76.3981630
  59.1805030  29.4084610  76.8511630  66.8236970  28.4049060  77.4688700
  67.2793920  27.6238440  77.7827320  67.1629490  29.1155880  78.0129880
  71.5713780  17.3347910  87.8013140  70.9558050  17.8427580  87.2728600
  71.2510200  16.4346240  87.7439080  54.5739520  24.1765520  84.6279440
  54.7370560  23.7070880  83.8098810  55.0391970  23.6689080  85.2928280
  59.3458290  13.3071280  79.6640010  58.9026440  14.0880820  79.3324530
  59.9043280  13.6301170  80.3710950  63.6328100  16.1739800  85.2675330
  63.1707470  16.3822820  86.0795270  63.2306210  15.3599150  84.9646000
  68.6332610  17.3948750  86.3971990  67.7826200  17.0954500  86.7181060
  68.4734400  17.6390760  85.4855810  65.7282320  18.8950500  88.4970780
  66.0535730  18.0614250  88.1573010  66.5162650  19.4179020  88.6449110
  62.4617110  12.9281980  74.5445840  61.8371290  12.9241850  75.2699150
  62.3747230  12.0612940  74.1481810  61.3834190  13.8518610  81.5229610
  61.6806520  14.7581440  81.4421630  61.9319750  13.3637390  80.9089180
  59.1372510  18.4304850  77.3921260  58.9113430  18.2142020  78.2967880
  58.3565040  18.8633310  77.0467230  66.3670270  18.4368220  75.9911910
  65.7679160  19.1604020  75.8075530  66.9149880  18.3745000  75.2088360
  61.5771720  19.3290430  88.0581530  61.4815320  18.3885160  87.9081930
  62.4203700  19.5505500  87.6629600  64.9735140  17.0731760  78.0215190
  65.3664710  17.3903960  77.2083880  65.3351990  16.1943640  78.1359710
  56.7082260  15.7404100  86.2115310  56.3145650  16.5879310  86.4188090
  56.0200660  15.1030470  86.4023950  63.2827310  15.8239070  89.2812050
  62.5925630  15.6311270  89.9158140  64.0259610  16.1073710  89.8136350
  54.0099310  13.6632560  80.2445390  53.7212360  14.2335420  80.9570370
  54.7545070  13.1837010  80.6076620  54.1969540  17.6052680  71.4548110
  54.1144210  18.5483440  71.5963100  53.8452600  17.4627590  70.5760460
  65.5590280  19.6637510  82.1165970  64.8271400  20.1724320  82.4656070
  65.1614620  18.8467490  81.8154750  61.9967670  16.3391710  80.5218460
  62.0003730  15.8981660  79.6723000  62.8918790  16.6609040  80.6290280
  57.8470050  16.2218200  79.4812670  57.5070100  16.6993430  80.2379720
  57.0847370  15.7683320  79.1213770  62.0587820  17.3403790  73.5125220
  62.1800640  17.2990270  74.4611040  61.6736330  18.2027940  73.3571950
  66.0216190  15.1171190  81.5288910  66.0388930  15.5679840  82.3730760
  65.7731770  14.2176830  81.7422350  61.0709320  19.6504930  72.9108520
  60.5026220  19.2023180  72.2844430  61.7798320  20.0097710  72.3773670
  69.4486940  12.5303370  87.3675290  69.7732710  11.7993030  87.8933270
  69.4843450  12.2117010  86.4656280  56.1478500  23.5516950  86.7875250
  55.7633290  22.9110620  87.3858210  56.4590690  24.2553070  87.3569980
  62.2975640  20.3993490  82.2683870  62.6645770  19.9252060  83.0145210
  62.1080700  21.2735060  82.6092210  55.1616130  15.1437180  78.3977340
  54.8763050  14.7792850  79.2355960  55.0994990  14.4117640  77.7840480
  60.0875010  19.4402130  84.5868080  59.7832080  20.3194110  84.8118440
  61.0421470  19.5001920  84.6225520  58.6156800  23.6463120  75.1834930
  57.8419060  23.1060740  75.0233650  59.3451430  23.1269730  74.8452690
  69.3744780  22.6428480  80.9761320  70.0943900  23.1383770  80.5857430
  69.1726600  21.9646370  80.3315190  64.8354720  14.0366440  75.1190710
  64.0219330  13.5379610  75.0436020  64.6416670  14.8764690  74.7027060
  64.7563580  22.7137540  86.8630320  64.6900890  21.7933210  86.6087910
  64.1268720  22.8112980  87.5774960  67.5503110  18.4086090  73.4152870
  68.4382730  18.7203320  73.2404210  67.5208200  17.5358340  73.0233450
  58.6594200  23.3143500  78.8213740  59.1772870  22.5111760  78.7670630
  58.2078220  23.2522640  79.6630570  63.5463700  24.5809780  74.0941040
  63.8879400  25.3252010  73.5984360  62.7176410  24.8940900  74.4565870
  56.1438740  20.2804870  85.7339440  55.7853680  20.9458720  86.3212780
  55.8493300  19.4488420  86.1052060  59.3451860  20.7389110  88.6178990
  59.0452000  20.8846290  87.7206810  60.1163100  20.1794400  88.5252380
  64.6880310  25.5358110  86.6134120  64.7024850  24.6039070  86.3953030
  63.9805410  25.6217870  87.2523890  69.8217380  19.7197930  72.8832730
  69.7381100  20.1512150  72.0329170  70.5411570  20.1796280  73.3159550
  70.8991520  22.1765450  85.9602700  70.1739710  22.7694230  85.7632090
  71.4266980  22.1688990  85.1616070  70.8504630  26.5740190  75.6114860
  70.2080790  25.9195810  75.8858580  70.4635290  26.9795280  74.8355530
  66.4291110  23.9025620  79.4586550  66.7814930  23.3053750  78.7987920
  65.5453440  23.5769850  79.6294800  62.5154390  24.6623310  76.8656960
  63.2025520  25.2092520  77.2464550  61.7286810  25.2064040  76.9006570
  54.6546790  20.2796130  72.3574040  55.5241640  20.5620930  72.6409960
  54.1637110  21.0932000  72.2422850  61.8181600  21.6669340  76.4782320
  62.2744380  22.4774590  76.7042510  61.4669810  21.3492480  77.3100810
  64.1214210  27.1775680  83.7074620  64.7656430  27.3835060  84.3848040
  64.4843650  26.4164080  83.2545470  57.7193380  12.0106990  76.9504840
  57.5908010  12.0024890  77.8989760  56.8955400  12.3490080  76.5995850
  65.3946290  25.1808030  82.4252070  66.0368520  24.4801190  82.5384240
  65.9195640  25.9606470  82.2448960  67.1683910  25.9802930  85.6288130
  67.5040150  26.5669620  86.3066050  66.2484250  25.8495640  85.8585920
  55.0218040  29.4923510  72.9235670  55.3815680  30.0912850  72.2692940
  54.8810380  30.0383400  73.6970700  54.7187310  13.7698110  86.4111540
  54.0045830  13.9695030  87.0164150  55.1382350  12.9937680  86.7826340
  55.0059900  27.7578370  87.3978070  55.1151020  26.8173110  87.2573460
  54.3540460  28.0233120  86.7491800  62.9972490  26.0294260  88.7976190
  62.6769360  25.3103500  89.3421880  62.3230850  26.7049330  88.8712250
  61.0386660  26.8754710  73.7409340  61.0296760  27.6084400  73.1253850
  60.1185020  26.6286290  73.8336300  56.6393300  22.0969600  74.4856100
  56.0321250  22.8368500  74.4951400  57.1142650  22.1868960  73.6594300
  66.2126090  16.2620420  84.1612990  66.5806910  15.4415630  84.4892560
  65.3524290  16.3222310  84.5768640  69.5788120  15.2177360  74.9700550
  68.9501280  15.3223030  74.2558780  69.0840040  15.4374140  75.7594430
  61.5472150  17.4963310  76.3858430  60.8388300  17.9649650  76.8272040
  61.8316630  16.8385320  77.0203620  63.1728080  18.9160010  84.3850960
  63.6713330  19.3905830  85.0502810  63.3151030  17.9923530  84.5920990
  65.5787580  14.2213970  77.8254220  65.4555360  14.2400100  76.8763730
  66.5272140  14.2692910  77.9452620  62.6664370  29.4569270  77.0982200
  62.9205870  29.4190660  76.1761570  61.7176850  29.3302600  77.0910450
  59.7507170  15.8048390  73.7609140  60.5997700  16.2418540  73.6949330
  59.3838440  16.1168650  74.5881200  70.3794940  15.1327970  85.2279350
  69.8768540  15.8733370  85.5673160  71.1951600  15.5211970  84.9116140
  58.6498590  22.0580750  72.2344670  59.4161860  21.9462110  72.7970100
  58.7273280  21.3618720  71.5821440  57.3445350  19.4905820  72.9177560
  57.4248940  18.5433330  73.0294960  58.2365100  19.8212700  73.0238220
  70.6742530  27.5470000  80.3494970  70.7989950  28.3701170  80.8218780
  71.5408090  27.3360730  80.0019120  58.1460060  29.6401210  80.0212100
  58.8822540  29.0916670  80.2920670  58.5300980  30.5057220  79.8818090
  55.0305540  25.7074780  75.8953610  54.1045320  25.9495920  75.8859020
  55.4961970  26.5349040  75.7738360  57.1518340  28.8247280  89.2097680
  57.9531070  29.1459330  89.6233080  56.6370160  28.4642860  89.9317590
  65.9882970  24.9327150  89.1573090  65.3821130  24.9558750  88.4168840
  65.6837080  24.2010190  89.6940340  67.4183340  28.6607440  87.7682500
  68.3705090  28.5765460  87.7182740  67.2711560  29.3249150  88.4416290
  70.3092540  28.0401650  73.2674410  70.0234050  27.6266790  72.4528590
  70.1112090  28.9689360  73.1474930  54.8716150  21.3120740  88.1533730
  55.3755170  20.7328020  88.7249960  54.1323570  21.5960970  88.6910100
  61.7739770  24.0334930  71.7080020  61.6690410  23.4187280  72.4341400
  61.6063990  23.5100820  70.9243030  61.9254090  22.7191730  87.6869250
  61.1599760  23.2876730  87.6023920  62.1070050  22.4267940  86.7937480
  69.0677440  24.4497060  88.2444270  69.8086910  24.7872820  87.7411730
  68.3050120  24.6189120  87.6914040  56.9039230  19.4550330  89.0483800
  56.9444570  19.1564200  89.9569030  57.7584730  19.8557940  88.8891320
  60.6817620  22.0545880  74.2087310  61.1034040  21.8885750  75.0518700
  60.8068460  21.2446110  73.7142450  58.8445040  18.0342430  87.0158290
  58.3141500  17.5433380  86.3881630  59.5133110  18.4626630  86.4816220
  67.7423100  22.5011890  86.7799480  68.1564120  22.6556970  87.6289900
  66.8074100  22.6267110  86.9425260  68.2145270  19.8408050  88.7838630
  68.7966040  19.0860370  88.6959110  68.3907040  20.3715490  88.0070110
  59.3317340  15.0004800  87.0955580  59.2374210  14.3825550  86.3706450
  58.7514730  15.7271090  86.8685490  62.0978780  13.5578040  84.1282970
  61.6496080  13.5802300  83.2828520  61.4643980  13.1597060  84.7253270
  62.5038330  22.4532370  84.7495410  62.9226440  23.2965100  84.5771650
  61.5846960  22.5904410  84.5202190  64.8402230  20.1848550  86.1333250
  64.9598440  19.5889690  86.8728090  65.6996230  20.2218240  85.7134550
  67.1790130  20.7385740  84.7095760  66.6525350  21.2628360  84.1060900
  67.5221470  21.3713130  85.3405490  59.5776520  18.1279110  71.1545470
  59.3765580  17.2646470  71.5158810  59.4068570  18.0412470  70.2167070
  60.3545750  28.7585380  85.8653140  59.8166840  29.4831440  85.5461840
  60.6079710  28.2815720  85.0750480  61.6071000  16.7269900  87.3909070
  62.1970690  16.4185750  88.0786890  60.7891240  16.2549650  87.5468970
  66.4264430  16.3435710  87.6242090  65.7379950  15.6817250  87.5592080
  67.1470450  15.8973980  88.0690550  67.0564830  12.9387340  73.6832350
  67.3367120  12.0955240  74.0391770  66.2830560  13.1710450  74.1971100
  58.3759320  15.2279730  71.1423350  58.6785220  15.2347160  70.2342500
  59.1153910  14.8777590  71.6391010  63.2107960  29.9936590  86.1239790
  63.1366660  30.8971730  86.4312160  62.3086800  29.6748490  86.0961860
  61.5944250  14.1714350  72.1279550  61.2466250  13.4938340  71.5482000
  61.7957020  13.7103860  72.9422940  57.3989450  24.5322150  71.9753150
  57.8364320  25.0751820  72.6310730  57.8837180  23.7069100  71.9849490
  54.6135250  27.3211180  79.4273410  54.9438260  26.4532240  79.1952050
  55.0426250  27.5269700  80.2578370  59.2097170  25.6520190  77.0875380
  58.9092710  25.5285160  77.9879290  59.1034660  24.7928780  76.6791110
  55.1025460  28.1881770  82.1655040  54.6656450  28.3682570  82.9979190
  55.6703140  28.9456390  82.0236760  70.7387640  27.6898770  86.4532350
  70.1389630  27.7491330  85.7096270  70.8681540  26.7503750  86.5829200
  71.9789090  25.4316590  71.7902060  71.1482050  25.4993240  72.2609290
  72.1560920  26.3220710  71.4868920  71.4345550  22.1764070  74.2936260
  72.1964460  22.7460720  74.3995950  71.4499920  21.6091270  75.0644570
  54.9349890  20.7002000  78.5243920  54.2798730  20.4313640  77.8803620
  55.7727840  20.5906480  78.0745900  69.4239280  24.4150750  84.5508510
  68.6099120  24.8447910  84.8134300  69.8313480  25.0269160  83.9377560
  71.4864720  22.4698440  71.4508780  71.7613560  23.3777320  71.3228000
  71.2975460  22.4060970  72.3870770  67.8840330  15.4943290  72.7462410
  68.3025210  15.3074270  71.9059070  67.5776390  14.6422340  73.0565340
  55.9725820  21.0854570  83.0647260  56.3398860  20.9981970  83.9443280
  55.4036640  20.3221120  82.9654120  70.7729680  19.5538950  86.0777730
  70.5415770  19.3251700  85.1775680  71.0334230  20.4738500  86.0322620
  55.5241820  17.9963660  86.9705680  54.6297870  17.9630420  87.3099390
  56.0639370  18.1950450  87.7356930  69.2117750  14.7795380  88.8557430
  70.0887930  14.7878780  89.2391430  69.2238590  14.0426220  88.2449780
  54.1487970  17.9100930  74.4669250  53.2452050  18.1731130  74.2920910
  54.6328590  18.1812100  73.6869210  70.8370740  18.7164790  83.2665000
  69.8873450  18.6828330  83.3809990  71.0183750  19.6264900  83.0314770
  56.6915180  16.9666470  72.3763630  57.4006880  16.5449690  71.8910910
  55.9755120  17.0341700  71.7446980  56.3389340  13.0205800  71.4166280
  57.0617470  13.5614740  71.7347500  56.6113860  12.7469220  70.5407820
  56.0281530  12.2711990  81.3188900  56.6757720  11.7209370  80.8784060
  56.4483370  12.5255140  82.1404710  69.9233870  12.4653350  84.6758540
  70.5606090  13.0787490  85.0417730  70.0708760  12.5014010  83.7307770
  72.4658420  14.3567140  71.4581680  73.3907730  14.2248320  71.2499970
  72.4434210  14.4359960  72.4118130  72.5396910  15.1277800  74.0838390
  71.7448410  15.0622920  74.6131300  72.7440190  16.0628440  74.0723740
  69.4815330  29.1669350  78.0776780  70.0774400  28.8453920  77.4011200
  69.7393480  28.6941170  78.8690050  55.7813530  12.4267660  84.0614220
  55.4328350  12.8831480  84.8272400  55.4501230  11.5324790  84.1436650
  57.3877900  25.5987260  88.2267410  57.3447530  25.2280170  89.1081870
  57.5188910  26.5364830  88.3669230  61.0883930  27.1546850  83.8277130
  60.8475290  27.4221410  82.9407650  62.0286570  27.3252580  83.8827990
  63.2938350  13.6179540  87.5833640  63.2327240  14.2101370  88.3329050
  64.2338730  13.5105500  87.4383900  65.9312910  13.2749600  87.2225930
  66.5453320  13.5928890  86.5607010  66.4762470  12.7898190  87.8421790
  72.3488090  29.1741230  84.6287770  71.8546370  29.5710100  83.9114900
  71.7401380  28.5490440  85.0225050  56.4534170  11.9543860  87.3364990
  57.0017160  11.7731910  86.5731100  56.5189480  11.1637970  87.8721300
  57.2265930  28.5449510  85.3465190  56.6326250  28.4134210  86.0855230
  57.2189770  27.7087650  84.8807290  66.6720950  11.8381740  83.5495220
  65.7980790  12.1716850  83.3468150  66.5631700  11.3654920  84.3747090
  67.5792930  14.0452610  84.9336940  67.2506290  13.2304370  84.5538670
  68.5275230  14.0022420  84.8102630  70.0327540  29.8164650  81.9074510
  69.5730510  30.5680460  81.5332530  69.4040000  29.0971120  81.8489310
  56.8578160  25.9107890  84.2973230  56.1312220  25.2913180  84.2299180
  56.9187310  26.3048500  83.4271310  60.4623260  28.1252890  81.0822640
  60.9788280  27.5140250  80.5570900  61.1120640  28.6281670  81.5733650
  63.2018760  29.0161380  81.9091620  63.4896570  28.7615680  81.0324630
  63.7141980  28.4638740  82.4997190  64.4195770  12.7551580  82.4888130
  63.6367560  13.2297080  82.7684890  64.1258700  11.8506410  82.3801310
  68.9716840  13.4574680  80.5337220  69.4124930  13.4019780  79.6858820
  68.7024430  14.3732690  80.6047400  70.8355410  13.0889920  78.5446040
  70.7743810  12.1451140  78.3977060  71.6147440  13.1970010  79.0899500
  55.1408160  29.2282280  77.5069990  54.9730200  28.5952960  78.2051880
  54.2742670  29.4341680  77.1564180  55.7636180  13.0599060  75.0101850
  56.5215540  13.1727940  74.4365880  55.3013350  13.8968260  74.9645280
  62.3049990  15.1738330  78.0004160  61.4924500  14.7995220  77.6600040
  62.8091630  14.4183410  78.3025350  66.8074970  11.8380780  79.2387230
  67.4104340  12.4100990  79.7135750  66.0667960  12.4020220  79.0161130
  69.9509570  12.2402340  74.5127510  70.1460200  13.1385790  74.7794940
  69.1639440  12.0089420  75.0060460  56.7470860  27.9215510  74.9520130
  56.2218480  28.3023540  74.2482090  56.6715440  28.5466280  75.6729840
  58.1361330  13.5863110  73.5503820  58.6654090  12.7992910  73.4211770
  58.7689650  14.2654300  73.7839350  60.3299170  13.3238250  76.6049210
  59.7001910  12.6225560  76.7719340  59.7904310  14.0842380  76.3882370
  63.2691120  29.9377480  89.2759820  64.1958430  29.7021750  89.3195780
  63.2541550  30.7649480  88.7945850  71.5036180  29.4803050  76.2734070
  71.6788370  28.7940790  75.6294990  70.8057750  30.0050100  75.8810740
  60.4554730  12.6022230  89.0401700  60.1739000  13.1055830  88.2762520
  60.8374430  11.8043980  88.6743830  59.3463830  29.8697890  73.8269380
  60.0782650  29.5857170  73.2793270  59.6057500  29.6311170  74.7168760
  58.5078620  25.9862620  73.8315710  57.8787500  26.4547720  74.3801540
  58.6226450  25.1411840  74.2661900  67.0570190  12.0175810  89.6182170
  66.9435640  12.3370420  90.5133690  67.8739930  12.4188320  89.3219450
  69.8368680  29.1647340  89.1000860  70.6294000  28.6696570  88.8926820
  70.1301830  29.8437480  89.7076470  65.9628340  20.0368280  59.9816910
  65.8822390  19.1222890  59.7108620  65.5492760  20.5335350  59.2756620
  64.0946380  21.8147300  61.8626180  63.3188480  21.3347740  62.1524750
  64.7459310  21.1352950  61.6882340  58.1112210  22.1267110  62.7401940
  57.2797090  21.8715820  63.1398450  58.7193190  22.1977880  63.4759860
  58.0913470  26.1607200  62.9359960  58.3941510  25.2704940  62.7570180
  58.8357060  26.7177420  62.7082210  56.5204160  17.0869000  56.5244330
  55.6320860  17.4284970  56.4224210  56.8045350  16.8869320  55.6325160
  54.4837170  19.6874650  62.4084030  55.0553280  18.9196850  62.4087670
  54.4838710  19.9863410  61.4990640  55.7262040  15.0959010  64.1952960
  55.5464880  14.1984760  64.4755720  55.3242120  15.6430880  64.8699910
  64.5660540  17.2974870  62.0965270  64.9425360  16.4246750  61.9838940
  64.4680050  17.6333570  61.2055710  58.6965550  15.6700500  57.5582710
  58.8032300  16.5704230  57.8651470  57.7857910  15.6218470  57.2677360
  68.3484660  14.7925310  59.0293610  69.1694280  14.3021880  59.0719090
  68.3818740  15.3822970  59.7825450  56.3448710  17.5919510  62.8035300
  57.0258820  17.8557880  63.4222700  56.0296760  16.7520380  63.1373310
  60.5373280  18.6386870  61.8907890  61.0451500  19.1367840  62.5312910
  61.0686520  17.8622070  61.7147250  72.6384210  16.8092060  65.5937240
  71.9336380  17.1973770  65.0752350  72.9042130  17.5042350  66.1958170
  58.8209380  13.2785430  66.1571310  58.8227820  13.7957820  65.3517210
  57.9913690  12.8015610  66.1341240  65.2080470  23.3904740  57.6561210
  64.5897740  23.8554190  57.0923930  65.7203720  24.0832220  58.0730720
  60.0712230  22.9180610  64.3344810  59.7381610  23.5449530  64.9765880
  60.2478910  23.4442490  63.5546480  68.5846140  16.7325690  61.8021150
  67.8801710  17.0210580  62.3824260  68.9458300  17.5425800  61.4420710
  58.5024710  14.9895390  64.1641760  58.8441520  15.8337440  63.8695630
  57.5640520  15.1379130  64.2807100  59.2831330  24.8861410  66.1493990
  59.9005330  25.5612490  65.8678440  58.4224450  25.2949390  66.0581490
  54.5763670  24.0761270  55.0300840  54.1991650  24.5648370  54.2985740
  54.8336740  24.7486550  55.6607370  71.6533060  16.1780480  62.1930360
  70.7057970  16.2119460  62.3245790  71.9783050  16.9919430  62.5779720
  62.1852600  12.4777660  60.4886350  62.4927580  11.9224550  59.7721850
  61.2553300  12.6122120  60.3059340  69.0313080  24.9161170  57.8683980
  68.9209410  23.9735500  57.9933400  69.0281330  25.2776810  58.7546740
  67.1353100  23.0974790  64.1076420  67.5521890  22.8834900  63.2729880
  67.8592920  23.3547580  64.6785040  64.5733360  20.5426490  57.2246470
  63.6462640  20.4763870  57.4534940  64.7258180  21.4806620  57.1101710
  64.5602440  16.8143490  54.2213630  63.6206110  16.9757450  54.3066090
  64.8785700  17.5329170  53.6749620  71.0815200  21.4962010  64.1992660
  70.2533830  21.5655100  63.7242790  71.6765680  22.0816320  63.7308490
  68.6030650  22.1046790  57.7281720  67.9843070  21.7666340  57.0808020
  68.5855100  21.4606550  58.4360910  68.0457210  18.2831330  65.1447530
  67.6328390  19.1085040  65.3987520  67.3133160  17.6976370  64.9523890
  60.1790000  21.0691230  60.0066200  59.7747000  20.3568480  59.5112100
  60.2653120  20.7244470  60.8954240  60.6471700  24.7558790  62.1705410
  60.3499990  24.1504260  61.4913190  61.5971520  24.7936100  62.0594770
  58.8918620  17.8434440  63.7865240  59.4433210  17.9529780  63.0118490
  59.4062130  18.2172040  64.5020470  59.7390130  24.4940480  68.8213210
  58.8418660  24.7180450  69.0686610  59.7643000  24.6175420  67.8724610
  66.7795350  21.3433600  54.7354470  67.2188630  20.5056030  54.5892290
  67.4923770  21.9763000  54.8218610  58.5661350  21.3653800  67.3970580
  58.4269120  22.2376600  67.7657980  57.6842710  21.0226610  67.2518520
  70.3612490  12.5976410  53.0495510  70.0485150  12.6903240  53.9494580
  71.1224960  13.1757440  52.9992940  56.8794630  19.9636210  57.5072850
  56.7592230  20.6898300  56.8954120  56.5695520  19.1939120  57.0300760
  72.3156520  28.0902600  70.9019900  72.7916240  28.5685490  71.5808980
  72.9363680  28.0220090  70.1765400  54.5180000  23.1351350  63.3141490
  54.5960420  23.2700120  62.3697210  55.1321680  22.4267240  63.5069610
  55.7627630  24.8351540  59.7247670  55.3555710  24.9766130  58.8701270
  56.6540640  24.5511700  59.5218880  67.5560910  29.2698790  56.0598720
  67.3962050  28.9801730  56.9580550  67.3907620  28.4938920  55.5243950
  60.0349290  29.0497320  57.8370340  59.8591770  28.1332860  57.6238140
  59.1805030  29.4084610  58.0768140  67.2587040  26.7786350  54.6196720
  66.5652200  26.7763640  53.9599000  68.0009900  26.3545670  54.1890890
  71.5713780  17.3347910  69.0269650  70.9558050  17.8427580  68.4985110
  71.2510200  16.4346240  68.9695590  54.5739520  24.1765520  65.8535950
  54.7370560  23.7070880  65.0355320  55.0391970  23.6689080  66.5184790
  59.3458290  13.3071280  60.8896520  58.9026440  14.0880820  60.5581040
  59.9043280  13.6301170  61.5967460  63.6328100  16.1739800  66.4931840
  63.1707470  16.3822820  67.3051780  63.2306210  15.3599150  66.1902510
  68.6332610  17.3948750  67.6228500  67.7826200  17.0954500  67.9437570
  68.4734400  17.6390760  66.7112320  65.7282320  18.8950500  69.7227290
  66.0535730  18.0614250  69.3829520  66.5162650  19.4179020  69.8705620
  62.4617110  12.9281980  55.7702350  61.8371290  12.9241850  56.4955660
  62.3747230  12.0612940  55.3738320  61.3834190  13.8518610  62.7486120
  61.6806520  14.7581440  62.6678140  61.9319750  13.3637390  62.1345690
  59.1372510  18.4304850  58.6177770  58.9113430  18.2142020  59.5224390
  58.3565040  18.8633310  58.2723740  66.3670270  18.4368220  57.2168420
  65.7679160  19.1604020  57.0332040  66.9149880  18.3745000  56.4344870
  61.5771720  19.3290430  69.2838040  61.4815320  18.3885160  69.1338440
  62.4203700  19.5505500  68.8886110  64.9735140  17.0731760  59.2471700
  65.3664710  17.3903960  58.4340390  65.3351990  16.1943640  59.3616220
  56.7082260  15.7404100  67.4371820  56.3145650  16.5879310  67.6444600
  56.0200660  15.1030470  67.6280460  63.2827310  15.8239070  70.5068560
  62.5925630  15.6311270  71.1414650  64.0259610  16.1073710  71.0392860
  54.0099310  13.6632560  61.4701900  53.7212360  14.2335420  62.1826880
  54.7545070  13.1837010  61.8333130  54.1969540  17.6052680  52.6804620
  54.1144210  18.5483440  52.8219610  53.8452600  17.4627590  51.8016970
  65.5590280  19.6637510  63.3422480  64.8271400  20.1724320  63.6912580
  65.1614620  18.8467490  63.0411260  61.9967670  16.3391710  61.7474970
  62.0003730  15.8981660  60.8979510  62.8918790  16.6609040  61.8546790
  57.8470050  16.2218200  60.7069180  57.5070100  16.6993430  61.4636230
  57.0847370  15.7683320  60.3470280  62.0587820  17.3403790  54.7381730
  62.1800640  17.2990270  55.6867550  61.6736330  18.2027940  54.5828460
  66.0216190  15.1171190  62.7545420  66.0388930  15.5679840  63.5987270
  65.7731770  14.2176830  62.9678860  61.0709320  19.6504930  54.1365030
  60.5026220  19.2023180  53.5100940  61.7798320  20.0097710  53.6030180
  69.4486940  12.5303370  68.5931800  69.7732710  11.7993030  69.1189780
  69.4843450  12.2117010  67.6912790  56.1478500  23.5516950  68.0131760
  55.7633290  22.9110620  68.6114720  56.4590690  24.2553070  68.5826490
  62.2975640  20.3993490  63.4940380  62.6645770  19.9252060  64.2401720
  62.1080700  21.2735060  63.8348720  55.1616130  15.1437180  59.6233850
  54.8763050  14.7792850  60.4612470  55.0994990  14.4117640  59.0096990
  60.0875010  19.4402130  65.8124590  59.7832080  20.3194110  66.0374950
  61.0421470  19.5001920  65.8482030  58.6156800  23.6463120  56.4091440
  57.8419060  23.1060740  56.2490160  59.3451430  23.1269730  56.0709200
  69.3744780  22.6428480  62.2017830  70.0943900  23.1383770  61.8113940
  69.1726600  21.9646370  61.5571700  64.8354720  14.0366440  56.3447220
  64.0219330  13.5379610  56.2692530  64.6416670  14.8764690  55.9283570
  67.5503110  18.4086090  54.6409380  68.4382730  18.7203320  54.4660720
  67.5208200  17.5358340  54.2489960  58.6594200  23.3143500  60.0470250
  59.1772870  22.5111760  59.9927140  58.2078220  23.2522640  60.8887080
  63.5463700  24.5809780  55.3197550  63.8879400  25.3252010  54.8240870
  62.7176410  24.8940900  55.6822380  56.1438740  20.2804870  66.9595950
  55.7853680  20.9458720  67.5469290  55.8493300  19.4488420  67.3308570
  59.3451860  20.7389110  69.8435500  59.0452000  20.8846290  68.9463320
  60.1163100  20.1794400  69.7508890  69.8217380  19.7197930  54.1089240
  69.7381100  20.1512150  53.2585680  70.5411570  20.1796280  54.5416060
  70.8991520  22.1765450  67.1859210  70.1739710  22.7694230  66.9888600
  71.4266980  22.1688990  66.3872580  62.5154390  24.6623310  58.0913470
  63.2025520  25.2092520  58.4721060  61.7286810  25.2064040  58.1263080
  54.6546790  20.2796130  53.5830550  55.5241640  20.5620930  53.8666470
  54.1637110  21.0932000  53.4679360  61.8181600  21.6669340  57.7038830
  62.2744380  22.4774590  57.9299020  61.4669810  21.3492480  58.5357320
  57.7193380  12.0106990  58.1761350  57.5908010  12.0024890  59.1246270
  56.8955400  12.3490080  57.8252360  69.2402010  25.4656650  53.3747720
  69.0139590  24.7487090  53.9672360  68.8498210  25.2169090  52.5369470
  55.0218040  29.4923510  54.1492180  55.3815680  30.0912850  53.4949450
  54.8810380  30.0383400  54.9227210  54.7187310  13.7698110  67.6368050
  54.0045830  13.9695030  68.2420660  55.1382350  12.9937680  68.0082850
  68.8218260  23.3828590  55.0361880  68.5339960  23.8441280  55.8239760
  69.6170430  22.9226360  55.3046100  55.0059900  27.7578370  68.6234580
  55.1151020  26.8173110  68.4829970  54.3540460  28.0233120  67.9748310
  61.0386660  26.8754710  54.9665850  61.0296760  27.6084400  54.3510360
  60.1185020  26.6286290  55.0592810  56.6393300  22.0969600  55.7112610
  56.0321250  22.8368500  55.7207910  57.1142650  22.1868960  54.8850810
  66.2126090  16.2620420  65.3869500  66.5806910  15.4415630  65.7149070
  65.3524290  16.3222310  65.8025150  69.5788120  15.2177360  56.1957060
  68.9501280  15.3223030  55.4815290  69.0840040  15.4374140  56.9850940
  64.0246260  26.9382950  53.6291040  64.1258240  26.7346940  52.6993020
  63.1248000  26.6841230  53.8338820  61.5472150  17.4963310  57.6114940
  60.8388300  17.9649650  58.0528550  61.8316630  16.8385320  58.2460130
  63.1728080  18.9160010  65.6107470  63.6713330  19.3905830  66.2759320
  63.3151030  17.9923530  65.8177500  65.5787580  14.2213970  59.0510730
  65.4555360  14.2400100  58.1020240  66.5272140  14.2692910  59.1709130
  62.6664370  29.4569270  58.3238710  62.9205870  29.4190660  57.4018080
  61.7176850  29.3302600  58.3166960  59.7507170  15.8048390  54.9865650
  60.5997700  16.2418540  54.9205840  59.3838440  16.1168650  55.8137710
  70.3794940  15.1327970  66.4535860  69.8768540  15.8733370  66.7929670
  71.1951600  15.5211970  66.1372650  68.6716950  20.3761150  59.8997220
  67.7307090  20.3911380  60.0744910  68.9861020  19.5897110  60.3457520
  58.6498590  22.0580750  53.4601180  59.4161860  21.9462110  54.0226610
  58.7273280  21.3618720  52.8077950  57.3445350  19.4905820  54.1434070
  57.4248940  18.5433330  54.2551470  58.2365100  19.8212700  54.2494730
  70.6742530  27.5470000  61.5751480  70.7989950  28.3701170  62.0475290
  71.5408090  27.3360730  61.2275630  58.1460060  29.6401210  61.2468610
  58.8822540  29.0916670  61.5177180  58.5300980  30.5057220  61.1074600
  55.0305540  25.7074780  57.1210120  54.1045320  25.9495920  57.1115530
  55.4961970  26.5349040  56.9994870  57.1518340  28.8247280  70.4354190
  57.9531070  29.1459330  70.8489590  56.6370160  28.4642860  71.1574100
  61.2562370  28.8131520  53.0694180  62.0490980  29.1020350  52.6175970
  60.7366720  28.3823690  52.3906660  54.8716150  21.3120740  69.3790240
  55.3755170  20.7328020  69.9506470  54.1323570  21.5960970  69.9166610
  61.7739770  24.0334930  52.9336530  61.6690410  23.4187280  53.6597910
  61.6063990  23.5100820  52.1499540  61.9254090  22.7191730  68.9125760
  61.1599760  23.2876730  68.8280430  62.1070050  22.4267940  68.0193990
  65.0142500  23.0954960  53.5378520  64.4652600  23.5424260  54.1821260
  65.6361760  22.5904210  54.0616190  56.9039230  19.4550330  70.2740310
  56.9444570  19.1564200  71.1825540  57.7584730  19.8557940  70.1147830
  60.6817620  22.0545880  55.4343820  61.1034040  21.8885750  56.2775210
  60.8068460  21.2446110  54.9398960  58.8445040  18.0342430  68.2414800
  58.3141500  17.5433380  67.6138140  59.5133110  18.4626630  67.7072730
  63.1945260  21.0783490  52.6820920  63.7150920  20.3632510  52.3162070
  63.8413660  21.7169360  52.9821430  59.3317340  15.0004800  68.3212090
  59.2374210  14.3825550  67.5962960  58.7514730  15.7271090  68.0942000
  62.0978780  13.5578040  65.3539480  61.6496080  13.5802300  64.5085030
  61.4643980  13.1597060  65.9509780  62.5038330  22.4532370  65.9751920
  62.9226440  23.2965100  65.8028160  61.5846960  22.5904410  65.7458700
  64.8402230  20.1848550  67.3589760  64.9598440  19.5889690  68.0984600
  65.6996230  20.2218240  66.9391060  67.1790130  20.7385740  65.9352270
  66.6525350  21.2628360  65.3317410  67.5221470  21.3713130  66.5662000
  59.5776520  18.1279110  52.3801980  59.3765580  17.2646470  52.7415320
  59.4068570  18.0412470  51.4423580  61.6071000  16.7269900  68.6165580
  62.1970690  16.4185750  69.3043400  60.7891240  16.2549650  68.7725480
  66.4264430  16.3435710  68.8498600  65.7379950  15.6817250  68.7848590
  67.1470450  15.8973980  69.2947060  67.0564830  12.9387340  54.9088860
  67.3367120  12.0955240  55.2648280  66.2830560  13.1710450  55.4227610
  58.3759320  15.2279730  52.3679860  58.6785220  15.2347160  51.4599010
  59.1153910  14.8777590  52.8647520  61.5944250  14.1714350  53.3536060
  61.2466250  13.4938340  52.7738510  61.7957020  13.7103860  54.1679450
  63.7593290  29.1595100  54.9722660  64.6544080  29.4980070  54.9941420
  63.7910920  28.4374510  54.3446940  57.3989450  24.5322150  53.2009660
  57.8364320  25.0751820  53.8567240  57.8837180  23.7069100  53.2106000
  54.6135250  27.3211180  60.6529920  54.9438260  26.4532240  60.4208560
  55.0426250  27.5269700  61.4834880  59.2097170  25.6520190  58.3131890
  58.9092710  25.5285160  59.2135800  59.1034660  24.7928780  57.9047620
  55.1025460  28.1881770  63.3911550  54.6656450  28.3682570  64.2235700
  55.6703140  28.9456390  63.2493270  71.4345550  22.1764070  55.5192770
  72.1964460  22.7460720  55.6252460  71.4499920  21.6091270  56.2901080
  54.9349890  20.7002000  59.7500430  54.2798730  20.4313640  59.1060130
  55.7727840  20.5906480  59.3002410  72.4405520  23.0314170  60.3634700
  72.8114350  22.2481490  59.9570670  73.0807450  23.7203270  60.1852000
  69.4239280  24.4150750  65.7765020  68.6099120  24.8447910  66.0390810
  69.8313480  25.0269160  65.1634070  71.4864720  22.4698440  52.6765290
  71.7613560  23.3777320  52.5484510  71.2975460  22.4060970  53.6127280
  67.8840330  15.4943290  53.9718920  68.3025210  15.3074270  53.1315580
  67.5776390  14.6422340  54.2821850  71.3830060  20.4067430  57.6694720
  71.0073660  19.6395360  57.2376010  70.6533180  20.7890130  58.1569650
  55.9725820  21.0854570  64.2903770  56.3398860  20.9981970  65.1699790
  55.4036640  20.3221120  64.1910630  70.7729680  19.5538950  67.3034240
  70.5415770  19.3251700  66.4032190  71.0334230  20.4738500  67.2579130
  55.5241820  17.9963660  68.1962190  54.6297870  17.9630420  68.5355900
  56.0639370  18.1950450  68.9613440  69.2117750  14.7795380  70.0813940
  70.0887930  14.7878780  70.4647940  69.2238590  14.0426220  69.4706290
  54.1487970  17.9100930  55.6925760  53.2452050  18.1731130  55.5177420
  54.6328590  18.1812100  54.9125720  70.6581020  18.6324920  60.9701960
  71.1818500  18.1387570  60.3392130  71.2440440  18.7675280  61.7149530
  70.8370740  18.7164790  64.4921510  69.8873450  18.6828330  64.6066500
  71.0183750  19.6264900  64.2571280  56.6915180  16.9666470  53.6020140
  57.4006880  16.5449690  53.1167420  55.9755120  17.0341700  52.9703490
  56.3389340  13.0205800  52.6422790  57.0617470  13.5614740  52.9604010
  56.6113860  12.7469220  51.7664330  70.1480990  17.8898270  56.9094370
  70.6440110  17.6569140  57.6943250  69.9497060  17.0510110  56.4932010
  56.0281530  12.2711990  62.5445410  56.6757720  11.7209370  62.1040570
  56.4483370  12.5255140  63.3661220  71.5768150  16.5259220  59.4432050
  71.4667430  16.3715260  60.3814320  72.3375740  15.9980160  59.2007460
  69.9233870  12.4653350  65.9015050  70.5606090  13.0787490  66.2674240
  70.0708760  12.5014010  64.9564280  72.4658420  14.3567140  52.6838190
  73.3907730  14.2248320  52.4756480  72.4434210  14.4359960  53.6374640
  72.5396910  15.1277800  55.3094900  71.7448410  15.0622920  55.8387810
  72.7440190  16.0628440  55.2980250  55.7813530  12.4267660  65.2870730
  55.4328350  12.8831480  66.0528910  55.4501230  11.5324790  65.3693160
  57.3877900  25.5987260  69.4523920  57.3447530  25.2280170  70.3338380
  57.5188910  26.5364830  69.5925740  61.0883930  27.1546850  65.0533640
  60.8475290  27.4221410  64.1664160  62.0286570  27.3252580  65.1084500
  63.2938350  13.6179540  68.8090150  63.2327240  14.2101370  69.5585560
  64.2338730  13.5105500  68.6640410  65.9312910  13.2749600  68.4482440
  66.5453320  13.5928890  67.7863520  66.4762470  12.7898190  69.0678300
  56.4534170  11.9543860  68.5621500  57.0017160  11.7731910  67.7987610
  56.5189480  11.1637970  69.0977810  57.2265930  28.5449510  66.5721700
  56.6326250  28.4134210  67.3111740  57.2189770  27.7087650  66.1063800
  66.6720950  11.8381740  64.7751730  65.7980790  12.1716850  64.5724660
  66.5631700  11.3654920  65.6003600  67.5792930  14.0452610  66.1593450
  67.2506290  13.2304370  65.7795180  68.5275230  14.0022420  66.0359140
  56.8578160  25.9107890  65.5229740  56.1312220  25.2913180  65.4555690
  56.9187310  26.3048500  64.6527820  60.4623260  28.1252890  62.3079150
  60.9788280  27.5140250  61.7827410  61.1120640  28.6281670  62.7990160
  64.4195770  12.7551580  63.7144640  63.6367560  13.2297080  63.9941400
  64.1258700  11.8506410  63.6057820  68.9716840  13.4574680  61.7593730
  69.4124930  13.4019780  60.9115330  68.7024430  14.3732690  61.8303910
  70.8355410  13.0889920  59.7702550  70.7743810  12.1451140  59.6233570
  71.6147440  13.1970010  60.3156010  55.1408160  29.2282280  58.7326500
  54.9730200  28.5952960  59.4308390  54.2742670  29.4341680  58.3820690
  55.7636180  13.0599060  56.2358360  56.5215540  13.1727940  55.6622390
  55.3013350  13.8968260  56.1901790  62.3049990  15.1738330  59.2260670
  61.4924500  14.7995220  58.8856550  62.8091630  14.4183410  59.5281860
  66.8074970  11.8380780  60.4643740  67.4104340  12.4100990  60.9392260
  66.0667960  12.4020220  60.2417640  69.9509570  12.2402340  55.7384020
  70.1460200  13.1385790  56.0051450  69.1639440  12.0089420  56.2316970
  56.7470860  27.9215510  56.1776640  56.2218480  28.3023540  55.4738600
  56.6715440  28.5466280  56.8986350  58.1361330  13.5863110  54.7760330
  58.6654090  12.7992910  54.6468280  58.7689650  14.2654300  55.0095860
  60.3299170  13.3238250  57.8305720  59.7001910  12.6225560  57.9975850
  59.7904310  14.0842380  57.6138880  60.4554730  12.6022230  70.2658210
  60.1739000  13.1055830  69.5019030  60.8374430  11.8043980  69.9000340
  59.3463830  29.8697890  55.0525890  60.0782650  29.5857170  54.5049780
  59.6057500  29.6311170  55.9425270  58.5078620  25.9862620  55.0572220
  57.8787500  26.4547720  55.6058050  58.6226450  25.1411840  55.4918410
  67.0570190  12.0175810  70.8438680  66.9435640  12.3370420  71.7390200
  67.8739930  12.4188320  70.5475960  65.9628340  20.0368280  41.2073420
  65.8822390  19.1222890  40.9365130  65.5492760  20.5335350  40.5013130
  64.0946380  21.8147300  43.0882690  63.3188480  21.3347740  43.3781260
  64.7459310  21.1352950  42.9138850  58.1112210  22.1267110  43.9658450
  57.2797090  21.8715820  44.3654960  58.7193190  22.1977880  44.7016370
  68.1153810  26.2207490  41.8681820  67.6535340  25.4494730  42.1968990
  68.9279360  26.2473560  42.3734270  58.0913470  26.1607200  44.1616470
  58.3941510  25.2704940  43.9826690  58.8357060  26.7177420  43.9338720
  56.5204160  17.0869000  37.7500840  55.6320860  17.4284970  37.6480720
  56.8045350  16.8869320  36.8581670  54.4837170  19.6874650  43.6340540
  55.0553280  18.9196850  43.6344180  54.4838710  19.9863410  42.7247150
  64.3417120  28.5065500  41.4885810  63.7228560  28.9623000  40.9180250
  65.1968900  28.6616960  41.0875510  63.5355370  24.4904490  43.0952850
  63.4663650  23.5494430  42.9341980  64.2975230  24.5805900  43.6675420
  55.7262040  15.0959010  45.4209470  55.5464880  14.1984760  45.7012230
  55.3242120  15.6430880  46.0956420  64.5660540  17.2974870  43.3221780
  64.9425360  16.4246750  43.2095450  64.4680050  17.6333570  42.4312220
  58.6965550  15.6700500  38.7839220  58.8032300  16.5704230  39.0907980
  57.7857910  15.6218470  38.4933870  68.3484660  14.7925310  40.2550120
  69.1694280  14.3021880  40.2975600  68.3818740  15.3822970  41.0081960
  56.3448710  17.5919510  44.0291810  57.0258820  17.8557880  44.6479210
  56.0296760  16.7520380  44.3629820  60.5373280  18.6386870  43.1164400
  61.0451500  19.1367840  43.7569420  61.0686520  17.8622070  42.9403760
  72.6384210  16.8092060  46.8193750  71.9336380  17.1973770  46.3008860
  72.9042130  17.5042350  47.4214680  58.8209380  13.2785430  47.3827820
  58.8227820  13.7957820  46.5773720  57.9913690  12.8015610  47.3597750
  65.2080470  23.3904740  38.8817720  64.5897740  23.8554190  38.3180440
  65.7203720  24.0832220  39.2987230  60.0712230  22.9180610  45.5601320
  59.7381610  23.5449530  46.2022390  60.2478910  23.4442490  44.7802990
  68.5846140  16.7325690  43.0277660  67.8801710  17.0210580  43.6080770
  68.9458300  17.5425800  42.6677220  58.5024710  14.9895390  45.3898270
  58.8441520  15.8337440  45.0952140  57.5640520  15.1379130  45.5063610
  59.2831330  24.8861410  47.3750500  59.9005330  25.5612490  47.0934950
  58.4224450  25.2949390  47.2838000  54.5763670  24.0761270  36.2557350
  54.1991650  24.5648370  35.5242250  54.8336740  24.7486550  36.8863880
  70.2008920  26.3500820  45.2905140  69.5172440  27.0199930  45.2821810
  70.7403210  26.5481470  44.5250000  71.6533060  16.1780480  43.4186870
  70.7057970  16.2119460  43.5502300  71.9783050  16.9919430  43.8036230
  62.1852600  12.4777660  41.7142860  62.4927580  11.9224550  40.9978360
  61.2553300  12.6122120  41.5315850  67.7367660  28.1944950  44.0050320
  67.7494820  27.7907240  43.1372580  67.1842880  28.9692240  43.9011750
  69.0313080  24.9161170  39.0940490  68.9209410  23.9735500  39.2189910
  69.0281330  25.2776810  39.9803250  67.1353100  23.0974790  45.3332930
  67.5521890  22.8834900  44.4986390  67.8592920  23.3547580  45.9041550
  64.5733360  20.5426490  38.4502980  63.6462640  20.4763870  38.6791450
  64.7258180  21.4806620  38.3358220  64.5602440  16.8143490  35.4470140
  63.6206110  16.9757450  35.5322600  64.8785700  17.5329170  34.9006130
  71.0815200  21.4962010  45.4249170  70.2533830  21.5655100  44.9499300
  71.6765680  22.0816320  44.9565000  68.6030650  22.1046790  38.9538230
  67.9843070  21.7666340  38.3064530  68.5855100  21.4606550  39.6617420
  68.0457210  18.2831330  46.3704040  67.6328390  19.1085040  46.6244030
  67.3133160  17.6976370  46.1780400  60.1790000  21.0691230  41.2322710
  59.7747000  20.3568480  40.7368610  60.2653120  20.7244470  42.1210750
  60.6471700  24.7558790  43.3961920  60.3499990  24.1504260  42.7169700
  61.5971520  24.7936100  43.2851280  58.8918620  17.8434440  45.0121750
  59.4433210  17.9529780  44.2375000  59.4062130  18.2172040  45.7276980
  68.7357310  28.3290660  47.0585020  68.2587870  29.1362850  46.8657630
  68.0519100  27.6768990  47.2111230  59.7390130  24.4940480  50.0469720
  58.8418660  24.7180450  50.2943120  59.7643000  24.6175420  49.0981120
  66.7795350  21.3433600  35.9610980  67.2188630  20.5056030  35.8148800
  67.4923770  21.9763000  36.0475120  58.5661350  21.3653800  48.6227090
  58.4269120  22.2376600  48.9914490  57.6842710  21.0226610  48.4775030
  64.8890730  26.2829670  39.9292220  65.3286640  27.0254000  39.5147610
  64.8277620  26.5256240  40.8531180  60.3641700  27.3075500  50.8312240
  60.3357130  27.7118450  49.9640670  60.2006670  26.3785860  50.6683840
  70.3612490  12.5976410  34.2752020  70.0485150  12.6903240  35.1751090
  71.1224960  13.1757440  34.2249450  56.8794630  19.9636210  38.7329360
  56.7592230  20.6898300  38.1210630  56.5695520  19.1939120  38.2557270
  54.5180000  23.1351350  44.5398000  54.5960420  23.2700120  43.5953720
  55.1321680  22.4267240  44.7326120  55.7627630  24.8351540  40.9504180
  55.3555710  24.9766130  40.0957780  56.6540640  24.5511700  40.7475390
  71.7189770  25.2815450  49.2876420  71.8452830  25.0427330  48.3693600
  71.7611150  24.4499990  49.7598500  65.5806510  28.9843450  47.8571230
  66.0951180  28.8951460  48.6593660  64.7375590  29.3303150  48.1499140
  67.5560910  29.2698790  37.2855230  67.3962050  28.9801730  38.1837060
  67.3907620  28.4938920  36.7500460  60.0349290  29.0497320  39.0626850
  59.8591770  28.1332860  38.8494650  59.1805030  29.4084610  39.3024650
  67.2587040  26.7786350  35.8453230  66.5652200  26.7763640  35.1855510
  68.0009900  26.3545670  35.4147400  66.8236970  28.4049060  39.9201720
  67.2793920  27.6238440  40.2340340  67.1629490  29.1155880  40.4642900
  71.5713780  17.3347910  50.2526160  70.9558050  17.8427580  49.7241620
  71.2510200  16.4346240  50.1952100  54.5739520  24.1765520  47.0792460
  54.7370560  23.7070880  46.2611830  55.0391970  23.6689080  47.7441300
  59.3458290  13.3071280  42.1153030  58.9026440  14.0880820  41.7837550
  59.9043280  13.6301170  42.8223970  63.6328100  16.1739800  47.7188350
  63.1707470  16.3822820  48.5308290  63.2306210  15.3599150  47.4159020
  68.6332610  17.3948750  48.8485010  67.7826200  17.0954500  49.1694080
  68.4734400  17.6390760  47.9368830  65.7282320  18.8950500  50.9483800
  66.0535730  18.0614250  50.6086030  66.5162650  19.4179020  51.0962130
  62.4617110  12.9281980  36.9958860  61.8371290  12.9241850  37.7212170
  62.3747230  12.0612940  36.5994830  61.3834190  13.8518610  43.9742630
  61.6806520  14.7581440  43.8934650  61.9319750  13.3637390  43.3602200
  59.1372510  18.4304850  39.8434280  58.9113430  18.2142020  40.7480900
  58.3565040  18.8633310  39.4980250  66.3670270  18.4368220  38.4424930
  65.7679160  19.1604020  38.2588550  66.9149880  18.3745000  37.6601380
  61.5771720  19.3290430  50.5094550  61.4815320  18.3885160  50.3594950
  62.4203700  19.5505500  50.1142620  64.9735140  17.0731760  40.4728210
  65.3664710  17.3903960  39.6596900  65.3351990  16.1943640  40.5872730
  56.7082260  15.7404100  48.6628330  56.3145650  16.5879310  48.8701110
  56.0200660  15.1030470  48.8536970  63.2827310  15.8239070  51.7325070
  62.5925630  15.6311270  52.3671160  64.0259610  16.1073710  52.2649370
  54.0099310  13.6632560  42.6958410  53.7212360  14.2335420  43.4083390
  54.7545070  13.1837010  43.0589640  54.1969540  17.6052680  33.9061130
  54.1144210  18.5483440  34.0476120  53.8452600  17.4627590  33.0273480
  65.5590280  19.6637510  44.5678990  64.8271400  20.1724320  44.9169090
  65.1614620  18.8467490  44.2667770  61.9967670  16.3391710  42.9731480
  62.0003730  15.8981660  42.1236020  62.8918790  16.6609040  43.0803300
  57.8470050  16.2218200  41.9325690  57.5070100  16.6993430  42.6892740
  57.0847370  15.7683320  41.5726790  62.0587820  17.3403790  35.9638240
  62.1800640  17.2990270  36.9124060  61.6736330  18.2027940  35.8084970
  66.0216190  15.1171190  43.9801930  66.0388930  15.5679840  44.8243780
  65.7731770  14.2176830  44.1935370  61.0709320  19.6504930  35.3621540
  60.5026220  19.2023180  34.7357450  61.7798320  20.0097710  34.8286690
  69.4486940  12.5303370  49.8188310  69.7732710  11.7993030  50.3446290
  69.4843450  12.2117010  48.9169300  56.1478500  23.5516950  49.2388270
  55.7633290  22.9110620  49.8371230  56.4590690  24.2553070  49.8083000
  62.2975640  20.3993490  44.7196890  62.6645770  19.9252060  45.4658230
  62.1080700  21.2735060  45.0605230  55.1616130  15.1437180  40.8490360
  54.8763050  14.7792850  41.6868980  55.0994990  14.4117640  40.2353500
  60.0875010  19.4402130  47.0381100  59.7832080  20.3194110  47.2631460
  61.0421470  19.5001920  47.0738540  58.6156800  23.6463120  37.6347950
  57.8419060  23.1060740  37.4746670  59.3451430  23.1269730  37.2965710
  69.3744780  22.6428480  43.4274340  70.0943900  23.1383770  43.0370450
  69.1726600  21.9646370  42.7828210  64.8354720  14.0366440  37.5703730
  64.0219330  13.5379610  37.4949040  64.6416670  14.8764690  37.1540080
  64.7563580  22.7137540  49.3143340  64.6900890  21.7933210  49.0600930
  64.1268720  22.8112980  50.0287980  67.5503110  18.4086090  35.8665890
  68.4382730  18.7203320  35.6917230  67.5208200  17.5358340  35.4746470
  58.6594200  23.3143500  41.2726760  59.1772870  22.5111760  41.2183650
  58.2078220  23.2522640  42.1143590  63.5463700  24.5809780  36.5454060
  63.8879400  25.3252010  36.0497380  62.7176410  24.8940900  36.9078890
  56.1438740  20.2804870  48.1852460  55.7853680  20.9458720  48.7725800
  55.8493300  19.4488420  48.5565080  59.3451860  20.7389110  51.0692010
  59.0452000  20.8846290  50.1719830  60.1163100  20.1794400  50.9765400
  64.6880310  25.5358110  49.0647140  64.7024850  24.6039070  48.8466050
  63.9805410  25.6217870  49.7036910  69.8217380  19.7197930  35.3345750
  69.7381100  20.1512150  34.4842190  70.5411570  20.1796280  35.7672570
  70.8991520  22.1765450  48.4115720  70.1739710  22.7694230  48.2145110
  71.4266980  22.1688990  47.6129090  70.8504630  26.5740190  38.0627880
  70.2080790  25.9195810  38.3371600  70.4635290  26.9795280  37.2868550
  66.4291110  23.9025620  41.9099570  66.7814930  23.3053750  41.2500940
  65.5453440  23.5769850  42.0807820  62.5154390  24.6623310  39.3169980
  63.2025520  25.2092520  39.6977570  61.7286810  25.2064040  39.3519590
  54.6546790  20.2796130  34.8087060  55.5241640  20.5620930  35.0922980
  54.1637110  21.0932000  34.6935870  61.8181600  21.6669340  38.9295340
  62.2744380  22.4774590  39.1555530  61.4669810  21.3492480  39.7613830
  64.1214210  27.1775680  46.1587640  64.7656430  27.3835060  46.8361060
  64.4843650  26.4164080  45.7058490  57.7193380  12.0106990  39.4017860
  57.5908010  12.0024890  40.3502780  56.8955400  12.3490080  39.0508870
  65.3946290  25.1808030  44.8765090  66.0368520  24.4801190  44.9897260
  65.9195640  25.9606470  44.6961980  69.2402010  25.4656650  34.6004230
  69.0139590  24.7487090  35.1928870  68.8498210  25.2169090  33.7625980
  67.1683910  25.9802930  48.0801150  67.5040150  26.5669620  48.7579070
  66.2484250  25.8495640  48.3098940  55.0218040  29.4923510  35.3748690
  55.3815680  30.0912850  34.7205960  54.8810380  30.0383400  36.1483720
  54.7187310  13.7698110  48.8624560  54.0045830  13.9695030  49.4677170
  55.1382350  12.9937680  49.2339360  68.8218260  23.3828590  36.2618390
  68.5339960  23.8441280  37.0496270  69.6170430  22.9226360  36.5302610
  55.0059900  27.7578370  49.8491090  55.1151020  26.8173110  49.7086480
  54.3540460  28.0233120  49.2004820  62.9972490  26.0294260  51.2489210
  62.6769360  25.3103500  51.7934900  62.3230850  26.7049330  51.3225270
  61.0386660  26.8754710  36.1922360  61.0296760  27.6084400  35.5766870
  60.1185020  26.6286290  36.2849320  56.6393300  22.0969600  36.9369120
  56.0321250  22.8368500  36.9464420  57.1142650  22.1868960  36.1107320
  66.2126090  16.2620420  46.6126010  66.5806910  15.4415630  46.9405580
  65.3524290  16.3222310  47.0281660  69.5788120  15.2177360  37.4213570
  68.9501280  15.3223030  36.7071800  69.0840040  15.4374140  38.2107450
  64.0246260  26.9382950  34.8547550  64.1258240  26.7346940  33.9249530
  63.1248000  26.6841230  35.0595330  61.5472150  17.4963310  38.8371450
  60.8388300  17.9649650  39.2785060  61.8316630  16.8385320  39.4716640
  63.1728080  18.9160010  46.8363980  63.6713330  19.3905830  47.5015830
  63.3151030  17.9923530  47.0434010  65.5787580  14.2213970  40.2767240
  65.4555360  14.2400100  39.3276750  66.5272140  14.2692910  40.3965640
  62.6664370  29.4569270  39.5495220  62.9205870  29.4190660  38.6274590
  61.7176850  29.3302600  39.5423470  59.7507170  15.8048390  36.2122160
  60.5997700  16.2418540  36.1462350  59.3838440  16.1168650  37.0394220
  70.3794940  15.1327970  47.6792370  69.8768540  15.8733370  48.0186180
  71.1951600  15.5211970  47.3629160  68.6716950  20.3761150  41.1253730
  67.7307090  20.3911380  41.3001420  68.9861020  19.5897110  41.5714030
  58.6498590  22.0580750  34.6857690  59.4161860  21.9462110  35.2483120
  58.7273280  21.3618720  34.0334460  57.3445350  19.4905820  35.3690580
  57.4248940  18.5433330  35.4807980  58.2365100  19.8212700  35.4751240
  70.6742530  27.5470000  42.8007990  70.7989950  28.3701170  43.2731800
  71.5408090  27.3360730  42.4532140  58.1460060  29.6401210  42.4725120
  58.8822540  29.0916670  42.7433690  58.5300980  30.5057220  42.3331110
  55.0305540  25.7074780  38.3466630  54.1045320  25.9495920  38.3372040
  55.4961970  26.5349040  38.2251380  57.1518340  28.8247280  51.6610700
  57.9531070  29.1459330  52.0746100  56.6370160  28.4642860  52.3830610
  61.2562370  28.8131520  34.2950690  62.0490980  29.1020350  33.8432480
  60.7366720  28.3823690  33.6163170  65.9882970  24.9327150  51.6086110
  65.3821130  24.9558750  50.8681860  65.6837080  24.2010190  52.1453360
  67.4183340  28.6607440  50.2195520  68.3705090  28.5765460  50.1695760
  67.2711560  29.3249150  50.8929310  70.3092540  28.0401650  35.7187430
  70.0234050  27.6266790  34.9041610  70.1112090  28.9689360  35.5987950
  54.8716150  21.3120740  50.6046750  55.3755170  20.7328020  51.1762980
  54.1323570  21.5960970  51.1423120  61.7739770  24.0334930  34.1593040
  61.6690410  23.4187280  34.8854420  61.6063990  23.5100820  33.3756050
  61.9254090  22.7191730  50.1382270  61.1599760  23.2876730  50.0536940
  62.1070050  22.4267940  49.2450500  65.0142500  23.0954960  34.7635030
  64.4652600  23.5424260  35.4077770  65.6361760  22.5904210  35.2872700
  69.0677440  24.4497060  50.6957290  69.8086910  24.7872820  50.1924750
  68.3050120  24.6189120  50.1427060  56.9039230  19.4550330  51.4996820
  56.9444570  19.1564200  52.4082050  57.7584730  19.8557940  51.3404340
  60.6817620  22.0545880  36.6600330  61.1034040  21.8885750  37.5031720
  60.8068460  21.2446110  36.1655470  58.8445040  18.0342430  49.4671310
  58.3141500  17.5433380  48.8394650  59.5133110  18.4626630  48.9329240
  63.1945260  21.0783490  33.9077430  63.7150920  20.3632510  33.5418580
  63.8413660  21.7169360  34.2077940  67.7423100  22.5011890  49.2312500
  68.1564120  22.6556970  50.0802920  66.8074100  22.6267110  49.3938280
  68.2145270  19.8408050  51.2351650  68.7966040  19.0860370  51.1472130
  68.3907040  20.3715490  50.4583130  59.3317340  15.0004800  49.5468600
  59.2374210  14.3825550  48.8219470  58.7514730  15.7271090  49.3198510
  62.0978780  13.5578040  46.5795990  61.6496080  13.5802300  45.7341540
  61.4643980  13.1597060  47.1766290  62.5038330  22.4532370  47.2008430
  62.9226440  23.2965100  47.0284670  61.5846960  22.5904410  46.9715210
  64.8402230  20.1848550  48.5846270  64.9598440  19.5889690  49.3241110
  65.6996230  20.2218240  48.1647570  67.1790130  20.7385740  47.1608780
  66.6525350  21.2628360  46.5573920  67.5221470  21.3713130  47.7918510
  59.5776520  18.1279110  33.6058490  59.3765580  17.2646470  33.9671830
  59.4068570  18.0412470  32.6680090  60.3545750  28.7585380  48.3166160
  59.8166840  29.4831440  47.9974860  60.6079710  28.2815720  47.5263500
  61.6071000  16.7269900  49.8422090  62.1970690  16.4185750  50.5299910
  60.7891240  16.2549650  49.9981990  66.4264430  16.3435710  50.0755110
  65.7379950  15.6817250  50.0105100  67.1470450  15.8973980  50.5203570
  67.0564830  12.9387340  36.1345370  67.3367120  12.0955240  36.4904790
  66.2830560  13.1710450  36.6484120  58.3759320  15.2279730  33.5936370
  58.6785220  15.2347160  32.6855520  59.1153910  14.8777590  34.0904030
  63.2107960  29.9936590  48.5752810  63.1366660  30.8971730  48.8825180
  62.3086800  29.6748490  48.5474880  61.5944250  14.1714350  34.5792570
  61.2466250  13.4938340  33.9995020  61.7957020  13.7103860  35.3935960
  63.7593290  29.1595100  36.1979170  64.6544080  29.4980070  36.2197930
  63.7910920  28.4374510  35.5703450  57.3989450  24.5322150  34.4266170
  57.8364320  25.0751820  35.0823750  57.8837180  23.7069100  34.4362510
  54.6135250  27.3211180  41.8786430  54.9438260  26.4532240  41.6465070
  55.0426250  27.5269700  42.7091390  59.2097170  25.6520190  39.5388400
  58.9092710  25.5285160  40.4392310  59.1034660  24.7928780  39.1304130
  55.1025460  28.1881770  44.6168060  54.6656450  28.3682570  45.4492210
  55.6703140  28.9456390  44.4749780  70.7387640  27.6898770  48.9045370
  70.1389630  27.7491330  48.1609290  70.8681540  26.7503750  49.0342220
  71.9789090  25.4316590  34.2415080  71.1482050  25.4993240  34.7122310
  72.1560920  26.3220710  33.9381940  71.4345550  22.1764070  36.7449280
  72.1964460  22.7460720  36.8508970  71.4499920  21.6091270  37.5157590
  54.9349890  20.7002000  40.9756940  54.2798730  20.4313640  40.3316640
  55.7727840  20.5906480  40.5258920  72.4405520  23.0314170  41.5891210
  72.8114350  22.2481490  41.1827180  73.0807450  23.7203270  41.4108510
  69.4239280  24.4150750  47.0021530  68.6099120  24.8447910  47.2647320
  69.8313480  25.0269160  46.3890580  71.4864720  22.4698440  33.9021800
  71.7613560  23.3777320  33.7741020  71.2975460  22.4060970  34.8383790
  67.8840330  15.4943290  35.1975430  68.3025210  15.3074270  34.3572090
  67.5776390  14.6422340  35.5078360  71.3830060  20.4067430  38.8951230
  71.0073660  19.6395360  38.4632520  70.6533180  20.7890130  39.3826160
  55.9725820  21.0854570  45.5160280  56.3398860  20.9981970  46.3956300
  55.4036640  20.3221120  45.4167140  70.7729680  19.5538950  48.5290750
  70.5415770  19.3251700  47.6288700  71.0334230  20.4738500  48.4835640
  55.5241820  17.9963660  49.4218700  54.6297870  17.9630420  49.7612410
  56.0639370  18.1950450  50.1869950  69.2117750  14.7795380  51.3070450
  70.0887930  14.7878780  51.6904450  69.2238590  14.0426220  50.6962800
  54.1487970  17.9100930  36.9182270  53.2452050  18.1731130  36.7433930
  54.6328590  18.1812100  36.1382230  70.6581020  18.6324920  42.1958470
  71.1818500  18.1387570  41.5648640  71.2440440  18.7675280  42.9406040
  70.8370740  18.7164790  45.7178020  69.8873450  18.6828330  45.8323010
  71.0183750  19.6264900  45.4827790  56.6915180  16.9666470  34.8276650
  57.4006880  16.5449690  34.3423930  55.9755120  17.0341700  34.1960000
  56.3389340  13.0205800  33.8679300  57.0617470  13.5614740  34.1860520
  56.6113860  12.7469220  32.9920840  70.1480990  17.8898270  38.1350880
  70.6440110  17.6569140  38.9199760  69.9497060  17.0510110  37.7188520
  56.0281530  12.2711990  43.7701920  56.6757720  11.7209370  43.3297080
  56.4483370  12.5255140  44.5917730  71.5768150  16.5259220  40.6688560
  71.4667430  16.3715260  41.6070830  72.3375740  15.9980160  40.4263970
  69.9233870  12.4653350  47.1271560  70.5606090  13.0787490  47.4930750
  70.0708760  12.5014010  46.1820790  72.4658420  14.3567140  33.9094700
  73.3907730  14.2248320  33.7012990  72.4434210  14.4359960  34.8631150
  72.5396910  15.1277800  36.5351410  71.7448410  15.0622920  37.0644320
  72.7440190  16.0628440  36.5236760  69.4815330  29.1669350  40.5289800
  70.0774400  28.8453920  39.8524220  69.7393480  28.6941170  41.3203070
  55.7813530  12.4267660  46.5127240  55.4328350  12.8831480  47.2785420
  55.4501230  11.5324790  46.5949670  57.3877900  25.5987260  50.6780430
  57.3447530  25.2280170  51.5594890  57.5188910  26.5364830  50.8182250
  61.0883930  27.1546850  46.2790150  60.8475290  27.4221410  45.3920670
  62.0286570  27.3252580  46.3341010  63.2938350  13.6179540  50.0346660
  63.2327240  14.2101370  50.7842070  64.2338730  13.5105500  49.8896920
  65.9312910  13.2749600  49.6738950  66.5453320  13.5928890  49.0120030
  66.4762470  12.7898190  50.2934810  72.3488090  29.1741230  47.0800790
  71.8546370  29.5710100  46.3627920  71.7401380  28.5490440  47.4738070
  56.4534170  11.9543860  49.7878010  57.0017160  11.7731910  49.0244120
  56.5189480  11.1637970  50.3234320  57.2265930  28.5449510  47.7978210
  56.6326250  28.4134210  48.5368250  57.2189770  27.7087650  47.3320310
  66.6720950  11.8381740  46.0008240  65.7980790  12.1716850  45.7981170
  66.5631700  11.3654920  46.8260110  67.5792930  14.0452610  47.3849960
  67.2506290  13.2304370  47.0051690  68.5275230  14.0022420  47.2615650
  70.0327540  29.8164650  44.3587530  69.5730510  30.5680460  43.9845550
  69.4040000  29.0971120  44.3002330  56.8578160  25.9107890  46.7486250
  56.1312220  25.2913180  46.6812200  56.9187310  26.3048500  45.8784330
  60.4623260  28.1252890  43.5335660  60.9788280  27.5140250  43.0083920
  61.1120640  28.6281670  44.0246670  63.2018760  29.0161380  44.3604640
  63.4896570  28.7615680  43.4837650  63.7141980  28.4638740  44.9510210
  64.4195770  12.7551580  44.9401150  63.6367560  13.2297080  45.2197910
  64.1258700  11.8506410  44.8314330  68.9716840  13.4574680  42.9850240
  69.4124930  13.4019780  42.1371840  68.7024430  14.3732690  43.0560420
  70.8355410  13.0889920  40.9959060  70.7743810  12.1451140  40.8490080
  71.6147440  13.1970010  41.5412520  55.1408160  29.2282280  39.9583010
  54.9730200  28.5952960  40.6564900  54.2742670  29.4341680  39.6077200
  55.7636180  13.0599060  37.4614870  56.5215540  13.1727940  36.8878900
  55.3013350  13.8968260  37.4158300  62.3049990  15.1738330  40.4517180
  61.4924500  14.7995220  40.1113060  62.8091630  14.4183410  40.7538370
  66.8074970  11.8380780  41.6900250  67.4104340  12.4100990  42.1648770
  66.0667960  12.4020220  41.4674150  69.9509570  12.2402340  36.9640530
  70.1460200  13.1385790  37.2307960  69.1639440  12.0089420  37.4573480
  56.7470860  27.9215510  37.4033150  56.2218480  28.3023540  36.6995110
  56.6715440  28.5466280  38.1242860  58.1361330  13.5863110  36.0016840
  58.6654090  12.7992910  35.8724790  58.7689650  14.2654300  36.2352370
  60.3299170  13.3238250  39.0562230  59.7001910  12.6225560  39.2232360
  59.7904310  14.0842380  38.8395390  63.2691120  29.9377480  51.7272840
  64.1958430  29.7021750  51.7708800  63.2541550  30.7649480  51.2458870
  71.5036180  29.4803050  38.7247090  71.6788370  28.7940790  38.0808010
  70.8057750  30.0050100  38.3323760  60.4554730  12.6022230  51.4914720
  60.1739000  13.1055830  50.7275540  60.8374430  11.8043980  51.1256850
  59.3463830  29.8697890  36.2782400  60.0782650  29.5857170  35.7306290
  59.6057500  29.6311170  37.1681780  58.5078620  25.9862620  36.2828730
  57.8787500  26.4547720  36.8314560  58.6226450  25.1411840  36.7174920
  67.0570190  12.0175810  52.0695190  66.9435640  12.3370420  52.9646710
  67.8739930  12.4188320  51.7732470  65.9628340  20.0368280  22.4329930
  65.8822390  19.1222890  22.1621640  65.5492760  20.5335350  21.7269640
  64.0946380  21.8147300  24.3139200  63.3188480  21.3347740  24.6037770
  64.7459310  21.1352950  24.1395360  58.1112210  22.1267110  25.1914960
  57.2797090  21.8715820  25.5911470  58.7193190  22.1977880  25.9272880
  68.1153810  26.2207490  23.0938330  67.6535340  25.4494730  23.4225500
  68.9279360  26.2473560  23.5990780  58.0913470  26.1607200  25.3872980
  58.3941510  25.2704940  25.2083200  58.8357060  26.7177420  25.1595230
  56.5204160  17.0869000  18.9757350  55.6320860  17.4284970  18.8737230
  56.8045350  16.8869320  18.0838180  54.4837170  19.6874650  24.8597050
  55.0553280  18.9196850  24.8600690  54.4838710  19.9863410  23.9503660
  64.3417120  28.5065500  22.7142320  63.7228560  28.9623000  22.1436760
  65.1968900  28.6616960  22.3132020  63.5355370  24.4904490  24.3209360
  63.4663650  23.5494430  24.1598490  64.2975230  24.5805900  24.8931930
  55.7262040  15.0959010  26.6465980  55.5464880  14.1984760  26.9268740
  55.3242120  15.6430880  27.3212930  64.5660540  17.2974870  24.5478290
  64.9425360  16.4246750  24.4351960  64.4680050  17.6333570  23.6568730
  58.6965550  15.6700500  20.0095730  58.8032300  16.5704230  20.3164490
  57.7857910  15.6218470  19.7190380  68.3484660  14.7925310  21.4806630
  69.1694280  14.3021880  21.5232110  68.3818740  15.3822970  22.2338470
  56.3448710  17.5919510  25.2548320  57.0258820  17.8557880  25.8735720
  56.0296760  16.7520380  25.5886330  60.5373280  18.6386870  24.3420910
  61.0451500  19.1367840  24.9825930  61.0686520  17.8622070  24.1660270
  72.6384210  16.8092060  28.0450260  71.9336380  17.1973770  27.5265370
  72.9042130  17.5042350  28.6471190  58.8209380  13.2785430  28.6084330
  58.8227820  13.7957820  27.8030230  57.9913690  12.8015610  28.5854260
  65.2080470  23.3904740  20.1074230  64.5897740  23.8554190  19.5436950
  65.7203720  24.0832220  20.5243740  60.0712230  22.9180610  26.7857830
  59.7381610  23.5449530  27.4278900  60.2478910  23.4442490  26.0059500
  68.5846140  16.7325690  24.2534170  67.8801710  17.0210580  24.8337280
  68.9458300  17.5425800  23.8933730  58.5024710  14.9895390  26.6154780
  58.8441520  15.8337440  26.3208650  57.5640520  15.1379130  26.7320120
  59.2831330  24.8861410  28.6007010  59.9005330  25.5612490  28.3191460
  58.4224450  25.2949390  28.5094510  54.5763670  24.0761270  17.4813860
  54.1991650  24.5648370  16.7498760  54.8336740  24.7486550  18.1120390
  70.2008920  26.3500820  26.5161650  69.5172440  27.0199930  26.5078320
  70.7403210  26.5481470  25.7506510  71.6533060  16.1780480  24.6443380
  70.7057970  16.2119460  24.7758810  71.9783050  16.9919430  25.0292740
  62.1852600  12.4777660  22.9399370  62.4927580  11.9224550  22.2234870
  61.2553300  12.6122120  22.7572360  67.7367660  28.1944950  25.2306830
  67.7494820  27.7907240  24.3629090  67.1842880  28.9692240  25.1268260
  69.0313080  24.9161170  20.3197000  68.9209410  23.9735500  20.4446420
  69.0281330  25.2776810  21.2059760  67.1353100  23.0974790  26.5589440
  67.5521890  22.8834900  25.7242900  67.8592920  23.3547580  27.1298060
  64.5733360  20.5426490  19.6759490  63.6462640  20.4763870  19.9047960
  64.7258180  21.4806620  19.5614730  64.5602440  16.8143490  16.6726650
  63.6206110  16.9757450  16.7579110  64.8785700  17.5329170  16.1262640
  71.0815200  21.4962010  26.6505680  70.2533830  21.5655100  26.1755810
  71.6765680  22.0816320  26.1821510  68.6030650  22.1046790  20.1794740
  67.9843070  21.7666340  19.5321040  68.5855100  21.4606550  20.8873930
  68.0457210  18.2831330  27.5960550  67.6328390  19.1085040  27.8500540
  67.3133160  17.6976370  27.4036910  60.1790000  21.0691230  22.4579220
  59.7747000  20.3568480  21.9625120  60.2653120  20.7244470  23.3467260
  60.6471700  24.7558790  24.6218430  60.3499990  24.1504260  23.9426210
  61.5971520  24.7936100  24.5107790  58.8918620  17.8434440  26.2378260
  59.4433210  17.9529780  25.4631510  59.4062130  18.2172040  26.9533490
  68.7357310  28.3290660  28.2841530  68.2587870  29.1362850  28.0914140
  68.0519100  27.6768990  28.4367740  59.7390130  24.4940480  31.2726230
  58.8418660  24.7180450  31.5199630  59.7643000  24.6175420  30.3237630
  66.7795350  21.3433600  17.1867490  67.2188630  20.5056030  17.0405310
  67.4923770  21.9763000  17.2731630  58.5661350  21.3653800  29.8483600
  58.4269120  22.2376600  30.2171000  57.6842710  21.0226610  29.7031540
  64.8890730  26.2829670  21.1548730  65.3286640  27.0254000  20.7404120
  64.8277620  26.5256240  22.0787690  60.3641700  27.3075500  32.0568750
  60.3357130  27.7118450  31.1897180  60.2006670  26.3785860  31.8940350
  70.3612490  12.5976410  15.5008530  70.0485150  12.6903240  16.4007600
  71.1224960  13.1757440  15.4505960  56.8794630  19.9636210  19.9585870
  56.7592230  20.6898300  19.3467140  56.5695520  19.1939120  19.4813780
  72.3156520  28.0902600  33.3532920  72.7916240  28.5685490  34.0322000
  72.9363680  28.0220090  32.6278420  54.5180000  23.1351350  25.7654510
  54.5960420  23.2700120  24.8210230  55.1321680  22.4267240  25.9582630
  55.7627630  24.8351540  22.1760690  55.3555710  24.9766130  21.3214290
  56.6540640  24.5511700  21.9731900  71.7189770  25.2815450  30.5132930
  71.8452830  25.0427330  29.5950110  71.7611150  24.4499990  30.9855010
  65.5806510  28.9843450  29.0827740  66.0951180  28.8951460  29.8850170
  64.7375590  29.3303150  29.3755650  67.5560910  29.2698790  18.5111740
  67.3962050  28.9801730  19.4093570  67.3907620  28.4938920  17.9756970
  60.0349290  29.0497320  20.2883360  59.8591770  28.1332860  20.0751160
  59.1805030  29.4084610  20.5281160  67.2587040  26.7786350  17.0709740
  66.5652200  26.7763640  16.4112020  68.0009900  26.3545670  16.6403910
  66.8236970  28.4049060  21.1458230  67.2793920  27.6238440  21.4596850
  67.1629490  29.1155880  21.6899410  71.5713780  17.3347910  31.4782670
  70.9558050  17.8427580  30.9498130  71.2510200  16.4346240  31.4208610
  54.5739520  24.1765520  28.3048970  54.7370560  23.7070880  27.4868340
  55.0391970  23.6689080  28.9697810  59.3458290  13.3071280  23.3409540
  58.9026440  14.0880820  23.0094060  59.9043280  13.6301170  24.0480480
  63.6328100  16.1739800  28.9444860  63.1707470  16.3822820  29.7564800
  63.2306210  15.3599150  28.6415530  68.6332610  17.3948750  30.0741520
  67.7826200  17.0954500  30.3950590  68.4734400  17.6390760  29.1625340
  65.7282320  18.8950500  32.1740310  66.0535730  18.0614250  31.8342540
  66.5162650  19.4179020  32.3218640  62.4617110  12.9281980  18.2215370
  61.8371290  12.9241850  18.9468680  62.3747230  12.0612940  17.8251340
  61.3834190  13.8518610  25.1999140  61.6806520  14.7581440  25.1191160
  61.9319750  13.3637390  24.5858710  59.1372510  18.4304850  21.0690790
  58.9113430  18.2142020  21.9737410  58.3565040  18.8633310  20.7236760
  66.3670270  18.4368220  19.6681440  65.7679160  19.1604020  19.4845060
  66.9149880  18.3745000  18.8857890  61.5771720  19.3290430  31.7351060
  61.4815320  18.3885160  31.5851460  62.4203700  19.5505500  31.3399130
  64.9735140  17.0731760  21.6984720  65.3664710  17.3903960  20.8853410
  65.3351990  16.1943640  21.8129240  56.7082260  15.7404100  29.8884840
  56.3145650  16.5879310  30.0957620  56.0200660  15.1030470  30.0793480
  63.2827310  15.8239070  32.9581580  62.5925630  15.6311270  33.5927670
  64.0259610  16.1073710  33.4905880  54.0099310  13.6632560  23.9214920
  53.7212360  14.2335420  24.6339900  54.7545070  13.1837010  24.2846150
  54.1969540  17.6052680  15.1317640  54.1144210  18.5483440  15.2732630
  53.8452600  17.4627590  14.2529990  65.5590280  19.6637510  25.7935500
  64.8271400  20.1724320  26.1425600  65.1614620  18.8467490  25.4924280
  61.9967670  16.3391710  24.1987990  62.0003730  15.8981660  23.3492530
  62.8918790  16.6609040  24.3059810  57.8470050  16.2218200  23.1582200
  57.5070100  16.6993430  23.9149250  57.0847370  15.7683320  22.7983300
  62.0587820  17.3403790  17.1894750  62.1800640  17.2990270  18.1380570
  61.6736330  18.2027940  17.0341480  66.0216190  15.1171190  25.2058440
  66.0388930  15.5679840  26.0500290  65.7731770  14.2176830  25.4191880
  61.0709320  19.6504930  16.5878050  60.5026220  19.2023180  15.9613960
  61.7798320  20.0097710  16.0543200  69.4486940  12.5303370  31.0444820
  69.7732710  11.7993030  31.5702800  69.4843450  12.2117010  30.1425810
  56.1478500  23.5516950  30.4644780  55.7633290  22.9110620  31.0627740
  56.4590690  24.2553070  31.0339510  62.2975640  20.3993490  25.9453400
  62.6645770  19.9252060  26.6914740  62.1080700  21.2735060  26.2861740
  55.1616130  15.1437180  22.0746870  54.8763050  14.7792850  22.9125490
  55.0994990  14.4117640  21.4610010  60.0875010  19.4402130  28.2637610
  59.7832080  20.3194110  28.4887970  61.0421470  19.5001920  28.2995050
  58.6156800  23.6463120  18.8604460  57.8419060  23.1060740  18.7003180
  59.3451430  23.1269730  18.5222220  69.3744780  22.6428480  24.6530850
  70.0943900  23.1383770  24.2626960  69.1726600  21.9646370  24.0084720
  64.8354720  14.0366440  18.7960240  64.0219330  13.5379610  18.7205550
  64.6416670  14.8764690  18.3796590  64.7563580  22.7137540  30.5399850
  64.6900890  21.7933210  30.2857440  64.1268720  22.8112980  31.2544490
  67.5503110  18.4086090  17.0922400  68.4382730  18.7203320  16.9173740
  67.5208200  17.5358340  16.7002980  58.6594200  23.3143500  22.4983270
  59.1772870  22.5111760  22.4440160  58.2078220  23.2522640  23.3400100
  63.5463700  24.5809780  17.7710570  63.8879400  25.3252010  17.2753890
  62.7176410  24.8940900  18.1335400  56.1438740  20.2804870  29.4108970
  55.7853680  20.9458720  29.9982310  55.8493300  19.4488420  29.7821590
  59.3451860  20.7389110  32.2948520  59.0452000  20.8846290  31.3976340
  60.1163100  20.1794400  32.2021910  64.6880310  25.5358110  30.2903650
  64.7024850  24.6039070  30.0722560  63.9805410  25.6217870  30.9293420
  69.8217380  19.7197930  16.5602260  69.7381100  20.1512150  15.7098700
  70.5411570  20.1796280  16.9929080  70.8991520  22.1765450  29.6372230
  70.1739710  22.7694230  29.4401620  71.4266980  22.1688990  28.8385600
  70.8504630  26.5740190  19.2884390  70.2080790  25.9195810  19.5628110
  70.4635290  26.9795280  18.5125060  66.4291110  23.9025620  23.1356080
  66.7814930  23.3053750  22.4757450  65.5453440  23.5769850  23.3064330
  62.5154390  24.6623310  20.5426490  63.2025520  25.2092520  20.9234080
  61.7286810  25.2064040  20.5776100  54.6546790  20.2796130  16.0343570
  55.5241640  20.5620930  16.3179490  54.1637110  21.0932000  15.9192380
  61.8181600  21.6669340  20.1551850  62.2744380  22.4774590  20.3812040
  61.4669810  21.3492480  20.9870340  64.1214210  27.1775680  27.3844150
  64.7656430  27.3835060  28.0617570  64.4843650  26.4164080  26.9315000
  57.7193380  12.0106990  20.6274370  57.5908010  12.0024890  21.5759290
  56.8955400  12.3490080  20.2765380  65.3946290  25.1808030  26.1021600
  66.0368520  24.4801190  26.2153770  65.9195640  25.9606470  25.9218490
  69.2402010  25.4656650  15.8260740  69.0139590  24.7487090  16.4185380
  68.8498210  25.2169090  14.9882490  67.1683910  25.9802930  29.3057660
  67.5040150  26.5669620  29.9835580  66.2484250  25.8495640  29.5355450
  55.0218040  29.4923510  16.6005200  55.3815680  30.0912850  15.9462470
  54.8810380  30.0383400  17.3740230  54.7187310  13.7698110  30.0881070
  54.0045830  13.9695030  30.6933680  55.1382350  12.9937680  30.4595870
  68.8218260  23.3828590  17.4874900  68.5339960  23.8441280  18.2752780
  69.6170430  22.9226360  17.7559120  55.0059900  27.7578370  31.0747600
  55.1151020  26.8173110  30.9342990  54.3540460  28.0233120  30.4261330
  62.9972490  26.0294260  32.4745720  62.6769360  25.3103500  33.0191410
  62.3230850  26.7049330  32.5481780  61.0386660  26.8754710  17.4178870
  61.0296760  27.6084400  16.8023380  60.1185020  26.6286290  17.5105830
  56.6393300  22.0969600  18.1625630  56.0321250  22.8368500  18.1720930
  57.1142650  22.1868960  17.3363830  66.2126090  16.2620420  27.8382520
  66.5806910  15.4415630  28.1662090  65.3524290  16.3222310  28.2538170
  69.5788120  15.2177360  18.6470080  68.9501280  15.3223030  17.9328310
  69.0840040  15.4374140  19.4363960  64.0246260  26.9382950  16.0804060
  64.1258240  26.7346940  15.1506040  63.1248000  26.6841230  16.2851840
  61.5472150  17.4963310  20.0627960  60.8388300  17.9649650  20.5041570
  61.8316630  16.8385320  20.6973150  63.1728080  18.9160010  28.0620490
  63.6713330  19.3905830  28.7272340  63.3151030  17.9923530  28.2690520
  65.5787580  14.2213970  21.5023750  65.4555360  14.2400100  20.5533260
  66.5272140  14.2692910  21.6222150  62.6664370  29.4569270  20.7751730
  62.9205870  29.4190660  19.8531100  61.7176850  29.3302600  20.7679980
  59.7507170  15.8048390  17.4378670  60.5997700  16.2418540  17.3718860
  59.3838440  16.1168650  18.2650730  70.3794940  15.1327970  28.9048880
  69.8768540  15.8733370  29.2442690  71.1951600  15.5211970  28.5885670
  68.6716950  20.3761150  22.3510240  67.7307090  20.3911380  22.5257930
  68.9861020  19.5897110  22.7970540  58.6498590  22.0580750  15.9114200
  59.4161860  21.9462110  16.4739630  58.7273280  21.3618720  15.2590970
  57.3445350  19.4905820  16.5947090  57.4248940  18.5433330  16.7064490
  58.2365100  19.8212700  16.7007750  70.6742530  27.5470000  24.0264500
  70.7989950  28.3701170  24.4988310  71.5408090  27.3360730  23.6788650
  58.1460060  29.6401210  23.6981630  58.8822540  29.0916670  23.9690200
  58.5300980  30.5057220  23.5587620  55.0305540  25.7074780  19.5723140
  54.1045320  25.9495920  19.5628550  55.4961970  26.5349040  19.4507890
  57.1518340  28.8247280  32.8867210  57.9531070  29.1459330  33.3002610
  56.6370160  28.4642860  33.6087120  61.2562370  28.8131520  15.5207200
  62.0490980  29.1020350  15.0688990  60.7366720  28.3823690  14.8419680
  65.9882970  24.9327150  32.8342620  65.3821130  24.9558750  32.0938370
  65.6837080  24.2010190  33.3709870  67.4183340  28.6607440  31.4452030
  68.3705090  28.5765460  31.3952270  67.2711560  29.3249150  32.1185820
  70.3092540  28.0401650  16.9443940  70.0234050  27.6266790  16.1298120
  70.1112090  28.9689360  16.8244460  54.8716150  21.3120740  31.8303260
  55.3755170  20.7328020  32.4019490  54.1323570  21.5960970  32.3679630
  61.7739770  24.0334930  15.3849550  61.6690410  23.4187280  16.1110930
  61.6063990  23.5100820  14.6012560  61.9254090  22.7191730  31.3638780
  61.1599760  23.2876730  31.2793450  62.1070050  22.4267940  30.4707010
  65.0142500  23.0954960  15.9891540  64.4652600  23.5424260  16.6334280
  65.6361760  22.5904210  16.5129210  69.0677440  24.4497060  31.9213800
  69.8086910  24.7872820  31.4181260  68.3050120  24.6189120  31.3683570
  56.9039230  19.4550330  32.7253330  56.9444570  19.1564200  33.6338560
  57.7584730  19.8557940  32.5660850  60.6817620  22.0545880  17.8856840
  61.1034040  21.8885750  18.7288230  60.8068460  21.2446110  17.3911980
  58.8445040  18.0342430  30.6927820  58.3141500  17.5433380  30.0651160
  59.5133110  18.4626630  30.1585750  63.1945260  21.0783490  15.1333940
  63.7150920  20.3632510  14.7675090  63.8413660  21.7169360  15.4334450
  67.7423100  22.5011890  30.4569010  68.1564120  22.6556970  31.3059430
  66.8074100  22.6267110  30.6194790  68.2145270  19.8408050  32.4608160
  68.7966040  19.0860370  32.3728640  68.3907040  20.3715490  31.6839640
  59.3317340  15.0004800  30.7725110  59.2374210  14.3825550  30.0475980
  58.7514730  15.7271090  30.5455020  62.0978780  13.5578040  27.8052500
  61.6496080  13.5802300  26.9598050  61.4643980  13.1597060  28.4022800
  62.5038330  22.4532370  28.4264940  62.9226440  23.2965100  28.2541180
  61.5846960  22.5904410  28.1971720  64.8402230  20.1848550  29.8102780
  64.9598440  19.5889690  30.5497620  65.6996230  20.2218240  29.3904080
  67.1790130  20.7385740  28.3865290  66.6525350  21.2628360  27.7830430
  67.5221470  21.3713130  29.0175020  59.5776520  18.1279110  14.8315000
  59.3765580  17.2646470  15.1928340  59.4068570  18.0412470  13.8936600
  60.3545750  28.7585380  29.5422670  59.8166840  29.4831440  29.2231370
  60.6079710  28.2815720  28.7520010  61.6071000  16.7269900  31.0678600
  62.1970690  16.4185750  31.7556420  60.7891240  16.2549650  31.2238500
  66.4264430  16.3435710  31.3011620  65.7379950  15.6817250  31.2361610
  67.1470450  15.8973980  31.7460080  67.0564830  12.9387340  17.3601880
  67.3367120  12.0955240  17.7161300  66.2830560  13.1710450  17.8740630
  58.3759320  15.2279730  14.8192880  58.6785220  15.2347160  13.9112030
  59.1153910  14.8777590  15.3160540  63.2107960  29.9936590  29.8009320
  63.1366660  30.8971730  30.1081690  62.3086800  29.6748490  29.7731390
  61.5944250  14.1714350  15.8049080  61.2466250  13.4938340  15.2251530
  61.7957020  13.7103860  16.6192470  63.7593290  29.1595100  17.4235680
  64.6544080  29.4980070  17.4454440  63.7910920  28.4374510  16.7959960
  57.3989450  24.5322150  15.6522680  57.8364320  25.0751820  16.3080260
  57.8837180  23.7069100  15.6619020  54.6135250  27.3211180  23.1042940
  54.9438260  26.4532240  22.8721580  55.0426250  27.5269700  23.9347900
  59.2097170  25.6520190  20.7644910  58.9092710  25.5285160  21.6648820
  59.1034660  24.7928780  20.3560640  55.1025460  28.1881770  25.8424570
  54.6656450  28.3682570  26.6748720  55.6703140  28.9456390  25.7006290
  70.7387640  27.6898770  30.1301880  70.1389630  27.7491330  29.3865800
  70.8681540  26.7503750  30.2598730  71.9789090  25.4316590  15.4671590
  71.1482050  25.4993240  15.9378820  72.1560920  26.3220710  15.1638450
  71.4345550  22.1764070  17.9705790  72.1964460  22.7460720  18.0765480
  71.4499920  21.6091270  18.7414100  54.9349890  20.7002000  22.2013450
  54.2798730  20.4313640  21.5573150  55.7727840  20.5906480  21.7515430
  72.4405520  23.0314170  22.8147720  72.8114350  22.2481490  22.4083690
  73.0807450  23.7203270  22.6365020  69.4239280  24.4150750  28.2278040
  68.6099120  24.8447910  28.4903830  69.8313480  25.0269160  27.6147090
  71.4864720  22.4698440  15.1278310  71.7613560  23.3777320  14.9997530
  71.2975460  22.4060970  16.0640300  67.8840330  15.4943290  16.4231940
  68.3025210  15.3074270  15.5828600  67.5776390  14.6422340  16.7334870
  71.3830060  20.4067430  20.1207740  71.0073660  19.6395360  19.6889030
  70.6533180  20.7890130  20.6082670  55.9725820  21.0854570  26.7416790
  56.3398860  20.9981970  27.6212810  55.4036640  20.3221120  26.6423650
  70.7729680  19.5538950  29.7547260  70.5415770  19.3251700  28.8545210
  71.0334230  20.4738500  29.7092150  55.5241820  17.9963660  30.6475210
  54.6297870  17.9630420  30.9868920  56.0639370  18.1950450  31.4126460
  69.2117750  14.7795380  32.5326960  70.0887930  14.7878780  32.9160960
  69.2238590  14.0426220  31.9219310  54.1487970  17.9100930  18.1438780
  53.2452050  18.1731130  17.9690440  54.6328590  18.1812100  17.3638740
  70.6581020  18.6324920  23.4214980  71.1818500  18.1387570  22.7905150
  71.2440440  18.7675280  24.1662550  70.8370740  18.7164790  26.9434530
  69.8873450  18.6828330  27.0579520  71.0183750  19.6264900  26.7084300
  56.6915180  16.9666470  16.0533160  57.4006880  16.5449690  15.5680440
  55.9755120  17.0341700  15.4216510  56.3389340  13.0205800  15.0935810
  57.0617470  13.5614740  15.4117030  56.6113860  12.7469220  14.2177350
  70.1480990  17.8898270  19.3607390  70.6440110  17.6569140  20.1456270
  69.9497060  17.0510110  18.9445030  56.0281530  12.2711990  24.9958430
  56.6757720  11.7209370  24.5553590  56.4483370  12.5255140  25.8174240
  71.5768150  16.5259220  21.8945070  71.4667430  16.3715260  22.8327340
  72.3375740  15.9980160  21.6520480  69.9233870  12.4653350  28.3528070
  70.5606090  13.0787490  28.7187260  70.0708760  12.5014010  27.4077300
  72.4658420  14.3567140  15.1351210  73.3907730  14.2248320  14.9269500
  72.4434210  14.4359960  16.0887660  72.5396910  15.1277800  17.7607920
  71.7448410  15.0622920  18.2900830  72.7440190  16.0628440  17.7493270
  69.4815330  29.1669350  21.7546310  70.0774400  28.8453920  21.0780730
  69.7393480  28.6941170  22.5459580  55.7813530  12.4267660  27.7383750
  55.4328350  12.8831480  28.5041930  55.4501230  11.5324790  27.8206180
  57.3877900  25.5987260  31.9036940  57.3447530  25.2280170  32.7851400
  57.5188910  26.5364830  32.0438760  61.0883930  27.1546850  27.5046660
  60.8475290  27.4221410  26.6177180  62.0286570  27.3252580  27.5597520
  63.2938350  13.6179540  31.2603170  63.2327240  14.2101370  32.0098580
  64.2338730  13.5105500  31.1153430  65.9312910  13.2749600  30.8995460
  66.5453320  13.5928890  30.2376540  66.4762470  12.7898190  31.5191320
  72.3488090  29.1741230  28.3057300  71.8546370  29.5710100  27.5884430
  71.7401380  28.5490440  28.6994580  56.4534170  11.9543860  31.0134520
  57.0017160  11.7731910  30.2500630  56.5189480  11.1637970  31.5490830
  57.2265930  28.5449510  29.0234720  56.6326250  28.4134210  29.7624760
  57.2189770  27.7087650  28.5576820  66.6720950  11.8381740  27.2264750
  65.7980790  12.1716850  27.0237680  66.5631700  11.3654920  28.0516620
  67.5792930  14.0452610  28.6106470  67.2506290  13.2304370  28.2308200
  68.5275230  14.0022420  28.4872160  70.0327540  29.8164650  25.5844040
  69.5730510  30.5680460  25.2102060  69.4040000  29.0971120  25.5258840
  56.8578160  25.9107890  27.9742760  56.1312220  25.2913180  27.9068710
  56.9187310  26.3048500  27.1040840  60.4623260  28.1252890  24.7592170
  60.9788280  27.5140250  24.2340430  61.1120640  28.6281670  25.2503180
  63.2018760  29.0161380  25.5861150  63.4896570  28.7615680  24.7094160
  63.7141980  28.4638740  26.1766720  64.4195770  12.7551580  26.1657660
  63.6367560  13.2297080  26.4454420  64.1258700  11.8506410  26.0570840
  68.9716840  13.4574680  24.2106750  69.4124930  13.4019780  23.3628350
  68.7024430  14.3732690  24.2816930  70.8355410  13.0889920  22.2215570
  70.7743810  12.1451140  22.0746590  71.6147440  13.1970010  22.7669030
  55.1408160  29.2282280  21.1839520  54.9730200  28.5952960  21.8821410
  54.2742670  29.4341680  20.8333710  55.7636180  13.0599060  18.6871380
  56.5215540  13.1727940  18.1135410  55.3013350  13.8968260  18.6414810
  62.3049990  15.1738330  21.6773690  61.4924500  14.7995220  21.3369570
  62.8091630  14.4183410  21.9794880  66.8074970  11.8380780  22.9156760
  67.4104340  12.4100990  23.3905280  66.0667960  12.4020220  22.6930660
  69.9509570  12.2402340  18.1897040  70.1460200  13.1385790  18.4564470
  69.1639440  12.0089420  18.6829990  56.7470860  27.9215510  18.6289660
  56.2218480  28.3023540  17.9251620  56.6715440  28.5466280  19.3499370
  58.1361330  13.5863110  17.2273350  58.6654090  12.7992910  17.0981300
  58.7689650  14.2654300  17.4608880  60.3299170  13.3238250  20.2818740
  59.7001910  12.6225560  20.4488870  59.7904310  14.0842380  20.0651900
  63.2691120  29.9377480  32.9529350  64.1958430  29.7021750  32.9965310
  63.2541550  30.7649480  32.4715380  71.5036180  29.4803050  19.9503600
  71.6788370  28.7940790  19.3064520  70.8057750  30.0050100  19.5580270
  60.4554730  12.6022230  32.7171230  60.1739000  13.1055830  31.9532050
  60.8374430  11.8043980  32.3513360  59.3463830  29.8697890  17.5038910
  60.0782650  29.5857170  16.9562800  59.6057500  29.6311170  18.3938290
  58.5078620  25.9862620  17.5085240  57.8787500  26.4547720  18.0571070
  58.6226450  25.1411840  17.9431430  67.0570190  12.0175810  33.2951700
  66.9435640  12.3370420  34.1903220  67.8739930  12.4188320  32.9988980
  69.8368680  29.1647340  32.7770390  70.6294000  28.6696570  32.5696350
  70.1301830  29.8437480  33.3846000  65.9628340  20.0368280   3.6586440
  65.8822390  19.1222890   3.3878150  65.5492760  20.5335350   2.9526150
  64.0946380  21.8147300   5.5395710  63.3188480  21.3347740   5.8294280
  64.7459310  21.1352950   5.3651870  58.1112210  22.1267110   6.4171470
  57.2797090  21.8715820   6.8167980  58.7193190  22.1977880   7.1529390
  68.1153810  26.2207490   4.3194840  67.6535340  25.4494730   4.6482010
  68.9279360  26.2473560   4.8247290  58.0913470  26.1607200   6.6129490
  58.3941510  25.2704940   6.4339710  58.8357060  26.7177420   6.3851740
  54.4837170  19.6874650   6.0853560  55.0553280  18.9196850   6.0857200
  54.4838710  19.9863410   5.1760170  64.3417120  28.5065500   3.9398830
  63.7228560  28.9623000   3.3693270  65.1968900  28.6616960   3.5388530
  63.5355370  24.4904490   5.5465870  63.4663650  23.5494430   5.3855000
  64.2975230  24.5805900   6.1188440  55.7262040  15.0959010   7.8722490
  55.5464880  14.1984760   8.1525250  55.3242120  15.6430880   8.5469440
  64.5660540  17.2974870   5.7734800  64.9425360  16.4246750   5.6608470
  64.4680050  17.6333570   4.8825240  68.3484660  14.7925310   2.7063140
  69.1694280  14.3021880   2.7488620  68.3818740  15.3822970   3.4594980
  56.3448710  17.5919510   6.4804830  57.0258820  17.8557880   7.0992230
  56.0296760  16.7520380   6.8142840  60.5373280  18.6386870   5.5677420
  61.0451500  19.1367840   6.2082440  61.0686520  17.8622070   5.3916780
  72.6384210  16.8092060   9.2706770  71.9336380  17.1973770   8.7521880
  72.9042130  17.5042350   9.8727700  58.8209380  13.2785430   9.8340840
  58.8227820  13.7957820   9.0286740  57.9913690  12.8015610   9.8110770
  60.0712230  22.9180610   8.0114340  59.7381610  23.5449530   8.6535410
  60.2478910  23.4442490   7.2316010  68.5846140  16.7325690   5.4790680
  67.8801710  17.0210580   6.0593790  68.9458300  17.5425800   5.1190240
  58.5024710  14.9895390   7.8411290  58.8441520  15.8337440   7.5465160
  57.5640520  15.1379130   7.9576630  59.2831330  24.8861410   9.8263520
  59.9005330  25.5612490   9.5447970  58.4224450  25.2949390   9.7351020
  70.2008920  26.3500820   7.7418160  69.5172440  27.0199930   7.7334830
  70.7403210  26.5481470   6.9763020  71.6533060  16.1780480   5.8699890
  70.7057970  16.2119460   6.0015320  71.9783050  16.9919430   6.2549250
  62.1852600  12.4777660   4.1655880  62.4927580  11.9224550   3.4491380
  61.2553300  12.6122120   3.9828870  67.7367660  28.1944950   6.4563340
  67.7494820  27.7907240   5.5885600  67.1842880  28.9692240   6.3524770
  67.1353100  23.0974790   7.7845950  67.5521890  22.8834900   6.9499410
  67.8592920  23.3547580   8.3554570  71.0815200  21.4962010   7.8762190
  70.2533830  21.5655100   7.4012320  71.6765680  22.0816320   7.4078020
  68.0457210  18.2831330   8.8217060  67.6328390  19.1085040   9.0757050
  67.3133160  17.6976370   8.6293420  60.1790000  21.0691230   3.6835730
  59.7747000  20.3568480   3.1881630  60.2653120  20.7244470   4.5723770
  60.6471700  24.7558790   5.8474940  60.3499990  24.1504260   5.1682720
  61.5971520  24.7936100   5.7364300  58.8918620  17.8434440   7.4634770
  59.4433210  17.9529780   6.6888020  59.4062130  18.2172040   8.1790000
  68.7357310  28.3290660   9.5098040  68.2587870  29.1362850   9.3170650
  68.0519100  27.6768990   9.6624250  59.7390130  24.4940480  12.4982740
  58.8418660  24.7180450  12.7456140  59.7643000  24.6175420  11.5494140
  58.5661350  21.3653800  11.0740110  58.4269120  22.2376600  11.4427510
  57.6842710  21.0226610  10.9288050  64.8890730  26.2829670   2.3805240
  65.3286640  27.0254000   1.9660630  64.8277620  26.5256240   3.3044200
  60.3641700  27.3075500  13.2825260  60.3357130  27.7118450  12.4153690
  60.2006670  26.3785860  13.1196860  72.3156520  28.0902600  14.5789430
  72.7916240  28.5685490  15.2578510  72.9363680  28.0220090  13.8534930
  54.5180000  23.1351350   6.9911020  54.5960420  23.2700120   6.0466740
  55.1321680  22.4267240   7.1839140  55.7627630  24.8351540   3.4017200
  55.3555710  24.9766130   2.5470800  56.6540640  24.5511700   3.1988410
  71.7189770  25.2815450  11.7389440  71.8452830  25.0427330  10.8206620
  71.7611150  24.4499990  12.2111520  65.5806510  28.9843450  10.3084250
  66.0951180  28.8951460  11.1106680  64.7375590  29.3303150  10.6012160
  66.8236970  28.4049060   2.3714740  67.2793920  27.6238440   2.6853360
  67.1629490  29.1155880   2.9155920  71.5713780  17.3347910  12.7039180
  70.9558050  17.8427580  12.1754640  71.2510200  16.4346240  12.6465120
  54.5739520  24.1765520   9.5305480  54.7370560  23.7070880   8.7124850
  55.0391970  23.6689080  10.1954320  59.3458290  13.3071280   4.5666050
  58.9026440  14.0880820   4.2350570  59.9043280  13.6301170   5.2736990
  63.6328100  16.1739800  10.1701370  63.1707470  16.3822820  10.9821310
  63.2306210  15.3599150   9.8672040  68.6332610  17.3948750  11.2998030
  67.7826200  17.0954500  11.6207100  68.4734400  17.6390760  10.3881850
  65.7282320  18.8950500  13.3996820  66.0535730  18.0614250  13.0599050
  66.5162650  19.4179020  13.5475150  61.3834190  13.8518610   6.4255650
  61.6806520  14.7581440   6.3447670  61.9319750  13.3637390   5.8115220
  59.1372510  18.4304850   2.2947300  58.9113430  18.2142020   3.1993920
  58.3565040  18.8633310   1.9493270  61.5771720  19.3290430  12.9607570
  61.4815320  18.3885160  12.8107970  62.4203700  19.5505500  12.5655640
  64.9735140  17.0731760   2.9241230  65.3664710  17.3903960   2.1109920
  65.3351990  16.1943640   3.0385750  56.7082260  15.7404100  11.1141350
  56.3145650  16.5879310  11.3214130  56.0200660  15.1030470  11.3049990
  63.2827310  15.8239070  14.1838090  62.5925630  15.6311270  14.8184180
  64.0259610  16.1073710  14.7162390  54.0099310  13.6632560   5.1471430
  53.7212360  14.2335420   5.8596410  54.7545070  13.1837010   5.5102660
  65.5590280  19.6637510   7.0192010  64.8271400  20.1724320   7.3682110
  65.1614620  18.8467490   6.7180790  61.9967670  16.3391710   5.4244500
  62.0003730  15.8981660   4.5749040  62.8918790  16.6609040   5.5316320
  57.8470050  16.2218200   4.3838710  57.5070100  16.6993430   5.1405760
  57.0847370  15.7683320   4.0239810  66.0216190  15.1171190   6.4314950
  66.0388930  15.5679840   7.2756800  65.7731770  14.2176830   6.6448390
  69.4486940  12.5303370  12.2701330  69.7732710  11.7993030  12.7959310
  69.4843450  12.2117010  11.3682320  56.1478500  23.5516950  11.6901290
  55.7633290  22.9110620  12.2884250  56.4590690  24.2553070  12.2596020
  62.2975640  20.3993490   7.1709910  62.6645770  19.9252060   7.9171250
  62.1080700  21.2735060   7.5118250  55.1616130  15.1437180   3.3003380
  54.8763050  14.7792850   4.1382000  55.0994990  14.4117640   2.6866520
  60.0875010  19.4402130   9.4894120  59.7832080  20.3194110   9.7144480
  61.0421470  19.5001920   9.5251560  69.3744780  22.6428480   5.8787360
  70.0943900  23.1383770   5.4883470  69.1726600  21.9646370   5.2341230
  64.7563580  22.7137540  11.7656360  64.6900890  21.7933210  11.5113950
  64.1268720  22.8112980  12.4801000  58.6594200  23.3143500   3.7239780
  59.1772870  22.5111760   3.6696670  58.2078220  23.2522640   4.5656610
  56.1438740  20.2804870  10.6365480  55.7853680  20.9458720  11.2238820
  55.8493300  19.4488420  11.0078100  59.3451860  20.7389110  13.5205030
  59.0452000  20.8846290  12.6232850  60.1163100  20.1794400  13.4278420
  64.6880310  25.5358110  11.5160160  64.7024850  24.6039070  11.2979070
  63.9805410  25.6217870  12.1549930  70.8991520  22.1765450  10.8628740
  70.1739710  22.7694230  10.6658130  71.4266980  22.1688990  10.0642110
  66.4291110  23.9025620   4.3612590  66.7814930  23.3053750   3.7013960
  65.5453440  23.5769850   4.5320840  62.5154390  24.6623310   1.7683000
  63.2025520  25.2092520   2.1490590  61.7286810  25.2064040   1.8032610
  64.1214210  27.1775680   8.6100660  64.7656430  27.3835060   9.2874080
  64.4843650  26.4164080   8.1571510  65.3946290  25.1808030   7.3278110
  66.0368520  24.4801190   7.4410280  65.9195640  25.9606470   7.1475000
  67.1683910  25.9802930  10.5314170  67.5040150  26.5669620  11.2092090
  66.2484250  25.8495640  10.7611960  54.7187310  13.7698110  11.3137580
  54.0045830  13.9695030  11.9190190  55.1382350  12.9937680  11.6852380
  55.0059900  27.7578370  12.3004110  55.1151020  26.8173110  12.1599500
  54.3540460  28.0233120  11.6517840  62.9972490  26.0294260  13.7002230
  62.6769360  25.3103500  14.2447920  62.3230850  26.7049330  13.7738290
  66.2126090  16.2620420   9.0639030  66.5806910  15.4415630   9.3918600
  65.3524290  16.3222310   9.4794680  63.1728080  18.9160010   9.2877000
  63.6713330  19.3905830   9.9528850  63.3151030  17.9923530   9.4947030
  65.5787580  14.2213970   2.7280260  65.4555360  14.2400100   1.7789770
  66.5272140  14.2692910   2.8478660  70.3794940  15.1327970  10.1305390
  69.8768540  15.8733370  10.4699200  71.1951600  15.5211970   9.8142180
  68.6716950  20.3761150   3.5766750  67.7307090  20.3911380   3.7514440
  68.9861020  19.5897110   4.0227050  70.6742530  27.5470000   5.2521010
  70.7989950  28.3701170   5.7244820  71.5408090  27.3360730   4.9045160
  58.1460060  29.6401210   4.9238140  58.8822540  29.0916670   5.1946710
  58.5300980  30.5057220   4.7844130  57.1518340  28.8247280  14.1123720
  57.9531070  29.1459330  14.5259120  56.6370160  28.4642860  14.8343630
  65.9882970  24.9327150  14.0599130  65.3821130  24.9558750  13.3194880
  65.6837080  24.2010190  14.5966380  67.4183340  28.6607440  12.6708540
  68.3705090  28.5765460  12.6208780  67.2711560  29.3249150  13.3442330
  54.8716150  21.3120740  13.0559770  55.3755170  20.7328020  13.6276000
  54.1323570  21.5960970  13.5936140  61.9254090  22.7191730  12.5895290
  61.1599760  23.2876730  12.5049960  62.1070050  22.4267940  11.6963520
  69.0677440  24.4497060  13.1470310  69.8086910  24.7872820  12.6437770
  68.3050120  24.6189120  12.5940080  56.9039230  19.4550330  13.9509840
  56.9444570  19.1564200  14.8595070  57.7584730  19.8557940  13.7917360
  58.8445040  18.0342430  11.9184330  58.3141500  17.5433380  11.2907670
  59.5133110  18.4626630  11.3842260  67.7423100  22.5011890  11.6825520
  68.1564120  22.6556970  12.5315940  66.8074100  22.6267110  11.8451300
  68.2145270  19.8408050  13.6864670  68.7966040  19.0860370  13.5985150
  68.3907040  20.3715490  12.9096150  59.3317340  15.0004800  11.9981620
  59.2374210  14.3825550  11.2732490  58.7514730  15.7271090  11.7711530
  62.0978780  13.5578040   9.0309010  61.6496080  13.5802300   8.1854560
  61.4643980  13.1597060   9.6279310  62.5038330  22.4532370   9.6521450
  62.9226440  23.2965100   9.4797690  61.5846960  22.5904410   9.4228230
  64.8402230  20.1848550  11.0359290  64.9598440  19.5889690  11.7754130
  65.6996230  20.2218240  10.6160590  67.1790130  20.7385740   9.6121800
  66.6525350  21.2628360   9.0086940  67.5221470  21.3713130  10.2431530
  60.3545750  28.7585380  10.7679180  59.8166840  29.4831440  10.4487880
  60.6079710  28.2815720   9.9776520  61.6071000  16.7269900  12.2935110
  62.1970690  16.4185750  12.9812930  60.7891240  16.2549650  12.4495010
  66.4264430  16.3435710  12.5268130  65.7379950  15.6817250  12.4618120
  67.1470450  15.8973980  12.9716590  63.2107960  29.9936590  11.0265830
  63.1366660  30.8971730  11.3338200  62.3086800  29.6748490  10.9987900
  54.6135250  27.3211180   4.3299450  54.9438260  26.4532240   4.0978090
  55.0426250  27.5269700   5.1604410  55.1025460  28.1881770   7.0681080
  54.6656450  28.3682570   7.9005230  55.6703140  28.9456390   6.9262800
  70.7387640  27.6898770  11.3558390  70.1389630  27.7491330  10.6122310
  70.8681540  26.7503750  11.4855240  54.9349890  20.7002000   3.4269960
  54.2798730  20.4313640   2.7829660  55.7727840  20.5906480   2.9771940
  72.4405520  23.0314170   4.0404230  72.8114350  22.2481490   3.6340200
  73.0807450  23.7203270   3.8621530  69.4239280  24.4150750   9.4534550
  68.6099120  24.8447910   9.7160340  69.8313480  25.0269160   8.8403600
  55.9725820  21.0854570   7.9673300  56.3398860  20.9981970   8.8469320
  55.4036640  20.3221120   7.8680160  70.7729680  19.5538950  10.9803770
  70.5415770  19.3251700  10.0801720  71.0334230  20.4738500  10.9348660
  55.5241820  17.9963660  11.8731720  54.6297870  17.9630420  12.2125430
  56.0639370  18.1950450  12.6382970  69.2117750  14.7795380  13.7583470
  70.0887930  14.7878780  14.1417470  69.2238590  14.0426220  13.1475820
  70.6581020  18.6324920   4.6471490  71.1818500  18.1387570   4.0161660
  71.2440440  18.7675280   5.3919060  70.8370740  18.7164790   8.1691040
  69.8873450  18.6828330   8.2836030  71.0183750  19.6264900   7.9340810
  56.0281530  12.2711990   6.2214940  56.6757720  11.7209370   5.7810100
  56.4483370  12.5255140   7.0430750  71.5768150  16.5259220   3.1201580
  71.4667430  16.3715260   4.0583850  72.3375740  15.9980160   2.8776990
  69.9233870  12.4653350   9.5784580  70.5606090  13.0787490   9.9443770
  70.0708760  12.5014010   8.6333810  69.4815330  29.1669350   2.9802820
  70.0774400  28.8453920   2.3037240  69.7393480  28.6941170   3.7716090
  55.7813530  12.4267660   8.9640260  55.4328350  12.8831480   9.7298440
  55.4501230  11.5324790   9.0462690  57.3877900  25.5987260  13.1293450
  57.3447530  25.2280170  14.0107910  57.5188910  26.5364830  13.2695270
  61.0883930  27.1546850   8.7303170  60.8475290  27.4221410   7.8433690
  62.0286570  27.3252580   8.7854030  63.2938350  13.6179540  12.4859680
  63.2327240  14.2101370  13.2355090  64.2338730  13.5105500  12.3409940
  65.9312910  13.2749600  12.1251970  66.5453320  13.5928890  11.4633050
  66.4762470  12.7898190  12.7447830  72.3488090  29.1741230   9.5313810
  71.8546370  29.5710100   8.8140940  71.7401380  28.5490440   9.9251090
  56.4534170  11.9543860  12.2391030  57.0017160  11.7731910  11.4757140
  56.5189480  11.1637970  12.7747340  57.2265930  28.5449510  10.2491230
  56.6326250  28.4134210  10.9881270  57.2189770  27.7087650   9.7833330
  66.6720950  11.8381740   8.4521260  65.7980790  12.1716850   8.2494190
  66.5631700  11.3654920   9.2773130  67.5792930  14.0452610   9.8362980
  67.2506290  13.2304370   9.4564710  68.5275230  14.0022420   9.7128670
  70.0327540  29.8164650   6.8100550  69.5730510  30.5680460   6.4358570
  69.4040000  29.0971120   6.7515350  56.8578160  25.9107890   9.1999270
  56.1312220  25.2913180   9.1325220  56.9187310  26.3048500   8.3297350
  60.4623260  28.1252890   5.9848680  60.9788280  27.5140250   5.4596940
  61.1120640  28.6281670   6.4759690  63.2018760  29.0161380   6.8117660
  63.4896570  28.7615680   5.9350670  63.7141980  28.4638740   7.4023230
  64.4195770  12.7551580   7.3914170  63.6367560  13.2297080   7.6710930
  64.1258700  11.8506410   7.2827350  68.9716840  13.4574680   5.4363260
  69.4124930  13.4019780   4.5884860  68.7024430  14.3732690   5.5073440
  70.8355410  13.0889920   3.4472080  70.7743810  12.1451140   3.3003100
  71.6147440  13.1970010   3.9925540  55.1408160  29.2282280   2.4096030
  54.9730200  28.5952960   3.1077920  54.2742670  29.4341680   2.0590220
  62.3049990  15.1738330   2.9030200  61.4924500  14.7995220   2.5626080
  62.8091630  14.4183410   3.2051390  66.8074970  11.8380780   4.1413270
  67.4104340  12.4100990   4.6161790  66.0667960  12.4020220   3.9187170
  63.2691120  29.9377480  14.1785860  64.1958430  29.7021750  14.2221820
  63.2541550  30.7649480  13.6971890  60.4554730  12.6022230  13.9427740
  60.1739000  13.1055830  13.1788560  60.8374430  11.8043980  13.5769870
  67.0570190  12.0175810  14.5208210  66.9435640  12.3370420  15.4159730
  67.8739930  12.4188320  14.2245490  69.8368680  29.1647340  14.0026900
  70.6294000  28.6696570  13.7952860  70.1301830  29.8437480  14.6102510
  64.0946380   3.0403810  99.4113160  63.3188480   2.5604250  99.7011730
  64.7459310   2.3609460  99.2369320  58.1112210   3.3523620 100.2888920
  57.2797090   3.0972330 100.6885430  58.7193190   3.4234390 101.0246840
  68.1153810   7.4464000  98.1912290  67.6535340   6.6751240  98.5199460
  68.9279360   7.4730070  98.6964740  58.0913470   7.3863710 100.4846940
  58.3941510   6.4961450 100.3057160  58.8357060   7.9433930 100.2569190
  64.3417120   9.7322010  97.8116280  63.7228560  10.1879510  97.2410720
  65.1968900   9.8873470  97.4105980  63.5355370   5.7161000  99.4183320
  63.4663650   4.7750940  99.2572450  64.2975230   5.8062410  99.9905890
  65.2080470   4.6161250  95.2048190  64.5897740   5.0810700  94.6410910
  65.7203720   5.3088730  95.6217700  60.0712230   4.1437120 101.8831790
  59.7381610   4.7706040 102.5252860  60.2478910   4.6699000 101.1033460
  54.5763670   5.3017780  92.5787820  54.1991650   5.7904880  91.8472720
  54.8336740   5.9743060  93.2094350  70.2008920   7.5757330 101.6135610
  69.5172440   8.2456440 101.6052280  70.7403210   7.7737980 100.8480470
  67.7367660   9.4201460 100.3280790  67.7494820   9.0163750  99.4603050
  67.1842880  10.1948750 100.2242220  69.0313080   6.1417680  95.4170960
  68.9209410   5.1992010  95.5420380  69.0281330   6.5033320  96.3033720
  67.1353100   4.3231300 101.6563400  67.5521890   4.1091410 100.8216860
  67.8592920   4.5804090 102.2272020  64.5733360   1.7683000  94.7733450
  63.6462640   1.7020380  95.0021920  64.7258180   2.7063130  94.6588690
  71.0815200   2.7218520 101.7479640  70.2533830   2.7911610 101.2729770
  71.6765680   3.3072830 101.2795470  68.6030650   3.3303300  95.2768700
  67.9843070   2.9922850  94.6295000  68.5855100   2.6863060  95.9847890
  60.1790000   2.2947740  97.5553180  59.7747000   1.5824990  97.0599080
  60.2653120   1.9500980  98.4441220  60.6471700   5.9815300  99.7192390
  60.3499990   5.3760770  99.0400170  61.5971520   6.0192610  99.6081750
  66.7795350   2.5690110  92.2841450  67.2188630   1.7312540  92.1379270
  67.4923770   3.2019510  92.3705590  64.8890730   7.5086180  96.2522690
  65.3286640   8.2510510  95.8378080  64.8277620   7.7512750  97.1761650
  54.5180000   4.3607860 100.8628470  54.5960420   4.4956630  99.9184190
  55.1321680   3.6523750 101.0556590  55.7627630   6.0608050  97.2734650
  55.3555710   6.2022640  96.4188250  56.6540640   5.7768210  97.0705860
  67.5560910  10.4955300  93.6085700  67.3962050  10.2058240  94.5067530
  67.3907620   9.7195430  93.0730930  60.0349290  10.2753830  95.3857320
  59.8591770   9.3589370  95.1725120  59.1805030  10.6341120  95.6255120
  67.2587040   8.0042860  92.1683700  66.5652200   8.0020150  91.5085980
  68.0009900   7.5802180  91.7377870  66.8236970   9.6305570  96.2432190
  67.2793920   8.8494950  96.5570810  67.1629490  10.3412390  96.7873370
  58.6156800   4.8719630  93.9578420  57.8419060   4.3317250  93.7977140
  59.3451430   4.3526240  93.6196180  69.3744780   3.8684990  99.7504810
  70.0943900   4.3640280  99.3600920  69.1726600   3.1902880  99.1058680
  58.6594200   4.5400010  97.5957230  59.1772870   3.7368270  97.5414120
  58.2078220   4.4779150  98.4374060  63.5463700   5.8066290  92.8684530
  63.8879400   6.5508520  92.3727850  62.7176410   6.1197410  93.2309360
  70.8504630   7.7996700  94.3858350  70.2080790   7.1452320  94.6602070
  70.4635290   8.2051790  93.6099020  66.4291110   5.1282130  98.2330040
  66.7814930   4.5310260  97.5731410  65.5453440   4.8026360  98.4038290
  62.5154390   5.8879820  95.6400450  63.2025520   6.4349030  96.0208040
  61.7286810   6.4320550  95.6750060  61.8181600   2.8925850  95.2525810
  62.2744380   3.7031100  95.4786000  61.4669810   2.5748990  96.0844300
  65.3946290   6.4064540 101.1995560  66.0368520   5.7057700 101.3127730
  65.9195640   7.1862980 101.0192450  69.2402010   6.6913160  90.9234700
  69.0139590   5.9743600  91.5159340  68.8498210   6.4425600  90.0856450
  55.0218040  10.7180020  91.6979160  55.3815680  11.3169360  91.0436430
  54.8810380  11.2639910  92.4714190  68.8218260   4.6085100  92.5848860
  68.5339960   5.0697790  93.3726740  69.6170430   4.1482870  92.8533080
  61.0386660   8.1011220  92.5152830  61.0296760   8.8340910  91.8997340
  60.1185020   7.8542800  92.6079790  56.6393300   3.3226110  93.2599590
  56.0321250   4.0625010  93.2694890  57.1142650   3.4125470  92.4337790
  64.0246260   8.1639460  91.1778020  64.1258240   7.9603450  90.2480000
  63.1248000   7.9097740  91.3825800  62.6664370  10.6825780  95.8725690
  62.9205870  10.6447170  94.9505060  61.7176850  10.5559110  95.8653940
  58.6498590   3.2837260  91.0088160  59.4161860   3.1718620  91.5713590
  58.7273280   2.5875230  90.3564930  70.6742530   8.7726510  99.1238460
  70.7989950   9.5957680  99.5962270  71.5408090   8.5617240  98.7762610
  58.1460060  10.8657720  98.7955590  58.8822540  10.3173180  99.0664160
  58.5300980  11.7313730  98.6561580  55.0305540   6.9331290  94.6697100
  54.1045320   7.1752430  94.6602510  55.4961970   7.7605550  94.5481850
  61.2562370  10.0388030  90.6181160  62.0490980  10.3276860  90.1662950
  60.7366720   9.6080200  89.9393640  70.3092540   9.2658160  92.0417900
  70.0234050   8.8523300  91.2272080  70.1112090  10.1945870  91.9218420
  61.7739770   5.2591440  90.4823510  61.6690410   4.6443790  91.2084890
  61.6063990   4.7357330  89.6986520  65.0142500   4.3211470  91.0865500
  64.4652600   4.7680770  91.7308240  65.6361760   3.8160720  91.6103170
  60.6817620   3.2802390  92.9830800  61.1034040   3.1142260  93.8262190
  60.8068460   2.4702620  92.4885940  63.1945260   2.3040000  90.2307900
  63.7150920   1.5889020  89.8649050  63.8413660   2.9425870  90.5308410
  63.7593290  10.3851610  92.5209640  64.6544080  10.7236580  92.5428400
  63.7910920   9.6631020  91.8933920  57.3989450   5.7578660  90.7496640
  57.8364320   6.3008330  91.4054220  57.8837180   4.9325610  90.7592980
  54.6135250   8.5467690  98.2016900  54.9438260   7.6788750  97.9695540
  55.0426250   8.7526210  99.0321860  59.2097170   6.8776700  95.8618870
  58.9092710   6.7541670  96.7622780  59.1034660   6.0185290  95.4534600
  55.1025460   9.4138280 100.9398530  54.6656450   9.5939080 101.7722680
  55.6703140  10.1712900 100.7980250  71.9789090   6.6573100  90.5645550
  71.1482050   6.7249750  91.0352780  72.1560920   7.5477220  90.2612410
  71.4345550   3.4020580  93.0679750  72.1964460   3.9717230  93.1739440
  71.4499920   2.8347780  93.8388060  54.9349890   1.9258510  97.2987410
  54.2798730   1.6570150  96.6547110  55.7727840   1.8162990  96.8489390
  72.4405520   4.2570680  97.9121680  72.8114350   3.4738000  97.5057650
  73.0807450   4.9459780  97.7338980  71.4864720   3.6954950  90.2252270
  71.7613560   4.6033830  90.0971490  71.2975460   3.6317480  91.1614260
  55.9725820   2.3111080 101.8390750  56.3398860   2.2238480 102.7186770
  55.4036640   1.5477630 101.7397610  69.4815330  10.3925860  96.8520270
  70.0774400  10.0710430  96.1754690  69.7393480   9.9197680  97.6433540
  61.0883930   8.3803360 102.6020620  60.8475290   8.6477920 101.7151140
  62.0286570   8.5509090 102.6571480  70.0327540  11.0421160 100.6818000
  69.5730510  11.7936970 100.3076020  69.4040000  10.3227630 100.6232800
  60.4623260   9.3509400  99.8566130  60.9788280   8.7396760  99.3314390
  61.1120640   9.8538180 100.3477140  63.2018760  10.2417890 100.6835110
  63.4896570   9.9872190  99.8068120  63.7141980   9.6895250 101.2740680
  55.1408160  10.4538790  96.2813480  54.9730200   9.8209470  96.9795370
  54.2742670  10.6598190  95.9307670  56.7470860   9.1472020  93.7263620
  56.2218480   9.5280050  93.0225580  56.6715440   9.7722790  94.4473330
  71.5036180  10.7059560  95.0477560  71.6788370  10.0197300  94.4038480
  70.8057750  11.2306610  94.6554230  59.3463830  11.0954400  92.6012870
  60.0782650  10.8113680  92.0536760  59.6057500  10.8567680  93.4912250
  58.5078620   7.2119130  92.6059200  57.8787500   7.6804230  93.1545030
  58.6226450   6.3668350  93.0405390  64.0946380   3.0403810  80.6369670
  63.3188480   2.5604250  80.9268240  64.7459310   2.3609460  80.4625830
  58.1112210   3.3523620  81.5145430  57.2797090   3.0972330  81.9141940
  58.7193190   3.4234390  82.2503350  68.1153810   7.4464000  79.4168800
  67.6535340   6.6751240  79.7455970  68.9279360   7.4730070  79.9221250
  58.0913470   7.3863710  81.7103450  58.3941510   6.4961450  81.5313670
  58.8357060   7.9433930  81.4825700  64.3417120   9.7322010  79.0372790
  63.7228560  10.1879510  78.4667230  65.1968900   9.8873470  78.6362490
  63.5355370   5.7161000  80.6439830  63.4663650   4.7750940  80.4828960
  64.2975230   5.8062410  81.2162400  65.2080470   4.6161250  76.4304700
  64.5897740   5.0810700  75.8667420  65.7203720   5.3088730  76.8474210
  60.0712230   4.1437120  83.1088300  59.7381610   4.7706040  83.7509370
  60.2478910   4.6699000  82.3289970  59.2831330   6.1117920  84.9237480
  59.9005330   6.7869000  84.6421930  58.4224450   6.5205900  84.8324980
  54.5763670   5.3017780  73.8044330  54.1991650   5.7904880  73.0729230
  54.8336740   5.9743060  74.4350860  70.2008920   7.5757330  82.8392120
  69.5172440   8.2456440  82.8308790  70.7403210   7.7737980  82.0736980
  67.7367660   9.4201460  81.5537300  67.7494820   9.0163750  80.6859560
  67.1842880  10.1948750  81.4498730  69.0313080   6.1417680  76.6427470
  68.9209410   5.1992010  76.7676890  69.0281330   6.5033320  77.5290230
  67.1353100   4.3231300  82.8819910  67.5521890   4.1091410  82.0473370
  67.8592920   4.5804090  83.4528530  64.5733360   1.7683000  75.9989960
  63.6462640   1.7020380  76.2278430  64.7258180   2.7063130  75.8845200
  71.0815200   2.7218520  82.9736150  70.2533830   2.7911610  82.4986280
  71.6765680   3.3072830  82.5051980  68.6030650   3.3303300  76.5025210
  67.9843070   2.9922850  75.8551510  68.5855100   2.6863060  77.2104400
  60.1790000   2.2947740  78.7809690  59.7747000   1.5824990  78.2855590
  60.2653120   1.9500980  79.6697730  60.6471700   5.9815300  80.9448900
  60.3499990   5.3760770  80.2656680  61.5971520   6.0192610  80.8338260
  68.7357310   9.5547170  84.6072000  68.2587870  10.3619360  84.4144610
  68.0519100   8.9025500  84.7598210  59.7390130   5.7196990  87.5956700
  58.8418660   5.9436960  87.8430100  59.7643000   5.8431930  86.6468100
  66.7795350   2.5690110  73.5097960  67.2188630   1.7312540  73.3635780
  67.4923770   3.2019510  73.5962100  58.5661350   2.5910310  86.1714070
  58.4269120   3.4633110  86.5401470  57.6842710   2.2483120  86.0262010
  64.8890730   7.5086180  77.4779200  65.3286640   8.2510510  77.0634590
  64.8277620   7.7512750  78.4018160  60.3641700   8.5332010  88.3799220
  60.3357130   8.9374960  87.5127650  60.2006670   7.6042370  88.2170820
  72.3156520   9.3159110  89.6763390  72.7916240   9.7942000  90.3552470
  72.9363680   9.2476600  88.9508890  54.5180000   4.3607860  82.0884980
  54.5960420   4.4956630  81.1440700  55.1321680   3.6523750  82.2813100
  55.7627630   6.0608050  78.4991160  55.3555710   6.2022640  77.6444760
  56.6540640   5.7768210  78.2962370  71.7189770   6.5071960  86.8363400
  71.8452830   6.2683840  85.9180580  71.7611150   5.6756500  87.3085480
  65.5806510  10.2099960  85.4058210  66.0951180  10.1207970  86.2080640
  64.7375590  10.5559660  85.6986120  67.5560910  10.4955300  74.8342210
  67.3962050  10.2058240  75.7324040  67.3907620   9.7195430  74.2987440
  60.0349290  10.2753830  76.6113830  59.8591770   9.3589370  76.3981630
  59.1805030  10.6341120  76.8511630  67.2587040   8.0042860  73.3940210
  66.5652200   8.0020150  72.7342490  68.0009900   7.5802180  72.9634380
  66.8236970   9.6305570  77.4688700  67.2793920   8.8494950  77.7827320
  67.1629490  10.3412390  78.0129880  54.5739520   5.4022030  84.6279440
  54.7370560   4.9327390  83.8098810  55.0391970   4.8945590  85.2928280
  56.1478500   4.7773460  86.7875250  55.7633290   4.1367130  87.3858210
  56.4590690   5.4809580  87.3569980  58.6156800   4.8719630  75.1834930
  57.8419060   4.3317250  75.0233650  59.3451430   4.3526240  74.8452690
  69.3744780   3.8684990  80.9761320  70.0943900   4.3640280  80.5857430
  69.1726600   3.1902880  80.3315190  64.7563580   3.9394050  86.8630320
  64.6900890   3.0189720  86.6087910  64.1268720   4.0369490  87.5774960
  58.6594200   4.5400010  78.8213740  59.1772870   3.7368270  78.7670630
  58.2078220   4.4779150  79.6630570  63.5463700   5.8066290  74.0941040
  63.8879400   6.5508520  73.5984360  62.7176410   6.1197410  74.4565870
  64.6880310   6.7614620  86.6134120  64.7024850   5.8295580  86.3953030
  63.9805410   6.8474380  87.2523890  70.8991520   3.4021960  85.9602700
  70.1739710   3.9950740  85.7632090  71.4266980   3.3945500  85.1616070
  70.8504630   7.7996700  75.6114860  70.2080790   7.1452320  75.8858580
  70.4635290   8.2051790  74.8355530  66.4291110   5.1282130  79.4586550
  66.7814930   4.5310260  78.7987920  65.5453440   4.8026360  79.6294800
  62.5154390   5.8879820  76.8656960  63.2025520   6.4349030  77.2464550
  61.7286810   6.4320550  76.9006570  61.8181600   2.8925850  76.4782320
  62.2744380   3.7031100  76.7042510  61.4669810   2.5748990  77.3100810
  64.1214210   8.4032190  83.7074620  64.7656430   8.6091570  84.3848040
  64.4843650   7.6420590  83.2545470  65.3946290   6.4064540  82.4252070
  66.0368520   5.7057700  82.5384240  65.9195640   7.1862980  82.2448960
  69.2402010   6.6913160  72.1491210  69.0139590   5.9743600  72.7415850
  68.8498210   6.4425600  71.3112960  67.1683910   7.2059440  85.6288130
  67.5040150   7.7926130  86.3066050  66.2484250   7.0752150  85.8585920
  55.0218040  10.7180020  72.9235670  55.3815680  11.3169360  72.2692940
  54.8810380  11.2639910  73.6970700  68.8218260   4.6085100  73.8105370
  68.5339960   5.0697790  74.5983250  69.6170430   4.1482870  74.0789590
  55.0059900   8.9834880  87.3978070  55.1151020   8.0429620  87.2573460
  54.3540460   9.2489630  86.7491800  62.9972490   7.2550770  88.7976190
  62.6769360   6.5360010  89.3421880  62.3230850   7.9305840  88.8712250
  61.0386660   8.1011220  73.7409340  61.0296760   8.8340910  73.1253850
  60.1185020   7.8542800  73.8336300  56.6393300   3.3226110  74.4856100
  56.0321250   4.0625010  74.4951400  57.1142650   3.4125470  73.6594300
  64.0246260   8.1639460  72.4034530  64.1258240   7.9603450  71.4736510
  63.1248000   7.9097740  72.6082310  62.6664370  10.6825780  77.0982200
  62.9205870  10.6447170  76.1761570  61.7176850  10.5559110  77.0910450
  58.6498590   3.2837260  72.2344670  59.4161860   3.1718620  72.7970100
  58.7273280   2.5875230  71.5821440  70.6742530   8.7726510  80.3494970
  70.7989950   9.5957680  80.8218780  71.5408090   8.5617240  80.0019120
  58.1460060  10.8657720  80.0212100  58.8822540  10.3173180  80.2920670
  58.5300980  11.7313730  79.8818090  55.0305540   6.9331290  75.8953610
  54.1045320   7.1752430  75.8859020  55.4961970   7.7605550  75.7738360
  57.1518340  10.0503790  89.2097680  57.9531070  10.3715840  89.6233080
  56.6370160   9.6899370  89.9317590  61.2562370  10.0388030  71.8437670
  62.0490980  10.3276860  71.3919460  60.7366720   9.6080200  71.1650150
  65.9882970   6.1583660  89.1573090  65.3821130   6.1815260  88.4168840
  65.6837080   5.4266700  89.6940340  67.4183340   9.8863950  87.7682500
  68.3705090   9.8021970  87.7182740  67.2711560  10.5505660  88.4416290
  70.3092540   9.2658160  73.2674410  70.0234050   8.8523300  72.4528590
  70.1112090  10.1945870  73.1474930  54.8716150   2.5377250  88.1533730
  55.3755170   1.9584530  88.7249960  54.1323570   2.8217480  88.6910100
  61.7739770   5.2591440  71.7080020  61.6690410   4.6443790  72.4341400
  61.6063990   4.7357330  70.9243030  61.9254090   3.9448240  87.6869250
  61.1599760   4.5133240  87.6023920  62.1070050   3.6524450  86.7937480
  65.0142500   4.3211470  72.3122010  64.4652600   4.7680770  72.9564750
  65.6361760   3.8160720  72.8359680  69.0677440   5.6753570  88.2444270
  69.8086910   6.0129330  87.7411730  68.3050120   5.8445630  87.6914040
  60.6817620   3.2802390  74.2087310  61.1034040   3.1142260  75.0518700
  60.8068460   2.4702620  73.7142450  63.1945260   2.3040000  71.4564410
  63.7150920   1.5889020  71.0905560  63.8413660   2.9425870  71.7564920
  67.7423100   3.7268400  86.7799480  68.1564120   3.8813480  87.6289900
  66.8074100   3.8523620  86.9425260  62.5038330   3.6788880  84.7495410
  62.9226440   4.5221610  84.5771650  61.5846960   3.8160920  84.5202190
  67.1790130   1.9642250  84.7095760  66.6525350   2.4884870  84.1060900
  67.5221470   2.5969640  85.3405490  60.3545750   9.9841890  85.8653140
  59.8166840  10.7087950  85.5461840  60.6079710   9.5072230  85.0750480
  63.2107960  11.2193100  86.1239790  63.1366660  12.1228240  86.4312160
  62.3086800  10.9005000  86.0961860  63.7593290  10.3851610  73.7466150
  64.6544080  10.7236580  73.7684910  63.7910920   9.6631020  73.1190430
  57.3989450   5.7578660  71.9753150  57.8364320   6.3008330  72.6310730
  57.8837180   4.9325610  71.9849490  54.6135250   8.5467690  79.4273410
  54.9438260   7.6788750  79.1952050  55.0426250   8.7526210  80.2578370
  59.2097170   6.8776700  77.0875380  58.9092710   6.7541670  77.9879290
  59.1034660   6.0185290  76.6791110  55.1025460   9.4138280  82.1655040
  54.6656450   9.5939080  82.9979190  55.6703140  10.1712900  82.0236760
  70.7387640   8.9155280  86.4532350  70.1389630   8.9747840  85.7096270
  70.8681540   7.9760260  86.5829200  71.9789090   6.6573100  71.7902060
  71.1482050   6.7249750  72.2609290  72.1560920   7.5477220  71.4868920
  71.4345550   3.4020580  74.2936260  72.1964460   3.9717230  74.3995950
  71.4499920   2.8347780  75.0644570  54.9349890   1.9258510  78.5243920
  54.2798730   1.6570150  77.8803620  55.7727840   1.8162990  78.0745900
  72.4405520   4.2570680  79.1378190  72.8114350   3.4738000  78.7314160
  73.0807450   4.9459780  78.9595490  69.4239280   5.6407260  84.5508510
  68.6099120   6.0704420  84.8134300  69.8313480   6.2525670  83.9377560
  71.4864720   3.6954950  71.4508780  71.7613560   4.6033830  71.3228000
  71.2975460   3.6317480  72.3870770  55.9725820   2.3111080  83.0647260
  56.3398860   2.2238480  83.9443280  55.4036640   1.5477630  82.9654120
  69.4815330  10.3925860  78.0776780  70.0774400  10.0710430  77.4011200
  69.7393480   9.9197680  78.8690050  57.3877900   6.8243770  88.2267410
  57.3447530   6.4536680  89.1081870  57.5188910   7.7621340  88.3669230
  61.0883930   8.3803360  83.8277130  60.8475290   8.6477920  82.9407650
  62.0286570   8.5509090  83.8827990  72.3488090  10.3997740  84.6287770
  71.8546370  10.7966610  83.9114900  71.7401380   9.7746950  85.0225050
  57.2265930   9.7706020  85.3465190  56.6326250   9.6390720  86.0855230
  57.2189770   8.9344160  84.8807290  70.0327540  11.0421160  81.9074510
  69.5730510  11.7936970  81.5332530  69.4040000  10.3227630  81.8489310
  56.8578160   7.1364400  84.2973230  56.1312220   6.5169690  84.2299180
  56.9187310   7.5305010  83.4271310  60.4623260   9.3509400  81.0822640
  60.9788280   8.7396760  80.5570900  61.1120640   9.8538180  81.5733650
  63.2018760  10.2417890  81.9091620  63.4896570   9.9872190  81.0324630
  63.7141980   9.6895250  82.4997190  55.1408160  10.4538790  77.5069990
  54.9730200   9.8209470  78.2051880  54.2742670  10.6598190  77.1564180
  56.7470860   9.1472020  74.9520130  56.2218480   9.5280050  74.2482090
  56.6715440   9.7722790  75.6729840  63.2691120  11.1633990  89.2759820
  64.1958430  10.9278260  89.3195780  63.2541550  11.9905990  88.7945850
  71.5036180  10.7059560  76.2734070  71.6788370  10.0197300  75.6294990
  70.8057750  11.2306610  75.8810740  59.3463830  11.0954400  73.8269380
  60.0782650  10.8113680  73.2793270  59.6057500  10.8567680  74.7168760
  58.5078620   7.2119130  73.8315710  57.8787500   7.6804230  74.3801540
  58.6226450   6.3668350  74.2661900  69.8368680  10.3903850  89.1000860
  70.6294000   9.8953080  88.8926820  70.1301830  11.0693990  89.7076470
  64.0946380   3.0403810  61.8626180  63.3188480   2.5604250  62.1524750
  64.7459310   2.3609460  61.6882340  58.1112210   3.3523620  62.7401940
  57.2797090   3.0972330  63.1398450  58.7193190   3.4234390  63.4759860
  68.1153810   7.4464000  60.6425310  67.6535340   6.6751240  60.9712480
  68.9279360   7.4730070  61.1477760  58.0913470   7.3863710  62.9359960
  58.3941510   6.4961450  62.7570180  58.8357060   7.9433930  62.7082210
  64.3417120   9.7322010  60.2629300  63.7228560  10.1879510  59.6923740
  65.1968900   9.8873470  59.8619000  63.5355370   5.7161000  61.8696340
  63.4663650   4.7750940  61.7085470  64.2975230   5.8062410  62.4418910
  65.2080470   4.6161250  57.6561210  64.5897740   5.0810700  57.0923930
  65.7203720   5.3088730  58.0730720  60.0712230   4.1437120  64.3344810
  59.7381610   4.7706040  64.9765880  60.2478910   4.6699000  63.5546480
  59.2831330   6.1117920  66.1493990  59.9005330   6.7869000  65.8678440
  58.4224450   6.5205900  66.0581490  54.5763670   5.3017780  55.0300840
  54.1991650   5.7904880  54.2985740  54.8336740   5.9743060  55.6607370
  70.2008920   7.5757330  64.0648630  69.5172440   8.2456440  64.0565300
  70.7403210   7.7737980  63.2993490  67.7367660   9.4201460  62.7793810
  67.7494820   9.0163750  61.9116070  67.1842880  10.1948750  62.6755240
  69.0313080   6.1417680  57.8683980  68.9209410   5.1992010  57.9933400
  69.0281330   6.5033320  58.7546740  67.1353100   4.3231300  64.1076420
  67.5521890   4.1091410  63.2729880  67.8592920   4.5804090  64.6785040
  64.5733360   1.7683000  57.2246470  63.6462640   1.7020380  57.4534940
  64.7258180   2.7063130  57.1101710  71.0815200   2.7218520  64.1992660
  70.2533830   2.7911610  63.7242790  71.6765680   3.3072830  63.7308490
  68.6030650   3.3303300  57.7281720  67.9843070   2.9922850  57.0808020
  68.5855100   2.6863060  58.4360910  60.1790000   2.2947740  60.0066200
  59.7747000   1.5824990  59.5112100  60.2653120   1.9500980  60.8954240
  60.6471700   5.9815300  62.1705410  60.3499990   5.3760770  61.4913190
  61.5971520   6.0192610  62.0594770  68.7357310   9.5547170  65.8328510
  68.2587870  10.3619360  65.6401120  68.0519100   8.9025500  65.9854720
  59.7390130   5.7196990  68.8213210  58.8418660   5.9436960  69.0686610
  59.7643000   5.8431930  67.8724610  66.7795350   2.5690110  54.7354470
  67.2188630   1.7312540  54.5892290  67.4923770   3.2019510  54.8218610
  58.5661350   2.5910310  67.3970580  58.4269120   3.4633110  67.7657980
  57.6842710   2.2483120  67.2518520  64.8890730   7.5086180  58.7035710
  65.3286640   8.2510510  58.2891100  64.8277620   7.7512750  59.6274670
  60.3641700   8.5332010  69.6055730  60.3357130   8.9374960  68.7384160
  60.2006670   7.6042370  69.4427330  72.3156520   9.3159110  70.9019900
  72.7916240   9.7942000  71.5808980  72.9363680   9.2476600  70.1765400
  54.5180000   4.3607860  63.3141490  54.5960420   4.4956630  62.3697210
  55.1321680   3.6523750  63.5069610  55.7627630   6.0608050  59.7247670
  55.3555710   6.2022640  58.8701270  56.6540640   5.7768210  59.5218880
  71.7189770   6.5071960  68.0619910  71.8452830   6.2683840  67.1437090
  71.7611150   5.6756500  68.5341990  65.5806510  10.2099960  66.6314720
  66.0951180  10.1207970  67.4337150  64.7375590  10.5559660  66.9242630
  67.5560910  10.4955300  56.0598720  67.3962050  10.2058240  56.9580550
  67.3907620   9.7195430  55.5243950  60.0349290  10.2753830  57.8370340
  59.8591770   9.3589370  57.6238140  59.1805030  10.6341120  58.0768140
  67.2587040   8.0042860  54.6196720  66.5652200   8.0020150  53.9599000
  68.0009900   7.5802180  54.1890890  66.8236970   9.6305570  58.6945210
  67.2793920   8.8494950  59.0083830  67.1629490  10.3412390  59.2386390
  54.5739520   5.4022030  65.8535950  54.7370560   4.9327390  65.0355320
  55.0391970   4.8945590  66.5184790  56.1478500   4.7773460  68.0131760
  55.7633290   4.1367130  68.6114720  56.4590690   5.4809580  68.5826490
  58.6156800   4.8719630  56.4091440  57.8419060   4.3317250  56.2490160
  59.3451430   4.3526240  56.0709200  69.3744780   3.8684990  62.2017830
  70.0943900   4.3640280  61.8113940  69.1726600   3.1902880  61.5571700
  64.7563580   3.9394050  68.0886830  64.6900890   3.0189720  67.8344420
  64.1268720   4.0369490  68.8031470  58.6594200   4.5400010  60.0470250
  59.1772870   3.7368270  59.9927140  58.2078220   4.4779150  60.8887080
  63.5463700   5.8066290  55.3197550  63.8879400   6.5508520  54.8240870
  62.7176410   6.1197410  55.6822380  64.6880310   6.7614620  67.8390630
  64.7024850   5.8295580  67.6209540  63.9805410   6.8474380  68.4780400
  70.8991520   3.4021960  67.1859210  70.1739710   3.9950740  66.9888600
  71.4266980   3.3945500  66.3872580  70.8504630   7.7996700  56.8371370
  70.2080790   7.1452320  57.1115090  70.4635290   8.2051790  56.0612040
  66.4291110   5.1282130  60.6843060  66.7814930   4.5310260  60.0244430
  65.5453440   4.8026360  60.8551310  62.5154390   5.8879820  58.0913470
  63.2025520   6.4349030  58.4721060  61.7286810   6.4320550  58.1263080
  61.8181600   2.8925850  57.7038830  62.2744380   3.7031100  57.9299020
  61.4669810   2.5748990  58.5357320  64.1214210   8.4032190  64.9331130
  64.7656430   8.6091570  65.6104550  64.4843650   7.6420590  64.4801980
  65.3946290   6.4064540  63.6508580  66.0368520   5.7057700  63.7640750
  65.9195640   7.1862980  63.4705470  69.2402010   6.6913160  53.3747720
  69.0139590   5.9743600  53.9672360  68.8498210   6.4425600  52.5369470
  67.1683910   7.2059440  66.8544640  67.5040150   7.7926130  67.5322560
  66.2484250   7.0752150  67.0842430  55.0218040  10.7180020  54.1492180
  55.3815680  11.3169360  53.4949450  54.8810380  11.2639910  54.9227210
  68.8218260   4.6085100  55.0361880  68.5339960   5.0697790  55.8239760
  69.6170430   4.1482870  55.3046100  55.0059900   8.9834880  68.6234580
  55.1151020   8.0429620  68.4829970  54.3540460   9.2489630  67.9748310
  62.9972490   7.2550770  70.0232700  62.6769360   6.5360010  70.5678390
  62.3230850   7.9305840  70.0968760  61.0386660   8.1011220  54.9665850
  61.0296760   8.8340910  54.3510360  60.1185020   7.8542800  55.0592810
  56.6393300   3.3226110  55.7112610  56.0321250   4.0625010  55.7207910
  57.1142650   3.4125470  54.8850810  64.0246260   8.1639460  53.6291040
  64.1258240   7.9603450  52.6993020  63.1248000   7.9097740  53.8338820
  62.6664370  10.6825780  58.3238710  62.9205870  10.6447170  57.4018080
  61.7176850  10.5559110  58.3166960  58.6498590   3.2837260  53.4601180
  59.4161860   3.1718620  54.0226610  58.7273280   2.5875230  52.8077950
  70.6742530   8.7726510  61.5751480  70.7989950   9.5957680  62.0475290
  71.5408090   8.5617240  61.2275630  58.1460060  10.8657720  61.2468610
  58.8822540  10.3173180  61.5177180  58.5300980  11.7313730  61.1074600
  55.0305540   6.9331290  57.1210120  54.1045320   7.1752430  57.1115530
  55.4961970   7.7605550  56.9994870  57.1518340  10.0503790  70.4354190
  57.9531070  10.3715840  70.8489590  56.6370160   9.6899370  71.1574100
  61.2562370  10.0388030  53.0694180  62.0490980  10.3276860  52.6175970
  60.7366720   9.6080200  52.3906660  65.9882970   6.1583660  70.3829600
  65.3821130   6.1815260  69.6425350  65.6837080   5.4266700  70.9196850
  67.4183340   9.8863950  68.9939010  68.3705090   9.8021970  68.9439250
  67.2711560  10.5505660  69.6672800  70.3092540   9.2658160  54.4930920
  70.0234050   8.8523300  53.6785100  70.1112090  10.1945870  54.3731440
  54.8716150   2.5377250  69.3790240  55.3755170   1.9584530  69.9506470
  54.1323570   2.8217480  69.9166610  61.7739770   5.2591440  52.9336530
  61.6690410   4.6443790  53.6597910  61.6063990   4.7357330  52.1499540
  61.9254090   3.9448240  68.9125760  61.1599760   4.5133240  68.8280430
  62.1070050   3.6524450  68.0193990  65.0142500   4.3211470  53.5378520
  64.4652600   4.7680770  54.1821260  65.6361760   3.8160720  54.0616190
  69.0677440   5.6753570  69.4700780  69.8086910   6.0129330  68.9668240
  68.3050120   5.8445630  68.9170550  60.6817620   3.2802390  55.4343820
  61.1034040   3.1142260  56.2775210  60.8068460   2.4702620  54.9398960
  63.1945260   2.3040000  52.6820920  63.7150920   1.5889020  52.3162070
  63.8413660   2.9425870  52.9821430  67.7423100   3.7268400  68.0055990
  68.1564120   3.8813480  68.8546410  66.8074100   3.8523620  68.1681770
  62.5038330   3.6788880  65.9751920  62.9226440   4.5221610  65.8028160
  61.5846960   3.8160920  65.7458700  67.1790130   1.9642250  65.9352270
  66.6525350   2.4884870  65.3317410  67.5221470   2.5969640  66.5662000
  60.3545750   9.9841890  67.0909650  59.8166840  10.7087950  66.7718350
  60.6079710   9.5072230  66.3006990  63.2107960  11.2193100  67.3496300
  63.1366660  12.1228240  67.6568670  62.3086800  10.9005000  67.3218370
  63.7593290  10.3851610  54.9722660  64.6544080  10.7236580  54.9941420
  63.7910920   9.6631020  54.3446940  57.3989450   5.7578660  53.2009660
  57.8364320   6.3008330  53.8567240  57.8837180   4.9325610  53.2106000
  54.6135250   8.5467690  60.6529920  54.9438260   7.6788750  60.4208560
  55.0426250   8.7526210  61.4834880  59.2097170   6.8776700  58.3131890
  58.9092710   6.7541670  59.2135800  59.1034660   6.0185290  57.9047620
  55.1025460   9.4138280  63.3911550  54.6656450   9.5939080  64.2235700
  55.6703140  10.1712900  63.2493270  70.7387640   8.9155280  67.6788860
  70.1389630   8.9747840  66.9352780  70.8681540   7.9760260  67.8085710
  71.9789090   6.6573100  53.0158570  71.1482050   6.7249750  53.4865800
  72.1560920   7.5477220  52.7125430  71.4345550   3.4020580  55.5192770
  72.1964460   3.9717230  55.6252460  71.4499920   2.8347780  56.2901080
  54.9349890   1.9258510  59.7500430  54.2798730   1.6570150  59.1060130
  55.7727840   1.8162990  59.3002410  72.4405520   4.2570680  60.3634700
  72.8114350   3.4738000  59.9570670  73.0807450   4.9459780  60.1852000
  69.4239280   5.6407260  65.7765020  68.6099120   6.0704420  66.0390810
  69.8313480   6.2525670  65.1634070  71.4864720   3.6954950  52.6765290
  71.7613560   4.6033830  52.5484510  71.2975460   3.6317480  53.6127280
  55.9725820   2.3111080  64.2903770  56.3398860   2.2238480  65.1699790
  55.4036640   1.5477630  64.1910630  69.4815330  10.3925860  59.3033290
  70.0774400  10.0710430  58.6267710  69.7393480   9.9197680  60.0946560
  57.3877900   6.8243770  69.4523920  57.3447530   6.4536680  70.3338380
  57.5188910   7.7621340  69.5925740  61.0883930   8.3803360  65.0533640
  60.8475290   8.6477920  64.1664160  62.0286570   8.5509090  65.1084500
  72.3488090  10.3997740  65.8544280  71.8546370  10.7966610  65.1371410
  71.7401380   9.7746950  66.2481560  57.2265930   9.7706020  66.5721700
  56.6326250   9.6390720  67.3111740  57.2189770   8.9344160  66.1063800
  70.0327540  11.0421160  63.1331020  69.5730510  11.7936970  62.7589040
  69.4040000  10.3227630  63.0745820  56.8578160   7.1364400  65.5229740
  56.1312220   6.5169690  65.4555690  56.9187310   7.5305010  64.6527820
  60.4623260   9.3509400  62.3079150  60.9788280   8.7396760  61.7827410
  61.1120640   9.8538180  62.7990160  63.2018760  10.2417890  63.1348130
  63.4896570   9.9872190  62.2581140  63.7141980   9.6895250  63.7253700
  55.1408160  10.4538790  58.7326500  54.9730200   9.8209470  59.4308390
  54.2742670  10.6598190  58.3820690  56.7470860   9.1472020  56.1776640
  56.2218480   9.5280050  55.4738600  56.6715440   9.7722790  56.8986350
  63.2691120  11.1633990  70.5016330  64.1958430  10.9278260  70.5452290
  63.2541550  11.9905990  70.0202360  71.5036180  10.7059560  57.4990580
  71.6788370  10.0197300  56.8551500  70.8057750  11.2306610  57.1067250
  59.3463830  11.0954400  55.0525890  60.0782650  10.8113680  54.5049780
  59.6057500  10.8567680  55.9425270  58.5078620   7.2119130  55.0572220
  57.8787500   7.6804230  55.6058050  58.6226450   6.3668350  55.4918410
  69.8368680  10.3903850  70.3257370  70.6294000   9.8953080  70.1183330
  70.1301830  11.0693990  70.9332980  64.0946380   3.0403810  43.0882690
  63.3188480   2.5604250  43.3781260  64.7459310   2.3609460  42.9138850
  58.1112210   3.3523620  43.9658450  57.2797090   3.0972330  44.3654960
  58.7193190   3.4234390  44.7016370  68.1153810   7.4464000  41.8681820
  67.6535340   6.6751240  42.1968990  68.9279360   7.4730070  42.3734270
  58.0913470   7.3863710  44.1616470  58.3941510   6.4961450  43.9826690
  58.8357060   7.9433930  43.9338720  64.3417120   9.7322010  41.4885810
  63.7228560  10.1879510  40.9180250  65.1968900   9.8873470  41.0875510
  63.5355370   5.7161000  43.0952850  63.4663650   4.7750940  42.9341980
  64.2975230   5.8062410  43.6675420  65.2080470   4.6161250  38.8817720
  64.5897740   5.0810700  38.3180440  65.7203720   5.3088730  39.2987230
  60.0712230   4.1437120  45.5601320  59.7381610   4.7706040  46.2022390
  60.2478910   4.6699000  44.7802990  59.2831330   6.1117920  47.3750500
  59.9005330   6.7869000  47.0934950  58.4224450   6.5205900  47.2838000
  54.5763670   5.3017780  36.2557350  54.1991650   5.7904880  35.5242250
  54.8336740   5.9743060  36.8863880  70.2008920   7.5757330  45.2905140
  69.5172440   8.2456440  45.2821810  70.7403210   7.7737980  44.5250000
  67.7367660   9.4201460  44.0050320  67.7494820   9.0163750  43.1372580
  67.1842880  10.1948750  43.9011750  69.0313080   6.1417680  39.0940490
  68.9209410   5.1992010  39.2189910  69.0281330   6.5033320  39.9803250
  67.1353100   4.3231300  45.3332930  67.5521890   4.1091410  44.4986390
  67.8592920   4.5804090  45.9041550  64.5733360   1.7683000  38.4502980
  63.6462640   1.7020380  38.6791450  64.7258180   2.7063130  38.3358220
  71.0815200   2.7218520  45.4249170  70.2533830   2.7911610  44.9499300
  71.6765680   3.3072830  44.9565000  68.6030650   3.3303300  38.9538230
  67.9843070   2.9922850  38.3064530  68.5855100   2.6863060  39.6617420
  60.1790000   2.2947740  41.2322710  59.7747000   1.5824990  40.7368610
  60.2653120   1.9500980  42.1210750  60.6471700   5.9815300  43.3961920
  60.3499990   5.3760770  42.7169700  61.5971520   6.0192610  43.2851280
  68.7357310   9.5547170  47.0585020  68.2587870  10.3619360  46.8657630
  68.0519100   8.9025500  47.2111230  59.7390130   5.7196990  50.0469720
  58.8418660   5.9436960  50.2943120  59.7643000   5.8431930  49.0981120
  66.7795350   2.5690110  35.9610980  67.2188630   1.7312540  35.8148800
  67.4923770   3.2019510  36.0475120  58.5661350   2.5910310  48.6227090
  58.4269120   3.4633110  48.9914490  57.6842710   2.2483120  48.4775030
  64.8890730   7.5086180  39.9292220  65.3286640   8.2510510  39.5147610
  64.8277620   7.7512750  40.8531180  60.3641700   8.5332010  50.8312240
  60.3357130   8.9374960  49.9640670  60.2006670   7.6042370  50.6683840
  72.3156520   9.3159110  52.1276410  72.7916240   9.7942000  52.8065490
  72.9363680   9.2476600  51.4021910  54.5180000   4.3607860  44.5398000
  54.5960420   4.4956630  43.5953720  55.1321680   3.6523750  44.7326120
  55.7627630   6.0608050  40.9504180  55.3555710   6.2022640  40.0957780
  56.6540640   5.7768210  40.7475390  71.7189770   6.5071960  49.2876420
  71.8452830   6.2683840  48.3693600  71.7611150   5.6756500  49.7598500
  65.5806510  10.2099960  47.8571230  66.0951180  10.1207970  48.6593660
  64.7375590  10.5559660  48.1499140  67.5560910  10.4955300  37.2855230
  67.3962050  10.2058240  38.1837060  67.3907620   9.7195430  36.7500460
  60.0349290  10.2753830  39.0626850  59.8591770   9.3589370  38.8494650
  59.1805030  10.6341120  39.3024650  67.2587040   8.0042860  35.8453230
  66.5652200   8.0020150  35.1855510  68.0009900   7.5802180  35.4147400
  66.8236970   9.6305570  39.9201720  67.2793920   8.8494950  40.2340340
  67.1629490  10.3412390  40.4642900  54.5739520   5.4022030  47.0792460
  54.7370560   4.9327390  46.2611830  55.0391970   4.8945590  47.7441300
  56.1478500   4.7773460  49.2388270  55.7633290   4.1367130  49.8371230
  56.4590690   5.4809580  49.8083000  58.6156800   4.8719630  37.6347950
  57.8419060   4.3317250  37.4746670  59.3451430   4.3526240  37.2965710
  69.3744780   3.8684990  43.4274340  70.0943900   4.3640280  43.0370450
  69.1726600   3.1902880  42.7828210  64.7563580   3.9394050  49.3143340
  64.6900890   3.0189720  49.0600930  64.1268720   4.0369490  50.0287980
  58.6594200   4.5400010  41.2726760  59.1772870   3.7368270  41.2183650
  58.2078220   4.4779150  42.1143590  63.5463700   5.8066290  36.5454060
  63.8879400   6.5508520  36.0497380  62.7176410   6.1197410  36.9078890
  64.6880310   6.7614620  49.0647140  64.7024850   5.8295580  48.8466050
  63.9805410   6.8474380  49.7036910  70.8991520   3.4021960  48.4115720
  70.1739710   3.9950740  48.2145110  71.4266980   3.3945500  47.6129090
  70.8504630   7.7996700  38.0627880  70.2080790   7.1452320  38.3371600
  70.4635290   8.2051790  37.2868550  66.4291110   5.1282130  41.9099570
  66.7814930   4.5310260  41.2500940  65.5453440   4.8026360  42.0807820
  62.5154390   5.8879820  39.3169980  63.2025520   6.4349030  39.6977570
  61.7286810   6.4320550  39.3519590  61.8181600   2.8925850  38.9295340
  62.2744380   3.7031100  39.1555530  61.4669810   2.5748990  39.7613830
  64.1214210   8.4032190  46.1587640  64.7656430   8.6091570  46.8361060
  64.4843650   7.6420590  45.7058490  65.3946290   6.4064540  44.8765090
  66.0368520   5.7057700  44.9897260  65.9195640   7.1862980  44.6961980
  69.2402010   6.6913160  34.6004230  69.0139590   5.9743600  35.1928870
  68.8498210   6.4425600  33.7625980  67.1683910   7.2059440  48.0801150
  67.5040150   7.7926130  48.7579070  66.2484250   7.0752150  48.3098940
  55.0218040  10.7180020  35.3748690  55.3815680  11.3169360  34.7205960
  54.8810380  11.2639910  36.1483720  68.8218260   4.6085100  36.2618390
  68.5339960   5.0697790  37.0496270  69.6170430   4.1482870  36.5302610
  55.0059900   8.9834880  49.8491090  55.1151020   8.0429620  49.7086480
  54.3540460   9.2489630  49.2004820  62.9972490   7.2550770  51.2489210
  62.6769360   6.5360010  51.7934900  62.3230850   7.9305840  51.3225270
  61.0386660   8.1011220  36.1922360  61.0296760   8.8340910  35.5766870
  60.1185020   7.8542800  36.2849320  56.6393300   3.3226110  36.9369120
  56.0321250   4.0625010  36.9464420  57.1142650   3.4125470  36.1107320
  64.0246260   8.1639460  34.8547550  64.1258240   7.9603450  33.9249530
  63.1248000   7.9097740  35.0595330  62.6664370  10.6825780  39.5495220
  62.9205870  10.6447170  38.6274590  61.7176850  10.5559110  39.5423470
  58.6498590   3.2837260  34.6857690  59.4161860   3.1718620  35.2483120
  58.7273280   2.5875230  34.0334460  70.6742530   8.7726510  42.8007990
  70.7989950   9.5957680  43.2731800  71.5408090   8.5617240  42.4532140
  58.1460060  10.8657720  42.4725120  58.8822540  10.3173180  42.7433690
  58.5300980  11.7313730  42.3331110  55.0305540   6.9331290  38.3466630
  54.1045320   7.1752430  38.3372040  55.4961970   7.7605550  38.2251380
  57.1518340  10.0503790  51.6610700  57.9531070  10.3715840  52.0746100
  56.6370160   9.6899370  52.3830610  61.2562370  10.0388030  34.2950690
  62.0490980  10.3276860  33.8432480  60.7366720   9.6080200  33.6163170
  65.9882970   6.1583660  51.6086110  65.3821130   6.1815260  50.8681860
  65.6837080   5.4266700  52.1453360  67.4183340   9.8863950  50.2195520
  68.3705090   9.8021970  50.1695760  67.2711560  10.5505660  50.8929310
  70.3092540   9.2658160  35.7187430  70.0234050   8.8523300  34.9041610
  70.1112090  10.1945870  35.5987950  54.8716150   2.5377250  50.6046750
  55.3755170   1.9584530  51.1762980  54.1323570   2.8217480  51.1423120
  61.7739770   5.2591440  34.1593040  61.6690410   4.6443790  34.8854420
  61.6063990   4.7357330  33.3756050  61.9254090   3.9448240  50.1382270
  61.1599760   4.5133240  50.0536940  62.1070050   3.6524450  49.2450500
  65.0142500   4.3211470  34.7635030  64.4652600   4.7680770  35.4077770
  65.6361760   3.8160720  35.2872700  69.0677440   5.6753570  50.6957290
  69.8086910   6.0129330  50.1924750  68.3050120   5.8445630  50.1427060
  60.6817620   3.2802390  36.6600330  61.1034040   3.1142260  37.5031720
  60.8068460   2.4702620  36.1655470  63.1945260   2.3040000  33.9077430
  63.7150920   1.5889020  33.5418580  63.8413660   2.9425870  34.2077940
  67.7423100   3.7268400  49.2312500  68.1564120   3.8813480  50.0802920
  66.8074100   3.8523620  49.3938280  62.5038330   3.6788880  47.2008430
  62.9226440   4.5221610  47.0284670  61.5846960   3.8160920  46.9715210
  67.1790130   1.9642250  47.1608780  66.6525350   2.4884870  46.5573920
  67.5221470   2.5969640  47.7918510  60.3545750   9.9841890  48.3166160
  59.8166840  10.7087950  47.9974860  60.6079710   9.5072230  47.5263500
  63.2107960  11.2193100  48.5752810  63.1366660  12.1228240  48.8825180
  62.3086800  10.9005000  48.5474880  63.7593290  10.3851610  36.1979170
  64.6544080  10.7236580  36.2197930  63.7910920   9.6631020  35.5703450
  57.3989450   5.7578660  34.4266170  57.8364320   6.3008330  35.0823750
  57.8837180   4.9325610  34.4362510  54.6135250   8.5467690  41.8786430
  54.9438260   7.6788750  41.6465070  55.0426250   8.7526210  42.7091390
  59.2097170   6.8776700  39.5388400  58.9092710   6.7541670  40.4392310
  59.1034660   6.0185290  39.1304130  55.1025460   9.4138280  44.6168060
  54.6656450   9.5939080  45.4492210  55.6703140  10.1712900  44.4749780
  70.7387640   8.9155280  48.9045370  70.1389630   8.9747840  48.1609290
  70.8681540   7.9760260  49.0342220  71.9789090   6.6573100  34.2415080
  71.1482050   6.7249750  34.7122310  72.1560920   7.5477220  33.9381940
  71.4345550   3.4020580  36.7449280  72.1964460   3.9717230  36.8508970
  71.4499920   2.8347780  37.5157590  54.9349890   1.9258510  40.9756940
  54.2798730   1.6570150  40.3316640  55.7727840   1.8162990  40.5258920
  72.4405520   4.2570680  41.5891210  72.8114350   3.4738000  41.1827180
  73.0807450   4.9459780  41.4108510  69.4239280   5.6407260  47.0021530
  68.6099120   6.0704420  47.2647320  69.8313480   6.2525670  46.3890580
  71.4864720   3.6954950  33.9021800  71.7613560   4.6033830  33.7741020
  71.2975460   3.6317480  34.8383790  55.9725820   2.3111080  45.5160280
  56.3398860   2.2238480  46.3956300  55.4036640   1.5477630  45.4167140
  69.4815330  10.3925860  40.5289800  70.0774400  10.0710430  39.8524220
  69.7393480   9.9197680  41.3203070  57.3877900   6.8243770  50.6780430
  57.3447530   6.4536680  51.5594890  57.5188910   7.7621340  50.8182250
  61.0883930   8.3803360  46.2790150  60.8475290   8.6477920  45.3920670
  62.0286570   8.5509090  46.3341010  72.3488090  10.3997740  47.0800790
  71.8546370  10.7966610  46.3627920  71.7401380   9.7746950  47.4738070
  57.2265930   9.7706020  47.7978210  56.6326250   9.6390720  48.5368250
  57.2189770   8.9344160  47.3320310  70.0327540  11.0421160  44.3587530
  69.5730510  11.7936970  43.9845550  69.4040000  10.3227630  44.3002330
  56.8578160   7.1364400  46.7486250  56.1312220   6.5169690  46.6812200
  56.9187310   7.5305010  45.8784330  60.4623260   9.3509400  43.5335660
  60.9788280   8.7396760  43.0083920  61.1120640   9.8538180  44.0246670
  63.2018760  10.2417890  44.3604640  63.4896570   9.9872190  43.4837650
  63.7141980   9.6895250  44.9510210  55.1408160  10.4538790  39.9583010
  54.9730200   9.8209470  40.6564900  54.2742670  10.6598190  39.6077200
  56.7470860   9.1472020  37.4033150  56.2218480   9.5280050  36.6995110
  56.6715440   9.7722790  38.1242860  63.2691120  11.1633990  51.7272840
  64.1958430  10.9278260  51.7708800  63.2541550  11.9905990  51.2458870
  71.5036180  10.7059560  38.7247090  71.6788370  10.0197300  38.0808010
  70.8057750  11.2306610  38.3323760  59.3463830  11.0954400  36.2782400
  60.0782650  10.8113680  35.7306290  59.6057500  10.8567680  37.1681780
  58.5078620   7.2119130  36.2828730  57.8787500   7.6804230  36.8314560
  58.6226450   6.3668350  36.7174920  69.8368680  10.3903850  51.5513880
  70.6294000   9.8953080  51.3439840  70.1301830  11.0693990  52.1589490
  64.0946380   3.0403810  24.3139200  63.3188480   2.5604250  24.6037770
  64.7459310   2.3609460  24.1395360  58.1112210   3.3523620  25.1914960
  57.2797090   3.0972330  25.5911470  58.7193190   3.4234390  25.9272880
  68.1153810   7.4464000  23.0938330  67.6535340   6.6751240  23.4225500
  68.9279360   7.4730070  23.5990780  58.0913470   7.3863710  25.3872980
  58.3941510   6.4961450  25.2083200  58.8357060   7.9433930  25.1595230
  64.3417120   9.7322010  22.7142320  63.7228560  10.1879510  22.1436760
  65.1968900   9.8873470  22.3132020  63.5355370   5.7161000  24.3209360
  63.4663650   4.7750940  24.1598490  64.2975230   5.8062410  24.8931930
  65.2080470   4.6161250  20.1074230  64.5897740   5.0810700  19.5436950
  65.7203720   5.3088730  20.5243740  60.0712230   4.1437120  26.7857830
  59.7381610   4.7706040  27.4278900  60.2478910   4.6699000  26.0059500
  59.2831330   6.1117920  28.6007010  59.9005330   6.7869000  28.3191460
  58.4224450   6.5205900  28.5094510  54.5763670   5.3017780  17.4813860
  54.1991650   5.7904880  16.7498760  54.8336740   5.9743060  18.1120390
  70.2008920   7.5757330  26.5161650  69.5172440   8.2456440  26.5078320
  70.7403210   7.7737980  25.7506510  67.7367660   9.4201460  25.2306830
  67.7494820   9.0163750  24.3629090  67.1842880  10.1948750  25.1268260
  69.0313080   6.1417680  20.3197000  68.9209410   5.1992010  20.4446420
  69.0281330   6.5033320  21.2059760  67.1353100   4.3231300  26.5589440
  67.5521890   4.1091410  25.7242900  67.8592920   4.5804090  27.1298060
  64.5733360   1.7683000  19.6759490  63.6462640   1.7020380  19.9047960
  64.7258180   2.7063130  19.5614730  71.0815200   2.7218520  26.6505680
  70.2533830   2.7911610  26.1755810  71.6765680   3.3072830  26.1821510
  68.6030650   3.3303300  20.1794740  67.9843070   2.9922850  19.5321040
  68.5855100   2.6863060  20.8873930  60.1790000   2.2947740  22.4579220
  59.7747000   1.5824990  21.9625120  60.2653120   1.9500980  23.3467260
  60.6471700   5.9815300  24.6218430  60.3499990   5.3760770  23.9426210
  61.5971520   6.0192610  24.5107790  68.7357310   9.5547170  28.2841530
  68.2587870  10.3619360  28.0914140  68.0519100   8.9025500  28.4367740
  59.7390130   5.7196990  31.2726230  58.8418660   5.9436960  31.5199630
  59.7643000   5.8431930  30.3237630  66.7795350   2.5690110  17.1867490
  67.2188630   1.7312540  17.0405310  67.4923770   3.2019510  17.2731630
  58.5661350   2.5910310  29.8483600  58.4269120   3.4633110  30.2171000
  57.6842710   2.2483120  29.7031540  64.8890730   7.5086180  21.1548730
  65.3286640   8.2510510  20.7404120  64.8277620   7.7512750  22.0787690
  60.3641700   8.5332010  32.0568750  60.3357130   8.9374960  31.1897180
  60.2006670   7.6042370  31.8940350  72.3156520   9.3159110  33.3532920
  72.7916240   9.7942000  34.0322000  72.9363680   9.2476600  32.6278420
  54.5180000   4.3607860  25.7654510  54.5960420   4.4956630  24.8210230
  55.1321680   3.6523750  25.9582630  55.7627630   6.0608050  22.1760690
  55.3555710   6.2022640  21.3214290  56.6540640   5.7768210  21.9731900
  71.7189770   6.5071960  30.5132930  71.8452830   6.2683840  29.5950110
  71.7611150   5.6756500  30.9855010  65.5806510  10.2099960  29.0827740
  66.0951180  10.1207970  29.8850170  64.7375590  10.5559660  29.3755650
  67.5560910  10.4955300  18.5111740  67.3962050  10.2058240  19.4093570
  67.3907620   9.7195430  17.9756970  60.0349290  10.2753830  20.2883360
  59.8591770   9.3589370  20.0751160  59.1805030  10.6341120  20.5281160
  67.2587040   8.0042860  17.0709740  66.5652200   8.0020150  16.4112020
  68.0009900   7.5802180  16.6403910  66.8236970   9.6305570  21.1458230
  67.2793920   8.8494950  21.4596850  67.1629490  10.3412390  21.6899410
  54.5739520   5.4022030  28.3048970  54.7370560   4.9327390  27.4868340
  55.0391970   4.8945590  28.9697810  56.1478500   4.7773460  30.4644780
  55.7633290   4.1367130  31.0627740  56.4590690   5.4809580  31.0339510
  58.6156800   4.8719630  18.8604460  57.8419060   4.3317250  18.7003180
  59.3451430   4.3526240  18.5222220  69.3744780   3.8684990  24.6530850
  70.0943900   4.3640280  24.2626960  69.1726600   3.1902880  24.0084720
  64.7563580   3.9394050  30.5399850  64.6900890   3.0189720  30.2857440
  64.1268720   4.0369490  31.2544490  58.6594200   4.5400010  22.4983270
  59.1772870   3.7368270  22.4440160  58.2078220   4.4779150  23.3400100
  63.5463700   5.8066290  17.7710570  63.8879400   6.5508520  17.2753890
  62.7176410   6.1197410  18.1335400  64.6880310   6.7614620  30.2903650
  64.7024850   5.8295580  30.0722560  63.9805410   6.8474380  30.9293420
  70.8991520   3.4021960  29.6372230  70.1739710   3.9950740  29.4401620
  71.4266980   3.3945500  28.8385600  70.8504630   7.7996700  19.2884390
  70.2080790   7.1452320  19.5628110  70.4635290   8.2051790  18.5125060
  66.4291110   5.1282130  23.1356080  66.7814930   4.5310260  22.4757450
  65.5453440   4.8026360  23.3064330  62.5154390   5.8879820  20.5426490
  63.2025520   6.4349030  20.9234080  61.7286810   6.4320550  20.5776100
  61.8181600   2.8925850  20.1551850  62.2744380   3.7031100  20.3812040
  61.4669810   2.5748990  20.9870340  64.1214210   8.4032190  27.3844150
  64.7656430   8.6091570  28.0617570  64.4843650   7.6420590  26.9315000
  65.3946290   6.4064540  26.1021600  66.0368520   5.7057700  26.2153770
  65.9195640   7.1862980  25.9218490  69.2402010   6.6913160  15.8260740
  69.0139590   5.9743600  16.4185380  68.8498210   6.4425600  14.9882490
  67.1683910   7.2059440  29.3057660  67.5040150   7.7926130  29.9835580
  66.2484250   7.0752150  29.5355450  55.0218040  10.7180020  16.6005200
  55.3815680  11.3169360  15.9462470  54.8810380  11.2639910  17.3740230
  68.8218260   4.6085100  17.4874900  68.5339960   5.0697790  18.2752780
  69.6170430   4.1482870  17.7559120  55.0059900   8.9834880  31.0747600
  55.1151020   8.0429620  30.9342990  54.3540460   9.2489630  30.4261330
  62.9972490   7.2550770  32.4745720  62.6769360   6.5360010  33.0191410
  62.3230850   7.9305840  32.5481780  61.0386660   8.1011220  17.4178870
  61.0296760   8.8340910  16.8023380  60.1185020   7.8542800  17.5105830
  56.6393300   3.3226110  18.1625630  56.0321250   4.0625010  18.1720930
  57.1142650   3.4125470  17.3363830  64.0246260   8.1639460  16.0804060
  64.1258240   7.9603450  15.1506040  63.1248000   7.9097740  16.2851840
  62.6664370  10.6825780  20.7751730  62.9205870  10.6447170  19.8531100
  61.7176850  10.5559110  20.7679980  58.6498590   3.2837260  15.9114200
  59.4161860   3.1718620  16.4739630  58.7273280   2.5875230  15.2590970
  70.6742530   8.7726510  24.0264500  70.7989950   9.5957680  24.4988310
  71.5408090   8.5617240  23.6788650  58.1460060  10.8657720  23.6981630
  58.8822540  10.3173180  23.9690200  58.5300980  11.7313730  23.5587620
  55.0305540   6.9331290  19.5723140  54.1045320   7.1752430  19.5628550
  55.4961970   7.7605550  19.4507890  57.1518340  10.0503790  32.8867210
  57.9531070  10.3715840  33.3002610  56.6370160   9.6899370  33.6087120
  61.2562370  10.0388030  15.5207200  62.0490980  10.3276860  15.0688990
  60.7366720   9.6080200  14.8419680  65.9882970   6.1583660  32.8342620
  65.3821130   6.1815260  32.0938370  65.6837080   5.4266700  33.3709870
  67.4183340   9.8863950  31.4452030  68.3705090   9.8021970  31.3952270
  67.2711560  10.5505660  32.1185820  70.3092540   9.2658160  16.9443940
  70.0234050   8.8523300  16.1298120  70.1112090  10.1945870  16.8244460
  54.8716150   2.5377250  31.8303260  55.3755170   1.9584530  32.4019490
  54.1323570   2.8217480  32.3679630  61.7739770   5.2591440  15.3849550
  61.6690410   4.6443790  16.1110930  61.6063990   4.7357330  14.6012560
  61.9254090   3.9448240  31.3638780  61.1599760   4.5133240  31.2793450
  62.1070050   3.6524450  30.4707010  65.0142500   4.3211470  15.9891540
  64.4652600   4.7680770  16.6334280  65.6361760   3.8160720  16.5129210
  69.0677440   5.6753570  31.9213800  69.8086910   6.0129330  31.4181260
  68.3050120   5.8445630  31.3683570  60.6817620   3.2802390  17.8856840
  61.1034040   3.1142260  18.7288230  60.8068460   2.4702620  17.3911980
  63.1945260   2.3040000  15.1333940  63.7150920   1.5889020  14.7675090
  63.8413660   2.9425870  15.4334450  67.7423100   3.7268400  30.4569010
  68.1564120   3.8813480  31.3059430  66.8074100   3.8523620  30.6194790
  62.5038330   3.6788880  28.4264940  62.9226440   4.5221610  28.2541180
  61.5846960   3.8160920  28.1971720  67.1790130   1.9642250  28.3865290
  66.6525350   2.4884870  27.7830430  67.5221470   2.5969640  29.0175020
  60.3545750   9.9841890  29.5422670  59.8166840  10.7087950  29.2231370
  60.6079710   9.5072230  28.7520010  63.2107960  11.2193100  29.8009320
  63.1366660  12.1228240  30.1081690  62.3086800  10.9005000  29.7731390
  63.7593290  10.3851610  17.4235680  64.6544080  10.7236580  17.4454440
  63.7910920   9.6631020  16.7959960  57.3989450   5.7578660  15.6522680
  57.8364320   6.3008330  16.3080260  57.8837180   4.9325610  15.6619020
  54.6135250   8.5467690  23.1042940  54.9438260   7.6788750  22.8721580
  55.0426250   8.7526210  23.9347900  59.2097170   6.8776700  20.7644910
  58.9092710   6.7541670  21.6648820  59.1034660   6.0185290  20.3560640
  55.1025460   9.4138280  25.8424570  54.6656450   9.5939080  26.6748720
  55.6703140  10.1712900  25.7006290  70.7387640   8.9155280  30.1301880
  70.1389630   8.9747840  29.3865800  70.8681540   7.9760260  30.2598730
  71.9789090   6.6573100  15.4671590  71.1482050   6.7249750  15.9378820
  72.1560920   7.5477220  15.1638450  71.4345550   3.4020580  17.9705790
  72.1964460   3.9717230  18.0765480  71.4499920   2.8347780  18.7414100
  54.9349890   1.9258510  22.2013450  54.2798730   1.6570150  21.5573150
  55.7727840   1.8162990  21.7515430  72.4405520   4.2570680  22.8147720
  72.8114350   3.4738000  22.4083690  73.0807450   4.9459780  22.6365020
  69.4239280   5.6407260  28.2278040  68.6099120   6.0704420  28.4903830
  69.8313480   6.2525670  27.6147090  71.4864720   3.6954950  15.1278310
  71.7613560   4.6033830  14.9997530  71.2975460   3.6317480  16.0640300
  55.9725820   2.3111080  26.7416790  56.3398860   2.2238480  27.6212810
  55.4036640   1.5477630  26.6423650  69.4815330  10.3925860  21.7546310
  70.0774400  10.0710430  21.0780730  69.7393480   9.9197680  22.5459580
  57.3877900   6.8243770  31.9036940  57.3447530   6.4536680  32.7851400
  57.5188910   7.7621340  32.0438760  61.0883930   8.3803360  27.5046660
  60.8475290   8.6477920  26.6177180  62.0286570   8.5509090  27.5597520
  72.3488090  10.3997740  28.3057300  71.8546370  10.7966610  27.5884430
  71.7401380   9.7746950  28.6994580  57.2265930   9.7706020  29.0234720
  56.6326250   9.6390720  29.7624760  57.2189770   8.9344160  28.5576820
  70.0327540  11.0421160  25.5844040  69.5730510  11.7936970  25.2102060
  69.4040000  10.3227630  25.5258840  56.8578160   7.1364400  27.9742760
  56.1312220   6.5169690  27.9068710  56.9187310   7.5305010  27.1040840
  60.4623260   9.3509400  24.7592170  60.9788280   8.7396760  24.2340430
  61.1120640   9.8538180  25.2503180  63.2018760  10.2417890  25.5861150
  63.4896570   9.9872190  24.7094160  63.7141980   9.6895250  26.1766720
  55.1408160  10.4538790  21.1839520  54.9730200   9.8209470  21.8821410
  54.2742670  10.6598190  20.8333710  56.7470860   9.1472020  18.6289660
  56.2218480   9.5280050  17.9251620  56.6715440   9.7722790  19.3499370
  63.2691120  11.1633990  32.9529350  64.1958430  10.9278260  32.9965310
  63.2541550  11.9905990  32.4715380  71.5036180  10.7059560  19.9503600
  71.6788370  10.0197300  19.3064520  70.8057750  11.2306610  19.5580270
  59.3463830  11.0954400  17.5038910  60.0782650  10.8113680  16.9562800
  59.6057500  10.8567680  18.3938290  58.5078620   7.2119130  17.5085240
  57.8787500   7.6804230  18.0571070  58.6226450   6.3668350  17.9431430
  69.8368680  10.3903850  32.7770390  70.6294000   9.8953080  32.5696350
  70.1301830  11.0693990  33.3846000  64.0946380   3.0403810   5.5395710
  63.3188480   2.5604250   5.8294280  64.7459310   2.3609460   5.3651870
  58.1112210   3.3523620   6.4171470  57.2797090   3.0972330   6.8167980
  58.7193190   3.4234390   7.1529390  68.1153810   7.4464000   4.3194840
  67.6535340   6.6751240   4.6482010  68.9279360   7.4730070   4.8247290
  58.0913470   7.3863710   6.6129490  58.3941510   6.4961450   6.4339710
  58.8357060   7.9433930   6.3851740  64.3417120   9.7322010   3.9398830
  63.7228560  10.1879510   3.3693270  65.1968900   9.8873470   3.5388530
  63.5355370   5.7161000   5.5465870  63.4663650   4.7750940   5.3855000
  64.2975230   5.8062410   6.1188440  60.0712230   4.1437120   8.0114340
  59.7381610   4.7706040   8.6535410  60.2478910   4.6699000   7.2316010
  59.2831330   6.1117920   9.8263520  59.9005330   6.7869000   9.5447970
  58.4224450   6.5205900   9.7351020  70.2008920   7.5757330   7.7418160
  69.5172440   8.2456440   7.7334830  70.7403210   7.7737980   6.9763020
  67.7367660   9.4201460   6.4563340  67.7494820   9.0163750   5.5885600
  67.1842880  10.1948750   6.3524770  67.1353100   4.3231300   7.7845950
  67.5521890   4.1091410   6.9499410  67.8592920   4.5804090   8.3554570
  71.0815200   2.7218520   7.8762190  70.2533830   2.7911610   7.4012320
  71.6765680   3.3072830   7.4078020  60.1790000   2.2947740   3.6835730
  59.7747000   1.5824990   3.1881630  60.2653120   1.9500980   4.5723770
  60.6471700   5.9815300   5.8474940  60.3499990   5.3760770   5.1682720
  61.5971520   6.0192610   5.7364300  68.7357310   9.5547170   9.5098040
  68.2587870  10.3619360   9.3170650  68.0519100   8.9025500   9.6624250
  59.7390130   5.7196990  12.4982740  58.8418660   5.9436960  12.7456140
  59.7643000   5.8431930  11.5494140  58.5661350   2.5910310  11.0740110
  58.4269120   3.4633110  11.4427510  57.6842710   2.2483120  10.9288050
  64.8890730   7.5086180   2.3805240  65.3286640   8.2510510   1.9660630
  64.8277620   7.7512750   3.3044200  60.3641700   8.5332010  13.2825260
  60.3357130   8.9374960  12.4153690  60.2006670   7.6042370  13.1196860
  72.3156520   9.3159110  14.5789430  72.7916240   9.7942000  15.2578510
  72.9363680   9.2476600  13.8534930  54.5180000   4.3607860   6.9911020
  54.5960420   4.4956630   6.0466740  55.1321680   3.6523750   7.1839140
  55.7627630   6.0608050   3.4017200  55.3555710   6.2022640   2.5470800
  56.6540640   5.7768210   3.1988410  71.7189770   6.5071960  11.7389440
  71.8452830   6.2683840  10.8206620  71.7611150   5.6756500  12.2111520
  65.5806510  10.2099960  10.3084250  66.0951180  10.1207970  11.1106680
  64.7375590  10.5559660  10.6012160  66.8236970   9.6305570   2.3714740
  67.2793920   8.8494950   2.6853360  67.1629490  10.3412390   2.9155920
  54.5739520   5.4022030   9.5305480  54.7370560   4.9327390   8.7124850
  55.0391970   4.8945590  10.1954320  56.1478500   4.7773460  11.6901290
  55.7633290   4.1367130  12.2884250  56.4590690   5.4809580  12.2596020
  69.3744780   3.8684990   5.8787360  70.0943900   4.3640280   5.4883470
  69.1726600   3.1902880   5.2341230  64.7563580   3.9394050  11.7656360
  64.6900890   3.0189720  11.5113950  64.1268720   4.0369490  12.4801000
  58.6594200   4.5400010   3.7239780  59.1772870   3.7368270   3.6696670
  58.2078220   4.4779150   4.5656610  64.6880310   6.7614620  11.5160160
  64.7024850   5.8295580  11.2979070  63.9805410   6.8474380  12.1549930
  70.8991520   3.4021960  10.8628740  70.1739710   3.9950740  10.6658130
  71.4266980   3.3945500  10.0642110  66.4291110   5.1282130   4.3612590
  66.7814930   4.5310260   3.7013960  65.5453440   4.8026360   4.5320840
  62.5154390   5.8879820   1.7683000  63.2025520   6.4349030   2.1490590
  61.7286810   6.4320550   1.8032610  64.1214210   8.4032190   8.6100660
  64.7656430   8.6091570   9.2874080  64.4843650   7.6420590   8.1571510
  65.3946290   6.4064540   7.3278110  66.0368520   5.7057700   7.4410280
  65.9195640   7.1862980   7.1475000  67.1683910   7.2059440  10.5314170
  67.5040150   7.7926130  11.2092090  66.2484250   7.0752150  10.7611960
  55.0059900   8.9834880  12.3004110  55.1151020   8.0429620  12.1599500
  54.3540460   9.2489630  11.6517840  62.9972490   7.2550770  13.7002230
  62.6769360   6.5360010  14.2447920  62.3230850   7.9305840  13.7738290
  70.6742530   8.7726510   5.2521010  70.7989950   9.5957680   5.7244820
  71.5408090   8.5617240   4.9045160  58.1460060  10.8657720   4.9238140
  58.8822540  10.3173180   5.1946710  58.5300980  11.7313730   4.7844130
  57.1518340  10.0503790  14.1123720  57.9531070  10.3715840  14.5259120
  56.6370160   9.6899370  14.8343630  65.9882970   6.1583660  14.0599130
  65.3821130   6.1815260  13.3194880  65.6837080   5.4266700  14.5966380
  67.4183340   9.8863950  12.6708540  68.3705090   9.8021970  12.6208780
  67.2711560  10.5505660  13.3442330  54.8716150   2.5377250  13.0559770
  55.3755170   1.9584530  13.6276000  54.1323570   2.8217480  13.5936140
  61.9254090   3.9448240  12.5895290  61.1599760   4.5133240  12.5049960
  62.1070050   3.6524450  11.6963520  69.0677440   5.6753570  13.1470310
  69.8086910   6.0129330  12.6437770  68.3050120   5.8445630  12.5940080
  67.7423100   3.7268400  11.6825520  68.1564120   3.8813480  12.5315940
  66.8074100   3.8523620  11.8451300  62.5038330   3.6788880   9.6521450
  62.9226440   4.5221610   9.4797690  61.5846960   3.8160920   9.4228230
  67.1790130   1.9642250   9.6121800  66.6525350   2.4884870   9.0086940
  67.5221470   2.5969640  10.2431530  60.3545750   9.9841890  10.7679180
  59.8166840  10.7087950  10.4487880  60.6079710   9.5072230   9.9776520
  63.2107960  11.2193100  11.0265830  63.1366660  12.1228240  11.3338200
  62.3086800  10.9005000  10.9987900  54.6135250   8.5467690   4.3299450
  54.9438260   7.6788750   4.0978090  55.0426250   8.7526210   5.1604410
  55.1025460   9.4138280   7.0681080  54.6656450   9.5939080   7.9005230
  55.6703140  10.1712900   6.9262800  70.7387640   8.9155280  11.3558390
  70.1389630   8.9747840  10.6122310  70.8681540   7.9760260  11.4855240
  54.9349890   1.9258510   3.4269960  54.2798730   1.6570150   2.7829660
  55.7727840   1.8162990   2.9771940  72.4405520   4.2570680   4.0404230
  72.8114350   3.4738000   3.6340200  73.0807450   4.9459780   3.8621530
  69.4239280   5.6407260   9.4534550  68.6099120   6.0704420   9.7160340
  69.8313480   6.2525670   8.8403600  55.9725820   2.3111080   7.9673300
  56.3398860   2.2238480   8.8469320  55.4036640   1.5477630   7.8680160
  69.4815330  10.3925860   2.9802820  70.0774400  10.0710430   2.3037240
  69.7393480   9.9197680   3.7716090  57.3877900   6.8243770  13.1293450
  57.3447530   6.4536680  14.0107910  57.5188910   7.7621340  13.2695270
  61.0883930   8.3803360   8.7303170  60.8475290   8.6477920   7.8433690
  62.0286570   8.5509090   8.7854030  72.3488090  10.3997740   9.5313810
  71.8546370  10.7966610   8.8140940  71.7401380   9.7746950   9.9251090
  57.2265930   9.7706020  10.2491230  56.6326250   9.6390720  10.9881270
  57.2189770   8.9344160   9.7833330  70.0327540  11.0421160   6.8100550
  69.5730510  11.7936970   6.4358570  69.4040000  10.3227630   6.7515350
  56.8578160   7.1364400   9.1999270  56.1312220   6.5169690   9.1325220
  56.9187310   7.5305010   8.3297350  60.4623260   9.3509400   5.9848680
  60.9788280   8.7396760   5.4596940  61.1120640   9.8538180   6.4759690
  63.2018760  10.2417890   6.8117660  63.4896570   9.9872190   5.9350670
  63.7141980   9.6895250   7.4023230  55.1408160  10.4538790   2.4096030
  54.9730200   9.8209470   3.1077920  54.2742670  10.6598190   2.0590220
  63.2691120  11.1633990  14.1785860  64.1958430  10.9278260  14.2221820
  63.2541550  11.9905990  13.6971890  69.8368680  10.3903850  14.0026900
  70.6294000   9.8953080  13.7952860  70.1301830  11.0693990  14.6102510
  47.1884850 113.9085730  97.5303890  47.1078900 112.9940340  97.2595600
  46.7749270 114.4052800  96.8243600  37.7460670 110.9586450  94.0731310
  36.8577370 111.3002420  93.9711190  38.0301860 110.7586770  93.1812140
  35.7093680 113.5592100  99.9571010  36.2809790 112.7914300  99.9574650
  35.7095220 113.8580860  99.0477620  36.9518550 108.9676460 101.7439940
  36.7721390 108.0702210 102.0242700  36.5498630 109.5148330 102.4186890
  45.7917050 111.1692320  99.6452250  46.1681870 110.2964200  99.5325920
  45.6936560 111.5051020  98.7542690  39.9222060 109.5417950  95.1069690
  40.0288810 110.4421680  95.4138450  39.0114420 109.4935920  94.8164340
  49.5741170 108.6642760  96.5780590  50.3950790 108.1739330  96.6206070
  49.6075250 109.2540420  97.3312430  37.5705220 111.4636960 100.3522280
  38.2515330 111.7275330 100.9709680  37.2553270 110.6237830 100.6860290
  41.7629790 112.5104320  99.4394870  42.2708010 113.0085290 100.0799890
  42.2943030 111.7339520  99.2634230  49.8102650 110.6043140  99.3508130
  49.1058220 110.8928030  99.9311240  50.1714810 111.4143250  98.9907690
  39.7281220 108.8612840 101.7128740  40.0698030 109.7054890 101.4182610
  38.7897030 109.0096580 101.8294080  52.8789570 110.0497930  99.7417340
  51.9314480 110.0836910  99.8732770  53.2039560 110.8636880 100.1266700
  43.4109110 106.3495110  98.0373330  43.7184090 105.7942000  97.3208830
  42.4809810 106.4839570  97.8546320  45.7858950 110.6860940  91.7700610
  44.8462620 110.8474900  91.8553070  46.1042210 111.4046620  91.2236600
  41.4046510 114.9408680  97.5553180  41.0003510 114.2285930  97.0599080
  41.4909630 114.5961920  98.4441220  40.1175130 111.7151890 101.3352220
  40.6689720 111.8247230 100.5605470  40.6318640 112.0889490 102.0507450
  51.5869000 106.4693860  90.5982490  51.2741660 106.5620690  91.4981560
  52.3481470 107.0474890  90.5479920  38.1051140 113.8353660  95.0559830
  37.9848740 114.5615750  94.4441100  37.7952030 113.0656570  94.5787740
  40.5714800 107.1788730  98.4383500  40.1282950 107.9598270  98.1068020
  41.1299790 107.5018620  99.1454440  43.6873620 106.7999430  93.3189330
  43.0627800 106.7959300  94.0442640  43.6003740 105.9330390  92.9225300
  42.6090700 107.7236060 100.2973100  42.9063030 108.6298890 100.2165120
  43.1576260 107.2354840  99.6832670  40.3629020 112.3022300  96.1664750
  40.1369940 112.0859470  97.0711370  39.5821550 112.7350760  95.8210720
  47.5926780 112.3085670  94.7655400  46.9935670 113.0321470  94.5819020
  48.1406390 112.2462450  93.9831850  46.1991650 110.9449210  96.7958680
  46.5921220 111.2621410  95.9827370  46.5608500 110.0661090  96.9103200
  35.2355820 107.5350010  99.0188880  34.9468870 108.1052870  99.7313860
  35.9801580 107.0554460  99.3820110  35.4226050 111.4770130  90.2291600
  35.3400720 112.4200890  90.3706590  35.0709110 111.3345040  89.3503950
  46.7846790 113.5354960 100.8909460  46.0527910 114.0441770 101.2399560
  46.3871130 112.7184940 100.5898240  43.2224180 110.2109160  99.2961950
  43.2260240 109.7699110  98.4466490  44.1175300 110.5326490  99.4033770
  39.0726560 110.0935650  98.2556160  38.7326610 110.5710880  99.0123210
  38.3103880 109.6400770  97.8957260  43.2844330 111.2121240  92.2868710
  43.4057150 111.1707720  93.2354530  42.8992840 112.0745390  92.1315440
  47.2472700 108.9888640 100.3032400  47.2645440 109.4397290 101.1474250
  46.9988280 108.0894280 100.5165840  42.2965830 113.5222380  91.6852010
  41.7282730 113.0740630  91.0587920  43.0054830 113.8815160  91.1517160
  43.5232150 114.2710940 101.0427360  43.8902280 113.7969510 101.7888700
  43.3337210 115.1452510 101.3835700  36.3872640 109.0154630  97.1720830
  36.1019560 108.6510300  98.0099450  36.3251500 108.2835090  96.5583970
  46.0611230 107.9083890  93.8934200  45.2475840 107.4097060  93.8179510
  45.8673180 108.7482140  93.4770550  48.7759620 112.2803540  92.1896360
  49.6639240 112.5920770  92.0147700  48.7464710 111.4075790  91.7976940
  51.0473890 113.5915380  91.6576220  50.9637610 114.0229600  90.8072660
  51.7668080 114.0513730  92.0903040  35.8803300 114.1513580  91.1317530
  36.7498150 114.4338380  91.4153450  35.3893620 114.9649450  91.0166340
  38.9449890 105.8824440  95.7248330  38.8164520 105.8742340  96.6733250
  38.1211910 106.2207530  95.3739340  50.8044630 109.0894810  93.7444040
  50.1757790 109.1940480  93.0302270  50.3096550 109.3091590  94.5337920
  42.7728660 111.3680760  95.1601920  42.0644810 111.8367100  95.6015530
  43.0573140 110.7102770  95.7947110  46.8044090 108.0931420  96.5997710
  46.6811870 108.1117550  95.6507220  47.7528650 108.1410360  96.7196110
  40.9763680 109.6765840  92.5352630  41.8254210 110.1135990  92.4692820
  40.6094950 109.9886100  93.3624690  49.8973460 114.2478600  97.4484200
  48.9563600 114.2628830  97.6231890  50.2117530 113.4614560  97.8944500
  38.5701860 113.3623270  91.6921050  38.6505450 112.4150780  91.8038450
  39.4621610 113.6930150  91.7981710  40.8033030 111.9996560  89.9288960
  40.6022090 111.1363920  90.2902300  40.6325080 111.9129920  88.9910560
  48.2821340 106.8104790  92.4575840  48.5623630 105.9672690  92.8135260
  47.5087070 107.0427900  92.9714590  39.6015830 109.0997180  89.9166840
  39.9041730 109.1064610  89.0085990  40.3410420 108.7495040  90.4134500
  42.8200760 108.0431800  90.9023040  42.4722760 107.3655790  90.3225490
  43.0213530 107.5821310  91.7166430  36.1606400 114.5719450  97.2987410
  35.5055240 114.3031090  96.6547110  36.9984350 114.4623930  96.8489390
  49.1096840 109.3660740  91.5205900  49.5281720 109.1791720  90.6802560
  48.8032900 108.5139790  91.8308830  52.6086570 114.2784880  95.2181700
  52.2330170 113.5112810  94.7862990  51.8789690 114.6607580  95.7056630
  37.1982330 114.9572020 101.8390750  37.5655370 114.8699420 102.7186770
  36.6293150 114.1938570 101.7397610  35.3744480 111.7818380  93.2412740
  34.4708560 112.0448580  93.0664400  35.8585100 112.0529550  92.4612700
  51.8837530 112.5042370  98.5188940  52.4075010 112.0105020  97.8879110
  52.4696950 112.6392730  99.2636510  52.0627250 112.5882240 102.0408490
  51.1129960 112.5545780 102.1553480  52.2440260 113.4982350 101.8058260
  37.9171690 110.8383920  91.1507120  38.6263390 110.4167140  90.6654400
  37.2011630 110.9059150  90.5190470  37.5645850 106.8923250  90.1909770
  38.2873980 107.4332190  90.5090990  37.8370370 106.6186670  89.3151310
  51.3737500 111.7615720  94.4581350  51.8696620 111.5286590  95.2430230
  51.1753570 110.9227560  94.0418990  37.2538040 106.1429440 100.0932390
  37.9014230 105.5926820  99.6527550  37.6739880 106.3972590 100.9148200
  52.8024660 110.3976670  96.9919030  52.6923940 110.2432710  97.9301300
  53.5632250 109.8697610  96.7494440  53.6914930 108.2284590  90.2325170
  54.6164240 108.0965770  90.0243460  53.6690720 108.3077410  91.1861620
  53.7653420 108.9995250  92.8581880  52.9704920 108.9340370  93.3874790
  53.9696700 109.9345890  92.8467230  45.6452280 106.6269030 101.2631620
  44.8624070 107.1014530 101.5428380  45.3515210 105.7223860 101.1544800
  50.1973350 107.3292130  99.3080710  50.6381440 107.2737230  98.4602310
  49.9280940 108.2450140  99.3790890  52.0611920 106.9607370  97.3189530
  52.0000320 106.0168590  97.1720550  52.8403950 107.0687460  97.8642990
  36.9892690 106.9316510  93.7845340  37.7472050 107.0445390  93.2109370
  36.5269860 107.7685710  93.7388770  43.5306500 109.0455780  96.7747650
  42.7181010 108.6712670  96.4343530  44.0348140 108.2900860  97.0768840
  48.0331480 105.7098230  98.0130720  48.6360850 106.2818440  98.4879240
  47.2924470 106.2737670  97.7904620  51.1766080 106.1119790  93.2871000
  51.3716710 107.0103240  93.5538430  50.3895950 105.8806870  93.7803950
  39.3617840 107.4580560  92.3247310  39.8910600 106.6710360  92.1955260
  39.9946160 108.1371750  92.5582840  41.5555680 107.1955700  95.3792700
  40.9258420 106.4943010  95.5462830  41.0160820 107.9559830  95.1625860
  47.1884850 113.9085730  78.7560400  47.1078900 112.9940340  78.4852110
  46.7749270 114.4052800  78.0500110  37.7460670 110.9586450  75.2987820
  36.8577370 111.3002420  75.1967700  38.0301860 110.7586770  74.4068650
  35.7093680 113.5592100  81.1827520  36.2809790 112.7914300  81.1831160
  35.7095220 113.8580860  80.2734130  36.9518550 108.9676460  82.9696450
  36.7721390 108.0702210  83.2499210  36.5498630 109.5148330  83.6443400
  45.7917050 111.1692320  80.8708760  46.1681870 110.2964200  80.7582430
  45.6936560 111.5051020  79.9799200  39.9222060 109.5417950  76.3326200
  40.0288810 110.4421680  76.6394960  39.0114420 109.4935920  76.0420850
  49.5741170 108.6642760  77.8037100  50.3950790 108.1739330  77.8462580
  49.6075250 109.2540420  78.5568940  37.5705220 111.4636960  81.5778790
  38.2515330 111.7275330  82.1966190  37.2553270 110.6237830  81.9116800
  41.7629790 112.5104320  80.6651380  42.2708010 113.0085290  81.3056400
  42.2943030 111.7339520  80.4890740  53.8640720 110.6809510  84.3680730
  53.1592890 111.0691220  83.8495840  54.1298640 111.3759800  84.9701660
  40.0465890 107.1502880  84.9314800  40.0484330 107.6675270  84.1260700
  39.2170200 106.6733060  84.9084730  49.8102650 110.6043140  80.5764640
  49.1058220 110.8928030  81.1567750  50.1714810 111.4143250  80.2164200
  39.7281220 108.8612840  82.9385250  40.0698030 109.7054890  82.6439120
  38.7897030 109.0096580  83.0550590  52.8789570 110.0497930  80.9673850
  51.9314480 110.0836910  81.0989280  53.2039560 110.8636880  81.3523210
  43.4109110 106.3495110  79.2629840  43.7184090 105.7942000  78.5465340
  42.4809810 106.4839570  79.0802830  45.7858950 110.6860940  72.9957120
  44.8462620 110.8474900  73.0809580  46.1042210 111.4046620  72.4493110
  49.2713720 112.1548780  83.9191020  48.8584900 112.9802490  84.1731010
  48.5389670 111.5693820  83.7267380  41.4046510 114.9408680  78.7809690
  41.0003510 114.2285930  78.2855590  41.4909630 114.5961920  79.6697730
  40.1175130 111.7151890  82.5608730  40.6689720 111.8247230  81.7861980
  40.6318640 112.0889490  83.2763960  51.5869000 106.4693860  71.8239000
  51.2741660 106.5620690  72.7238070  52.3481470 107.0474890  71.7736430
  38.1051140 113.8353660  76.2816340  37.9848740 114.5615750  75.6697610
  37.7952030 113.0656570  75.8044250  52.7970290 111.2065360  87.8013140
  52.1814560 111.7145030  87.2728600  52.4766710 110.3063690  87.7439080
  40.5714800 107.1788730  79.6640010  40.1282950 107.9598270  79.3324530
  41.1299790 107.5018620  80.3710950  44.8584610 110.0457250  85.2675330
  44.3963980 110.2540270  86.0795270  44.4562720 109.2316600  84.9646000
  49.8589120 111.2666200  86.3971990  49.0082710 110.9671950  86.7181060
  49.6990910 111.5108210  85.4855810  46.9538830 112.7667950  88.4970780
  47.2792240 111.9331700  88.1573010  47.7419160 113.2896470  88.6449110
  43.6873620 106.7999430  74.5445840  43.0627800 106.7959300  75.2699150
  43.6003740 105.9330390  74.1481810  42.6090700 107.7236060  81.5229610
  42.9063030 108.6298890  81.4421630  43.1576260 107.2354840  80.9089180
  40.3629020 112.3022300  77.3921260  40.1369940 112.0859470  78.2967880
  39.5821550 112.7350760  77.0467230  47.5926780 112.3085670  75.9911910
  46.9935670 113.0321470  75.8075530  48.1406390 112.2462450  75.2088360
  42.8028230 113.2007880  88.0581530  42.7071830 112.2602610  87.9081930
  43.6460210 113.4222950  87.6629600  46.1991650 110.9449210  78.0215190
  46.5921220 111.2621410  77.2083880  46.5608500 110.0661090  78.1359710
  37.9338770 109.6121550  86.2115310  37.5402160 110.4596760  86.4188090
  37.2457170 108.9747920  86.4023950  44.5083820 109.6956520  89.2812050
  43.8182140 109.5028720  89.9158140  45.2516120 109.9791160  89.8136350
  35.2355820 107.5350010  80.2445390  34.9468870 108.1052870  80.9570370
  35.9801580 107.0554460  80.6076620  35.4226050 111.4770130  71.4548110
  35.3400720 112.4200890  71.5963100  35.0709110 111.3345040  70.5760460
  46.7846790 113.5354960  82.1165970  46.0527910 114.0441770  82.4656070
  46.3871130 112.7184940  81.8154750  43.2224180 110.2109160  80.5218460
  43.2260240 109.7699110  79.6723000  44.1175300 110.5326490  80.6290280
  39.0726560 110.0935650  79.4812670  38.7326610 110.5710880  80.2379720
  38.3103880 109.6400770  79.1213770  43.2844330 111.2121240  73.5125220
  43.4057150 111.1707720  74.4611040  42.8992840 112.0745390  73.3571950
  47.2472700 108.9888640  81.5288910  47.2645440 109.4397290  82.3730760
  46.9988280 108.0894280  81.7422350  42.2965830 113.5222380  72.9108520
  41.7282730 113.0740630  72.2844430  43.0054830 113.8815160  72.3773670
  50.6743450 106.4020820  87.3675290  50.9989220 105.6710480  87.8933270
  50.7099960 106.0834460  86.4656280  43.5232150 114.2710940  82.2683870
  43.8902280 113.7969510  83.0145210  43.3337210 115.1452510  82.6092210
  36.3872640 109.0154630  78.3977340  36.1019560 108.6510300  79.2355960
  36.3251500 108.2835090  77.7840480  41.3131520 113.3119580  84.5868080
  41.0088590 114.1911560  84.8118440  42.2677980 113.3719370  84.6225520
  46.0611230 107.9083890  75.1190710  45.2475840 107.4097060  75.0436020
  45.8673180 108.7482140  74.7027060  48.7759620 112.2803540  73.4152870
  49.6639240 112.5920770  73.2404210  48.7464710 111.4075790  73.0233450
  37.3695250 114.1522320  85.7339440  37.0110190 114.8176170  86.3212780
  37.0749810 113.3205870  86.1052060  40.5708370 114.6106560  88.6178990
  40.2708510 114.7563740  87.7206810  41.3419610 114.0511850  88.5252380
  51.0473890 113.5915380  72.8832730  50.9637610 114.0229600  72.0329170
  51.7668080 114.0513730  73.3159550  35.8803300 114.1513580  72.3574040
  36.7498150 114.4338380  72.6409960  35.3893620 114.9649450  72.2422850
  38.9449890 105.8824440  76.9504840  38.8164520 105.8742340  77.8989760
  38.1211910 106.2207530  76.5995850  35.9443820 107.6415560  86.4111540
  35.2302340 107.8412480  87.0164150  36.3638860 106.8655130  86.7826340
  47.4382600 110.1337870  84.1612990  47.8063420 109.3133080  84.4892560
  46.5780800 110.1939760  84.5768640  50.8044630 109.0894810  74.9700550
  50.1757790 109.1940480  74.2558780  50.3096550 109.3091590  75.7594430
  42.7728660 111.3680760  76.3858430  42.0644810 111.8367100  76.8272040
  43.0573140 110.7102770  77.0203620  44.3984590 112.7877460  84.3850960
  44.8969840 113.2623280  85.0502810  44.5407540 111.8640980  84.5920990
  46.8044090 108.0931420  77.8254220  46.6811870 108.1117550  76.8763730
  47.7528650 108.1410360  77.9452620  40.9763680 109.6765840  73.7609140
  41.8254210 110.1135990  73.6949330  40.6094950 109.9886100  74.5881200
  51.6051450 109.0045420  85.2279350  51.1025050 109.7450820  85.5673160
  52.4208110 109.3929420  84.9116140  49.8973460 114.2478600  78.6740710
  48.9563600 114.2628830  78.8488400  50.2117530 113.4614560  79.1201010
  38.5701860 113.3623270  72.9177560  38.6505450 112.4150780  73.0294960
  39.4621610 113.6930150  73.0238220  38.1295740 113.3267780  89.0483800
  38.1701080 113.0281650  89.9569030  38.9841240 113.7275390  88.8891320
  40.0701550 111.9059880  87.0158290  39.5398010 111.4150830  86.3881630
  40.7389620 112.3344080  86.4816220  49.4401780 113.7125500  88.7838630
  50.0222550 112.9577820  88.6959110  49.6163550 114.2432940  88.0070110
  40.5573850 108.8722250  87.0955580  40.4630720 108.2543000  86.3706450
  39.9771240 109.5988540  86.8685490  43.3235290 107.4295490  84.1282970
  42.8752590 107.4519750  83.2828520  42.6900490 107.0314510  84.7253270
  46.0658740 114.0566000  86.1333250  46.1854950 113.4607140  86.8728090
  46.9252740 114.0935690  85.7134550  40.8033030 111.9996560  71.1545470
  40.6022090 111.1363920  71.5158810  40.6325080 111.9129920  70.2167070
  42.8327510 110.5987350  87.3909070  43.4227200 110.2903200  88.0786890
  42.0147750 110.1267100  87.5468970  47.6520940 110.2153160  87.6242090
  46.9636460 109.5534700  87.5592080  48.3726960 109.7691430  88.0690550
  48.2821340 106.8104790  73.6832350  48.5623630 105.9672690  74.0391770
  47.5087070 107.0427900  74.1971100  39.6015830 109.0997180  71.1423350
  39.9041730 109.1064610  70.2342500  40.3410420 108.7495040  71.6391010
  42.8200760 108.0431800  72.1279550  42.4722760 107.3655790  71.5482000
  43.0213530 107.5821310  72.9422940  36.1606400 114.5719450  78.5243920
  35.5055240 114.3031090  77.8803620  36.9984350 114.4623930  78.0745900
  49.1096840 109.3660740  72.7462410  49.5281720 109.1791720  71.9059070
  48.8032900 108.5139790  73.0565340  52.6086570 114.2784880  76.4438210
  52.2330170 113.5112810  76.0119500  51.8789690 114.6607580  76.9313140
  37.1982330 114.9572020  83.0647260  37.5655370 114.8699420  83.9443280
  36.6293150 114.1938570  82.9654120  51.9986190 113.4256400  86.0777730
  51.7672280 113.1969150  85.1775680  52.2590740 114.3455950  86.0322620
  36.7498330 111.8681110  86.9705680  35.8554380 111.8347870  87.3099390
  37.2895880 112.0667900  87.7356930  50.4374260 108.6512830  88.8557430
  51.3144440 108.6596230  89.2391430  50.4495100 107.9143670  88.2449780
  35.3744480 111.7818380  74.4669250  34.4708560 112.0448580  74.2920910
  35.8585100 112.0529550  73.6869210  51.8837530 112.5042370  79.7445450
  52.4075010 112.0105020  79.1135620  52.4696950 112.6392730  80.4893020
  52.0627250 112.5882240  83.2665000  51.1129960 112.5545780  83.3809990
  52.2440260 113.4982350  83.0314770  37.9171690 110.8383920  72.3763630
  38.6263390 110.4167140  71.8910910  37.2011630 110.9059150  71.7446980
  37.5645850 106.8923250  71.4166280  38.2873980 107.4332190  71.7347500
  37.8370370 106.6186670  70.5407820  51.3737500 111.7615720  75.6837860
  51.8696620 111.5286590  76.4686740  51.1753570 110.9227560  75.2675500
  37.2538040 106.1429440  81.3188900  37.9014230 105.5926820  80.8784060
  37.6739880 106.3972590  82.1404710  52.8024660 110.3976670  78.2175540
  52.6923940 110.2432710  79.1557810  53.5632250 109.8697610  77.9750950
  51.1490380 106.3370800  84.6758540  51.7862600 106.9504940  85.0417730
  51.2965270 106.3731460  83.7307770  53.6914930 108.2284590  71.4581680
  54.6164240 108.0965770  71.2499970  53.6690720 108.3077410  72.4118130
  53.7653420 108.9995250  74.0838390  52.9704920 108.9340370  74.6131300
  53.9696700 109.9345890  74.0723740  37.0070040 106.2985110  84.0614220
  36.6584860 106.7548930  84.8272400  36.6757740 105.4042240  84.1436650
  44.5194860 107.4896990  87.5833640  44.4583750 108.0818820  88.3329050
  45.4595240 107.3822950  87.4383900  47.1569420 107.1467050  87.2225930
  47.7709830 107.4646340  86.5607010  47.7018980 106.6615640  87.8421790
  37.6790680 105.8261310  87.3364990  38.2273670 105.6449360  86.5731100
  37.7445990 105.0355420  87.8721300  47.8977460 105.7099190  83.5495220
  47.0237300 106.0434300  83.3468150  47.7888210 105.2372370  84.3747090
  48.8049440 107.9170060  84.9336940  48.4762800 107.1021820  84.5538670
  49.7531740 107.8739870  84.8102630  45.6452280 106.6269030  82.4888130
  44.8624070 107.1014530  82.7684890  45.3515210 105.7223860  82.3801310
  50.1973350 107.3292130  80.5337220  50.6381440 107.2737230  79.6858820
  49.9280940 108.2450140  80.6047400  52.0611920 106.9607370  78.5446040
  52.0000320 106.0168590  78.3977060  52.8403950 107.0687460  79.0899500
  36.9892690 106.9316510  75.0101850  37.7472050 107.0445390  74.4365880
  36.5269860 107.7685710  74.9645280  43.5306500 109.0455780  78.0004160
  42.7181010 108.6712670  77.6600040  44.0348140 108.2900860  78.3025350
  48.0331480 105.7098230  79.2387230  48.6360850 106.2818440  79.7135750
  47.2924470 106.2737670  79.0161130  51.1766080 106.1119790  74.5127510
  51.3716710 107.0103240  74.7794940  50.3895950 105.8806870  75.0060460
  39.3617840 107.4580560  73.5503820  39.8910600 106.6710360  73.4211770
  39.9946160 108.1371750  73.7839350  41.5555680 107.1955700  76.6049210
  40.9258420 106.4943010  76.7719340  41.0160820 107.9559830  76.3882370
  41.6811240 106.4739680  89.0401700  41.3995510 106.9773280  88.2762520
  42.0630940 105.6761430  88.6743830  48.2826700 105.8893260  89.6182170
  48.1692150 106.2087870  90.5133690  49.0996440 106.2905770  89.3219450
  47.1884850 113.9085730  59.9816910  47.1078900 112.9940340  59.7108620
  46.7749270 114.4052800  59.2756620  37.7460670 110.9586450  56.5244330
  36.8577370 111.3002420  56.4224210  38.0301860 110.7586770  55.6325160
  35.7093680 113.5592100  62.4084030  36.2809790 112.7914300  62.4087670
  35.7095220 113.8580860  61.4990640  36.9518550 108.9676460  64.1952960
  36.7721390 108.0702210  64.4755720  36.5498630 109.5148330  64.8699910
  45.7917050 111.1692320  62.0965270  46.1681870 110.2964200  61.9838940
  45.6936560 111.5051020  61.2055710  39.9222060 109.5417950  57.5582710
  40.0288810 110.4421680  57.8651470  39.0114420 109.4935920  57.2677360
  49.5741170 108.6642760  59.0293610  50.3950790 108.1739330  59.0719090
  49.6075250 109.2540420  59.7825450  37.5705220 111.4636960  62.8035300
  38.2515330 111.7275330  63.4222700  37.2553270 110.6237830  63.1373310
  41.7629790 112.5104320  61.8907890  42.2708010 113.0085290  62.5312910
  42.2943030 111.7339520  61.7147250  53.8640720 110.6809510  65.5937240
  53.1592890 111.0691220  65.0752350  54.1298640 111.3759800  66.1958170
  40.0465890 107.1502880  66.1571310  40.0484330 107.6675270  65.3517210
  39.2170200 106.6733060  66.1341240  49.8102650 110.6043140  61.8021150
  49.1058220 110.8928030  62.3824260  50.1714810 111.4143250  61.4420710
  39.7281220 108.8612840  64.1641760  40.0698030 109.7054890  63.8695630
  38.7897030 109.0096580  64.2807100  52.8789570 110.0497930  62.1930360
  51.9314480 110.0836910  62.3245790  53.2039560 110.8636880  62.5779720
  43.4109110 106.3495110  60.4886350  43.7184090 105.7942000  59.7721850
  42.4809810 106.4839570  60.3059340  45.7858950 110.6860940  54.2213630
  44.8462620 110.8474900  54.3066090  46.1042210 111.4046620  53.6749620
  49.2713720 112.1548780  65.1447530  48.8584900 112.9802490  65.3987520
  48.5389670 111.5693820  64.9523890  41.4046510 114.9408680  60.0066200
  41.0003510 114.2285930  59.5112100  41.4909630 114.5961920  60.8954240
  40.1175130 111.7151890  63.7865240  40.6689720 111.8247230  63.0118490
  40.6318640 112.0889490  64.5020470  51.5869000 106.4693860  53.0495510
  51.2741660 106.5620690  53.9494580  52.3481470 107.0474890  52.9992940
  38.1051140 113.8353660  57.5072850  37.9848740 114.5615750  56.8954120
  37.7952030 113.0656570  57.0300760  52.7970290 111.2065360  69.0269650
  52.1814560 111.7145030  68.4985110  52.4766710 110.3063690  68.9695590
  40.5714800 107.1788730  60.8896520  40.1282950 107.9598270  60.5581040
  41.1299790 107.5018620  61.5967460  44.8584610 110.0457250  66.4931840
  44.3963980 110.2540270  67.3051780  44.4562720 109.2316600  66.1902510
  49.8589120 111.2666200  67.6228500  49.0082710 110.9671950  67.9437570
  49.6990910 111.5108210  66.7112320  46.9538830 112.7667950  69.7227290
  47.2792240 111.9331700  69.3829520  47.7419160 113.2896470  69.8705620
  43.6873620 106.7999430  55.7702350  43.0627800 106.7959300  56.4955660
  43.6003740 105.9330390  55.3738320  42.6090700 107.7236060  62.7486120
  42.9063030 108.6298890  62.6678140  43.1576260 107.2354840  62.1345690
  40.3629020 112.3022300  58.6177770  40.1369940 112.0859470  59.5224390
  39.5821550 112.7350760  58.2723740  47.5926780 112.3085670  57.2168420
  46.9935670 113.0321470  57.0332040  48.1406390 112.2462450  56.4344870
  42.8028230 113.2007880  69.2838040  42.7071830 112.2602610  69.1338440
  43.6460210 113.4222950  68.8886110  46.1991650 110.9449210  59.2471700
  46.5921220 111.2621410  58.4340390  46.5608500 110.0661090  59.3616220
  37.9338770 109.6121550  67.4371820  37.5402160 110.4596760  67.6444600
  37.2457170 108.9747920  67.6280460  44.5083820 109.6956520  70.5068560
  43.8182140 109.5028720  71.1414650  45.2516120 109.9791160  71.0392860
  35.2355820 107.5350010  61.4701900  34.9468870 108.1052870  62.1826880
  35.9801580 107.0554460  61.8333130  35.4226050 111.4770130  52.6804620
  35.3400720 112.4200890  52.8219610  35.0709110 111.3345040  51.8016970
  46.7846790 113.5354960  63.3422480  46.0527910 114.0441770  63.6912580
  46.3871130 112.7184940  63.0411260  43.2224180 110.2109160  61.7474970
  43.2260240 109.7699110  60.8979510  44.1175300 110.5326490  61.8546790
  39.0726560 110.0935650  60.7069180  38.7326610 110.5710880  61.4636230
  38.3103880 109.6400770  60.3470280  43.2844330 111.2121240  54.7381730
  43.4057150 111.1707720  55.6867550  42.8992840 112.0745390  54.5828460
  47.2472700 108.9888640  62.7545420  47.2645440 109.4397290  63.5987270
  46.9988280 108.0894280  62.9678860  42.2965830 113.5222380  54.1365030
  41.7282730 113.0740630  53.5100940  43.0054830 113.8815160  53.6030180
  50.6743450 106.4020820  68.5931800  50.9989220 105.6710480  69.1189780
  50.7099960 106.0834460  67.6912790  43.5232150 114.2710940  63.4940380
  43.8902280 113.7969510  64.2401720  43.3337210 115.1452510  63.8348720
  36.3872640 109.0154630  59.6233850  36.1019560 108.6510300  60.4612470
  36.3251500 108.2835090  59.0096990  41.3131520 113.3119580  65.8124590
  41.0088590 114.1911560  66.0374950  42.2677980 113.3719370  65.8482030
  46.0611230 107.9083890  56.3447220  45.2475840 107.4097060  56.2692530
  45.8673180 108.7482140  55.9283570  48.7759620 112.2803540  54.6409380
  49.6639240 112.5920770  54.4660720  48.7464710 111.4075790  54.2489960
  37.3695250 114.1522320  66.9595950  37.0110190 114.8176170  67.5469290
  37.0749810 113.3205870  67.3308570  40.5708370 114.6106560  69.8435500
  40.2708510 114.7563740  68.9463320  41.3419610 114.0511850  69.7508890
  51.0473890 113.5915380  54.1089240  50.9637610 114.0229600  53.2585680
  51.7668080 114.0513730  54.5416060  35.8803300 114.1513580  53.5830550
  36.7498150 114.4338380  53.8666470  35.3893620 114.9649450  53.4679360
  38.9449890 105.8824440  58.1761350  38.8164520 105.8742340  59.1246270
  38.1211910 106.2207530  57.8252360  35.9443820 107.6415560  67.6368050
  35.2302340 107.8412480  68.2420660  36.3638860 106.8655130  68.0082850
  47.4382600 110.1337870  65.3869500  47.8063420 109.3133080  65.7149070
  46.5780800 110.1939760  65.8025150  50.8044630 109.0894810  56.1957060
  50.1757790 109.1940480  55.4815290  50.3096550 109.3091590  56.9850940
  42.7728660 111.3680760  57.6114940  42.0644810 111.8367100  58.0528550
  43.0573140 110.7102770  58.2460130  44.3984590 112.7877460  65.6107470
  44.8969840 113.2623280  66.2759320  44.5407540 111.8640980  65.8177500
  46.8044090 108.0931420  59.0510730  46.6811870 108.1117550  58.1020240
  47.7528650 108.1410360  59.1709130  40.9763680 109.6765840  54.9865650
  41.8254210 110.1135990  54.9205840  40.6094950 109.9886100  55.8137710
  51.6051450 109.0045420  66.4535860  51.1025050 109.7450820  66.7929670
  52.4208110 109.3929420  66.1372650  49.8973460 114.2478600  59.8997220
  48.9563600 114.2628830  60.0744910  50.2117530 113.4614560  60.3457520
  38.5701860 113.3623270  54.1434070  38.6505450 112.4150780  54.2551470
  39.4621610 113.6930150  54.2494730  38.1295740 113.3267780  70.2740310
  38.1701080 113.0281650  71.1825540  38.9841240 113.7275390  70.1147830
  40.0701550 111.9059880  68.2414800  39.5398010 111.4150830  67.6138140
  40.7389620 112.3344080  67.7072730  49.4401780 113.7125500  70.0095140
  50.0222550 112.9577820  69.9215620  49.6163550 114.2432940  69.2326620
  40.5573850 108.8722250  68.3212090  40.4630720 108.2543000  67.5962960
  39.9771240 109.5988540  68.0942000  43.3235290 107.4295490  65.3539480
  42.8752590 107.4519750  64.5085030  42.6900490 107.0314510  65.9509780
  46.0658740 114.0566000  67.3589760  46.1854950 113.4607140  68.0984600
  46.9252740 114.0935690  66.9391060  40.8033030 111.9996560  52.3801980
  40.6022090 111.1363920  52.7415320  40.6325080 111.9129920  51.4423580
  42.8327510 110.5987350  68.6165580  43.4227200 110.2903200  69.3043400
  42.0147750 110.1267100  68.7725480  47.6520940 110.2153160  68.8498600
  46.9636460 109.5534700  68.7848590  48.3726960 109.7691430  69.2947060
  48.2821340 106.8104790  54.9088860  48.5623630 105.9672690  55.2648280
  47.5087070 107.0427900  55.4227610  39.6015830 109.0997180  52.3679860
  39.9041730 109.1064610  51.4599010  40.3410420 108.7495040  52.8647520
  42.8200760 108.0431800  53.3536060  42.4722760 107.3655790  52.7738510
  43.0213530 107.5821310  54.1679450  36.1606400 114.5719450  59.7500430
  35.5055240 114.3031090  59.1060130  36.9984350 114.4623930  59.3002410
  49.1096840 109.3660740  53.9718920  49.5281720 109.1791720  53.1315580
  48.8032900 108.5139790  54.2821850  52.6086570 114.2784880  57.6694720
  52.2330170 113.5112810  57.2376010  51.8789690 114.6607580  58.1569650
  37.1982330 114.9572020  64.2903770  37.5655370 114.8699420  65.1699790
  36.6293150 114.1938570  64.1910630  51.9986190 113.4256400  67.3034240
  51.7672280 113.1969150  66.4032190  52.2590740 114.3455950  67.2579130
  36.7498330 111.8681110  68.1962190  35.8554380 111.8347870  68.5355900
  37.2895880 112.0667900  68.9613440  50.4374260 108.6512830  70.0813940
  51.3144440 108.6596230  70.4647940  50.4495100 107.9143670  69.4706290
  35.3744480 111.7818380  55.6925760  34.4708560 112.0448580  55.5177420
  35.8585100 112.0529550  54.9125720  51.8837530 112.5042370  60.9701960
  52.4075010 112.0105020  60.3392130  52.4696950 112.6392730  61.7149530
  52.0627250 112.5882240  64.4921510  51.1129960 112.5545780  64.6066500
  52.2440260 113.4982350  64.2571280  37.9171690 110.8383920  53.6020140
  38.6263390 110.4167140  53.1167420  37.2011630 110.9059150  52.9703490
  37.5645850 106.8923250  52.6422790  38.2873980 107.4332190  52.9604010
  37.8370370 106.6186670  51.7664330  51.3737500 111.7615720  56.9094370
  51.8696620 111.5286590  57.6943250  51.1753570 110.9227560  56.4932010
  37.2538040 106.1429440  62.5445410  37.9014230 105.5926820  62.1040570
  37.6739880 106.3972590  63.3661220  52.8024660 110.3976670  59.4432050
  52.6923940 110.2432710  60.3814320  53.5632250 109.8697610  59.2007460
  51.1490380 106.3370800  65.9015050  51.7862600 106.9504940  66.2674240
  51.2965270 106.3731460  64.9564280  53.6914930 108.2284590  52.6838190
  54.6164240 108.0965770  52.4756480  53.6690720 108.3077410  53.6374640
  53.7653420 108.9995250  55.3094900  52.9704920 108.9340370  55.8387810
  53.9696700 109.9345890  55.2980250  37.0070040 106.2985110  65.2870730
  36.6584860 106.7548930  66.0528910  36.6757740 105.4042240  65.3693160
  44.5194860 107.4896990  68.8090150  44.4583750 108.0818820  69.5585560
  45.4595240 107.3822950  68.6640410  47.1569420 107.1467050  68.4482440
  47.7709830 107.4646340  67.7863520  47.7018980 106.6615640  69.0678300
  37.6790680 105.8261310  68.5621500  38.2273670 105.6449360  67.7987610
  37.7445990 105.0355420  69.0977810  47.8977460 105.7099190  64.7751730
  47.0237300 106.0434300  64.5724660  47.7888210 105.2372370  65.6003600
  48.8049440 107.9170060  66.1593450  48.4762800 107.1021820  65.7795180
  49.7531740 107.8739870  66.0359140  45.6452280 106.6269030  63.7144640
  44.8624070 107.1014530  63.9941400  45.3515210 105.7223860  63.6057820
  50.1973350 107.3292130  61.7593730  50.6381440 107.2737230  60.9115330
  49.9280940 108.2450140  61.8303910  52.0611920 106.9607370  59.7702550
  52.0000320 106.0168590  59.6233570  52.8403950 107.0687460  60.3156010
  36.9892690 106.9316510  56.2358360  37.7472050 107.0445390  55.6622390
  36.5269860 107.7685710  56.1901790  43.5306500 109.0455780  59.2260670
  42.7181010 108.6712670  58.8856550  44.0348140 108.2900860  59.5281860
  48.0331480 105.7098230  60.4643740  48.6360850 106.2818440  60.9392260
  47.2924470 106.2737670  60.2417640  51.1766080 106.1119790  55.7384020
  51.3716710 107.0103240  56.0051450  50.3895950 105.8806870  56.2316970
  39.3617840 107.4580560  54.7760330  39.8910600 106.6710360  54.6468280
  39.9946160 108.1371750  55.0095860  41.5555680 107.1955700  57.8305720
  40.9258420 106.4943010  57.9975850  41.0160820 107.9559830  57.6138880
  41.6811240 106.4739680  70.2658210  41.3995510 106.9773280  69.5019030
  42.0630940 105.6761430  69.9000340  48.2826700 105.8893260  70.8438680
  48.1692150 106.2087870  71.7390200  49.0996440 106.2905770  70.5475960
  47.1884850 113.9085730  41.2073420  47.1078900 112.9940340  40.9365130
  46.7749270 114.4052800  40.5013130  37.7460670 110.9586450  37.7500840
  36.8577370 111.3002420  37.6480720  38.0301860 110.7586770  36.8581670
  35.7093680 113.5592100  43.6340540  36.2809790 112.7914300  43.6344180
  35.7095220 113.8580860  42.7247150  36.9518550 108.9676460  45.4209470
  36.7721390 108.0702210  45.7012230  36.5498630 109.5148330  46.0956420
  45.7917050 111.1692320  43.3221780  46.1681870 110.2964200  43.2095450
  45.6936560 111.5051020  42.4312220  39.9222060 109.5417950  38.7839220
  40.0288810 110.4421680  39.0907980  39.0114420 109.4935920  38.4933870
  49.5741170 108.6642760  40.2550120  50.3950790 108.1739330  40.2975600
  49.6075250 109.2540420  41.0081960  37.5705220 111.4636960  44.0291810
  38.2515330 111.7275330  44.6479210  37.2553270 110.6237830  44.3629820
  41.7629790 112.5104320  43.1164400  42.2708010 113.0085290  43.7569420
  42.2943030 111.7339520  42.9403760  53.8640720 110.6809510  46.8193750
  53.1592890 111.0691220  46.3008860  54.1298640 111.3759800  47.4214680
  40.0465890 107.1502880  47.3827820  40.0484330 107.6675270  46.5773720
  39.2170200 106.6733060  47.3597750  49.8102650 110.6043140  43.0277660
  49.1058220 110.8928030  43.6080770  50.1714810 111.4143250  42.6677220
  39.7281220 108.8612840  45.3898270  40.0698030 109.7054890  45.0952140
  38.7897030 109.0096580  45.5063610  52.8789570 110.0497930  43.4186870
  51.9314480 110.0836910  43.5502300  53.2039560 110.8636880  43.8036230
  43.4109110 106.3495110  41.7142860  43.7184090 105.7942000  40.9978360
  42.4809810 106.4839570  41.5315850  45.7858950 110.6860940  35.4470140
  44.8462620 110.8474900  35.5322600  46.1042210 111.4046620  34.9006130
  49.2713720 112.1548780  46.3704040  48.8584900 112.9802490  46.6244030
  48.5389670 111.5693820  46.1780400  41.4046510 114.9408680  41.2322710
  41.0003510 114.2285930  40.7368610  41.4909630 114.5961920  42.1210750
  40.1175130 111.7151890  45.0121750  40.6689720 111.8247230  44.2375000
  40.6318640 112.0889490  45.7276980  51.5869000 106.4693860  34.2752020
  51.2741660 106.5620690  35.1751090  52.3481470 107.0474890  34.2249450
  38.1051140 113.8353660  38.7329360  37.9848740 114.5615750  38.1210630
  37.7952030 113.0656570  38.2557270  52.7970290 111.2065360  50.2526160
  52.1814560 111.7145030  49.7241620  52.4766710 110.3063690  50.1952100
  40.5714800 107.1788730  42.1153030  40.1282950 107.9598270  41.7837550
  41.1299790 107.5018620  42.8223970  44.8584610 110.0457250  47.7188350
  44.3963980 110.2540270  48.5308290  44.4562720 109.2316600  47.4159020
  49.8589120 111.2666200  48.8485010  49.0082710 110.9671950  49.1694080
  49.6990910 111.5108210  47.9368830  46.9538830 112.7667950  50.9483800
  47.2792240 111.9331700  50.6086030  47.7419160 113.2896470  51.0962130
  43.6873620 106.7999430  36.9958860  43.0627800 106.7959300  37.7212170
  43.6003740 105.9330390  36.5994830  42.6090700 107.7236060  43.9742630
  42.9063030 108.6298890  43.8934650  43.1576260 107.2354840  43.3602200
  40.3629020 112.3022300  39.8434280  40.1369940 112.0859470  40.7480900
  39.5821550 112.7350760  39.4980250  47.5926780 112.3085670  38.4424930
  46.9935670 113.0321470  38.2588550  48.1406390 112.2462450  37.6601380
  42.8028230 113.2007880  50.5094550  42.7071830 112.2602610  50.3594950
  43.6460210 113.4222950  50.1142620  46.1991650 110.9449210  40.4728210
  46.5921220 111.2621410  39.6596900  46.5608500 110.0661090  40.5872730
  37.9338770 109.6121550  48.6628330  37.5402160 110.4596760  48.8701110
  37.2457170 108.9747920  48.8536970  44.5083820 109.6956520  51.7325070
  43.8182140 109.5028720  52.3671160  45.2516120 109.9791160  52.2649370
  35.2355820 107.5350010  42.6958410  34.9468870 108.1052870  43.4083390
  35.9801580 107.0554460  43.0589640  35.4226050 111.4770130  33.9061130
  35.3400720 112.4200890  34.0476120  35.0709110 111.3345040  33.0273480
  46.7846790 113.5354960  44.5678990  46.0527910 114.0441770  44.9169090
  46.3871130 112.7184940  44.2667770  43.2224180 110.2109160  42.9731480
  43.2260240 109.7699110  42.1236020  44.1175300 110.5326490  43.0803300
  39.0726560 110.0935650  41.9325690  38.7326610 110.5710880  42.6892740
  38.3103880 109.6400770  41.5726790  43.2844330 111.2121240  35.9638240
  43.4057150 111.1707720  36.9124060  42.8992840 112.0745390  35.8084970
  47.2472700 108.9888640  43.9801930  47.2645440 109.4397290  44.8243780
  46.9988280 108.0894280  44.1935370  42.2965830 113.5222380  35.3621540
  41.7282730 113.0740630  34.7357450  43.0054830 113.8815160  34.8286690
  50.6743450 106.4020820  49.8188310  50.9989220 105.6710480  50.3446290
  50.7099960 106.0834460  48.9169300  43.5232150 114.2710940  44.7196890
  43.8902280 113.7969510  45.4658230  43.3337210 115.1452510  45.0605230
  36.3872640 109.0154630  40.8490360  36.1019560 108.6510300  41.6868980
  36.3251500 108.2835090  40.2353500  41.3131520 113.3119580  47.0381100
  41.0088590 114.1911560  47.2631460  42.2677980 113.3719370  47.0738540
  46.0611230 107.9083890  37.5703730  45.2475840 107.4097060  37.4949040
  45.8673180 108.7482140  37.1540080  48.7759620 112.2803540  35.8665890
  49.6639240 112.5920770  35.6917230  48.7464710 111.4075790  35.4746470
  37.3695250 114.1522320  48.1852460  37.0110190 114.8176170  48.7725800
  37.0749810 113.3205870  48.5565080  40.5708370 114.6106560  51.0692010
  40.2708510 114.7563740  50.1719830  41.3419610 114.0511850  50.9765400
  51.0473890 113.5915380  35.3345750  50.9637610 114.0229600  34.4842190
  51.7668080 114.0513730  35.7672570  35.8803300 114.1513580  34.8087060
  36.7498150 114.4338380  35.0922980  35.3893620 114.9649450  34.6935870
  38.9449890 105.8824440  39.4017860  38.8164520 105.8742340  40.3502780
  38.1211910 106.2207530  39.0508870  35.9443820 107.6415560  48.8624560
  35.2302340 107.8412480  49.4677170  36.3638860 106.8655130  49.2339360
  47.4382600 110.1337870  46.6126010  47.8063420 109.3133080  46.9405580
  46.5780800 110.1939760  47.0281660  50.8044630 109.0894810  37.4213570
  50.1757790 109.1940480  36.7071800  50.3096550 109.3091590  38.2107450
  42.7728660 111.3680760  38.8371450  42.0644810 111.8367100  39.2785060
  43.0573140 110.7102770  39.4716640  44.3984590 112.7877460  46.8363980
  44.8969840 113.2623280  47.5015830  44.5407540 111.8640980  47.0434010
  46.8044090 108.0931420  40.2767240  46.6811870 108.1117550  39.3276750
  47.7528650 108.1410360  40.3965640  40.9763680 109.6765840  36.2122160
  41.8254210 110.1135990  36.1462350  40.6094950 109.9886100  37.0394220
  51.6051450 109.0045420  47.6792370  51.1025050 109.7450820  48.0186180
  52.4208110 109.3929420  47.3629160  49.8973460 114.2478600  41.1253730
  48.9563600 114.2628830  41.3001420  50.2117530 113.4614560  41.5714030
  38.5701860 113.3623270  35.3690580  38.6505450 112.4150780  35.4807980
  39.4621610 113.6930150  35.4751240  38.1295740 113.3267780  51.4996820
  38.1701080 113.0281650  52.4082050  38.9841240 113.7275390  51.3404340
  40.0701550 111.9059880  49.4671310  39.5398010 111.4150830  48.8394650
  40.7389620 112.3344080  48.9329240  49.4401780 113.7125500  51.2351650
  50.0222550 112.9577820  51.1472130  49.6163550 114.2432940  50.4583130
  40.5573850 108.8722250  49.5468600  40.4630720 108.2543000  48.8219470
  39.9771240 109.5988540  49.3198510  43.3235290 107.4295490  46.5795990
  42.8752590 107.4519750  45.7341540  42.6900490 107.0314510  47.1766290
  46.0658740 114.0566000  48.5846270  46.1854950 113.4607140  49.3241110
  46.9252740 114.0935690  48.1647570  40.8033030 111.9996560  33.6058490
  40.6022090 111.1363920  33.9671830  40.6325080 111.9129920  32.6680090
  42.8327510 110.5987350  49.8422090  43.4227200 110.2903200  50.5299910
  42.0147750 110.1267100  49.9981990  47.6520940 110.2153160  50.0755110
  46.9636460 109.5534700  50.0105100  48.3726960 109.7691430  50.5203570
  48.2821340 106.8104790  36.1345370  48.5623630 105.9672690  36.4904790
  47.5087070 107.0427900  36.6484120  39.6015830 109.0997180  33.5936370
  39.9041730 109.1064610  32.6855520  40.3410420 108.7495040  34.0904030
  42.8200760 108.0431800  34.5792570  42.4722760 107.3655790  33.9995020
  43.0213530 107.5821310  35.3935960  36.1606400 114.5719450  40.9756940
  35.5055240 114.3031090  40.3316640  36.9984350 114.4623930  40.5258920
  49.1096840 109.3660740  35.1975430  49.5281720 109.1791720  34.3572090
  48.8032900 108.5139790  35.5078360  52.6086570 114.2784880  38.8951230
  52.2330170 113.5112810  38.4632520  51.8789690 114.6607580  39.3826160
  37.1982330 114.9572020  45.5160280  37.5655370 114.8699420  46.3956300
  36.6293150 114.1938570  45.4167140  51.9986190 113.4256400  48.5290750
  51.7672280 113.1969150  47.6288700  52.2590740 114.3455950  48.4835640
  36.7498330 111.8681110  49.4218700  35.8554380 111.8347870  49.7612410
  37.2895880 112.0667900  50.1869950  50.4374260 108.6512830  51.3070450
  51.3144440 108.6596230  51.6904450  50.4495100 107.9143670  50.6962800
  35.3744480 111.7818380  36.9182270  34.4708560 112.0448580  36.7433930
  35.8585100 112.0529550  36.1382230  51.8837530 112.5042370  42.1958470
  52.4075010 112.0105020  41.5648640  52.4696950 112.6392730  42.9406040
  52.0627250 112.5882240  45.7178020  51.1129960 112.5545780  45.8323010
  52.2440260 113.4982350  45.4827790  37.9171690 110.8383920  34.8276650
  38.6263390 110.4167140  34.3423930  37.2011630 110.9059150  34.1960000
  37.5645850 106.8923250  33.8679300  38.2873980 107.4332190  34.1860520
  37.8370370 106.6186670  32.9920840  51.3737500 111.7615720  38.1350880
  51.8696620 111.5286590  38.9199760  51.1753570 110.9227560  37.7188520
  37.2538040 106.1429440  43.7701920  37.9014230 105.5926820  43.3297080
  37.6739880 106.3972590  44.5917730  52.8024660 110.3976670  40.6688560
  52.6923940 110.2432710  41.6070830  53.5632250 109.8697610  40.4263970
  51.1490380 106.3370800  47.1271560  51.7862600 106.9504940  47.4930750
  51.2965270 106.3731460  46.1820790  53.6914930 108.2284590  33.9094700
  54.6164240 108.0965770  33.7012990  53.6690720 108.3077410  34.8631150
  53.7653420 108.9995250  36.5351410  52.9704920 108.9340370  37.0644320
  53.9696700 109.9345890  36.5236760  37.0070040 106.2985110  46.5127240
  36.6584860 106.7548930  47.2785420  36.6757740 105.4042240  46.5949670
  44.5194860 107.4896990  50.0346660  44.4583750 108.0818820  50.7842070
  45.4595240 107.3822950  49.8896920  47.1569420 107.1467050  49.6738950
  47.7709830 107.4646340  49.0120030  47.7018980 106.6615640  50.2934810
  37.6790680 105.8261310  49.7878010  38.2273670 105.6449360  49.0244120
  37.7445990 105.0355420  50.3234320  47.8977460 105.7099190  46.0008240
  47.0237300 106.0434300  45.7981170  47.7888210 105.2372370  46.8260110
  48.8049440 107.9170060  47.3849960  48.4762800 107.1021820  47.0051690
  49.7531740 107.8739870  47.2615650  45.6452280 106.6269030  44.9401150
  44.8624070 107.1014530  45.2197910  45.3515210 105.7223860  44.8314330
  50.1973350 107.3292130  42.9850240  50.6381440 107.2737230  42.1371840
  49.9280940 108.2450140  43.0560420  52.0611920 106.9607370  40.9959060
  52.0000320 106.0168590  40.8490080  52.8403950 107.0687460  41.5412520
  36.9892690 106.9316510  37.4614870  37.7472050 107.0445390  36.8878900
  36.5269860 107.7685710  37.4158300  43.5306500 109.0455780  40.4517180
  42.7181010 108.6712670  40.1113060  44.0348140 108.2900860  40.7538370
  48.0331480 105.7098230  41.6900250  48.6360850 106.2818440  42.1648770
  47.2924470 106.2737670  41.4674150  51.1766080 106.1119790  36.9640530
  51.3716710 107.0103240  37.2307960  50.3895950 105.8806870  37.4573480
  39.3617840 107.4580560  36.0016840  39.8910600 106.6710360  35.8724790
  39.9946160 108.1371750  36.2352370  41.5555680 107.1955700  39.0562230
  40.9258420 106.4943010  39.2232360  41.0160820 107.9559830  38.8395390
  41.6811240 106.4739680  51.4914720  41.3995510 106.9773280  50.7275540
  42.0630940 105.6761430  51.1256850  48.2826700 105.8893260  52.0695190
  48.1692150 106.2087870  52.9646710  49.0996440 106.2905770  51.7732470
  47.1884850 113.9085730  22.4329930  47.1078900 112.9940340  22.1621640
  46.7749270 114.4052800  21.7269640  37.7460670 110.9586450  18.9757350
  36.8577370 111.3002420  18.8737230  38.0301860 110.7586770  18.0838180
  35.7093680 113.5592100  24.8597050  36.2809790 112.7914300  24.8600690
  35.7095220 113.8580860  23.9503660  36.9518550 108.9676460  26.6465980
  36.7721390 108.0702210  26.9268740  36.5498630 109.5148330  27.3212930
  45.7917050 111.1692320  24.5478290  46.1681870 110.2964200  24.4351960
  45.6936560 111.5051020  23.6568730  39.9222060 109.5417950  20.0095730
  40.0288810 110.4421680  20.3164490  39.0114420 109.4935920  19.7190380
  49.5741170 108.6642760  21.4806630  50.3950790 108.1739330  21.5232110
  49.6075250 109.2540420  22.2338470  37.5705220 111.4636960  25.2548320
  38.2515330 111.7275330  25.8735720  37.2553270 110.6237830  25.5886330
  41.7629790 112.5104320  24.3420910  42.2708010 113.0085290  24.9825930
  42.2943030 111.7339520  24.1660270  53.8640720 110.6809510  28.0450260
  53.1592890 111.0691220  27.5265370  54.1298640 111.3759800  28.6471190
  40.0465890 107.1502880  28.6084330  40.0484330 107.6675270  27.8030230
  39.2170200 106.6733060  28.5854260  49.8102650 110.6043140  24.2534170
  49.1058220 110.8928030  24.8337280  50.1714810 111.4143250  23.8933730
  39.7281220 108.8612840  26.6154780  40.0698030 109.7054890  26.3208650
  38.7897030 109.0096580  26.7320120  52.8789570 110.0497930  24.6443380
  51.9314480 110.0836910  24.7758810  53.2039560 110.8636880  25.0292740
  43.4109110 106.3495110  22.9399370  43.7184090 105.7942000  22.2234870
  42.4809810 106.4839570  22.7572360  45.7858950 110.6860940  16.6726650
  44.8462620 110.8474900  16.7579110  46.1042210 111.4046620  16.1262640
  49.2713720 112.1548780  27.5960550  48.8584900 112.9802490  27.8500540
  48.5389670 111.5693820  27.4036910  41.4046510 114.9408680  22.4579220
  41.0003510 114.2285930  21.9625120  41.4909630 114.5961920  23.3467260
  40.1175130 111.7151890  26.2378260  40.6689720 111.8247230  25.4631510
  40.6318640 112.0889490  26.9533490  51.5869000 106.4693860  15.5008530
  51.2741660 106.5620690  16.4007600  52.3481470 107.0474890  15.4505960
  38.1051140 113.8353660  19.9585870  37.9848740 114.5615750  19.3467140
  37.7952030 113.0656570  19.4813780  52.7970290 111.2065360  31.4782670
  52.1814560 111.7145030  30.9498130  52.4766710 110.3063690  31.4208610
  40.5714800 107.1788730  23.3409540  40.1282950 107.9598270  23.0094060
  41.1299790 107.5018620  24.0480480  44.8584610 110.0457250  28.9444860
  44.3963980 110.2540270  29.7564800  44.4562720 109.2316600  28.6415530
  49.8589120 111.2666200  30.0741520  49.0082710 110.9671950  30.3950590
  49.6990910 111.5108210  29.1625340  46.9538830 112.7667950  32.1740310
  47.2792240 111.9331700  31.8342540  47.7419160 113.2896470  32.3218640
  43.6873620 106.7999430  18.2215370  43.0627800 106.7959300  18.9468680
  43.6003740 105.9330390  17.8251340  42.6090700 107.7236060  25.1999140
  42.9063030 108.6298890  25.1191160  43.1576260 107.2354840  24.5858710
  40.3629020 112.3022300  21.0690790  40.1369940 112.0859470  21.9737410
  39.5821550 112.7350760  20.7236760  47.5926780 112.3085670  19.6681440
  46.9935670 113.0321470  19.4845060  48.1406390 112.2462450  18.8857890
  42.8028230 113.2007880  31.7351060  42.7071830 112.2602610  31.5851460
  43.6460210 113.4222950  31.3399130  46.1991650 110.9449210  21.6984720
  46.5921220 111.2621410  20.8853410  46.5608500 110.0661090  21.8129240
  37.9338770 109.6121550  29.8884840  37.5402160 110.4596760  30.0957620
  37.2457170 108.9747920  30.0793480  44.5083820 109.6956520  32.9581580
  43.8182140 109.5028720  33.5927670  45.2516120 109.9791160  33.4905880
  35.2355820 107.5350010  23.9214920  34.9468870 108.1052870  24.6339900
  35.9801580 107.0554460  24.2846150  35.4226050 111.4770130  15.1317640
  35.3400720 112.4200890  15.2732630  35.0709110 111.3345040  14.2529990
  46.7846790 113.5354960  25.7935500  46.0527910 114.0441770  26.1425600
  46.3871130 112.7184940  25.4924280  43.2224180 110.2109160  24.1987990
  43.2260240 109.7699110  23.3492530  44.1175300 110.5326490  24.3059810
  39.0726560 110.0935650  23.1582200  38.7326610 110.5710880  23.9149250
  38.3103880 109.6400770  22.7983300  43.2844330 111.2121240  17.1894750
  43.4057150 111.1707720  18.1380570  42.8992840 112.0745390  17.0341480
  47.2472700 108.9888640  25.2058440  47.2645440 109.4397290  26.0500290
  46.9988280 108.0894280  25.4191880  42.2965830 113.5222380  16.5878050
  41.7282730 113.0740630  15.9613960  43.0054830 113.8815160  16.0543200
  50.6743450 106.4020820  31.0444820  50.9989220 105.6710480  31.5702800
  50.7099960 106.0834460  30.1425810  43.5232150 114.2710940  25.9453400
  43.8902280 113.7969510  26.6914740  43.3337210 115.1452510  26.2861740
  36.3872640 109.0154630  22.0746870  36.1019560 108.6510300  22.9125490
  36.3251500 108.2835090  21.4610010  41.3131520 113.3119580  28.2637610
  41.0088590 114.1911560  28.4887970  42.2677980 113.3719370  28.2995050
  46.0611230 107.9083890  18.7960240  45.2475840 107.4097060  18.7205550
  45.8673180 108.7482140  18.3796590  48.7759620 112.2803540  17.0922400
  49.6639240 112.5920770  16.9173740  48.7464710 111.4075790  16.7002980
  37.3695250 114.1522320  29.4108970  37.0110190 114.8176170  29.9982310
  37.0749810 113.3205870  29.7821590  40.5708370 114.6106560  32.2948520
  40.2708510 114.7563740  31.3976340  41.3419610 114.0511850  32.2021910
  51.0473890 113.5915380  16.5602260  50.9637610 114.0229600  15.7098700
  51.7668080 114.0513730  16.9929080  35.8803300 114.1513580  16.0343570
  36.7498150 114.4338380  16.3179490  35.3893620 114.9649450  15.9192380
  38.9449890 105.8824440  20.6274370  38.8164520 105.8742340  21.5759290
  38.1211910 106.2207530  20.2765380  35.9443820 107.6415560  30.0881070
  35.2302340 107.8412480  30.6933680  36.3638860 106.8655130  30.4595870
  47.4382600 110.1337870  27.8382520  47.8063420 109.3133080  28.1662090
  46.5780800 110.1939760  28.2538170  50.8044630 109.0894810  18.6470080
  50.1757790 109.1940480  17.9328310  50.3096550 109.3091590  19.4363960
  42.7728660 111.3680760  20.0627960  42.0644810 111.8367100  20.5041570
  43.0573140 110.7102770  20.6973150  44.3984590 112.7877460  28.0620490
  44.8969840 113.2623280  28.7272340  44.5407540 111.8640980  28.2690520
  46.8044090 108.0931420  21.5023750  46.6811870 108.1117550  20.5533260
  47.7528650 108.1410360  21.6222150  40.9763680 109.6765840  17.4378670
  41.8254210 110.1135990  17.3718860  40.6094950 109.9886100  18.2650730
  51.6051450 109.0045420  28.9048880  51.1025050 109.7450820  29.2442690
  52.4208110 109.3929420  28.5885670  49.8973460 114.2478600  22.3510240
  48.9563600 114.2628830  22.5257930  50.2117530 113.4614560  22.7970540
  38.5701860 113.3623270  16.5947090  38.6505450 112.4150780  16.7064490
  39.4621610 113.6930150  16.7007750  38.1295740 113.3267780  32.7253330
  38.1701080 113.0281650  33.6338560  38.9841240 113.7275390  32.5660850
  40.0701550 111.9059880  30.6927820  39.5398010 111.4150830  30.0651160
  40.7389620 112.3344080  30.1585750  49.4401780 113.7125500  32.4608160
  50.0222550 112.9577820  32.3728640  49.6163550 114.2432940  31.6839640
  40.5573850 108.8722250  30.7725110  40.4630720 108.2543000  30.0475980
  39.9771240 109.5988540  30.5455020  43.3235290 107.4295490  27.8052500
  42.8752590 107.4519750  26.9598050  42.6900490 107.0314510  28.4022800
  46.0658740 114.0566000  29.8102780  46.1854950 113.4607140  30.5497620
  46.9252740 114.0935690  29.3904080  40.8033030 111.9996560  14.8315000
  40.6022090 111.1363920  15.1928340  40.6325080 111.9129920  13.8936600
  42.8327510 110.5987350  31.0678600  43.4227200 110.2903200  31.7556420
  42.0147750 110.1267100  31.2238500  47.6520940 110.2153160  31.3011620
  46.9636460 109.5534700  31.2361610  48.3726960 109.7691430  31.7460080
  48.2821340 106.8104790  17.3601880  48.5623630 105.9672690  17.7161300
  47.5087070 107.0427900  17.8740630  39.6015830 109.0997180  14.8192880
  39.9041730 109.1064610  13.9112030  40.3410420 108.7495040  15.3160540
  42.8200760 108.0431800  15.8049080  42.4722760 107.3655790  15.2251530
  43.0213530 107.5821310  16.6192470  36.1606400 114.5719450  22.2013450
  35.5055240 114.3031090  21.5573150  36.9984350 114.4623930  21.7515430
  49.1096840 109.3660740  16.4231940  49.5281720 109.1791720  15.5828600
  48.8032900 108.5139790  16.7334870  52.6086570 114.2784880  20.1207740
  52.2330170 113.5112810  19.6889030  51.8789690 114.6607580  20.6082670
  37.1982330 114.9572020  26.7416790  37.5655370 114.8699420  27.6212810
  36.6293150 114.1938570  26.6423650  51.9986190 113.4256400  29.7547260
  51.7672280 113.1969150  28.8545210  52.2590740 114.3455950  29.7092150
  36.7498330 111.8681110  30.6475210  35.8554380 111.8347870  30.9868920
  37.2895880 112.0667900  31.4126460  50.4374260 108.6512830  32.5326960
  51.3144440 108.6596230  32.9160960  50.4495100 107.9143670  31.9219310
  35.3744480 111.7818380  18.1438780  34.4708560 112.0448580  17.9690440
  35.8585100 112.0529550  17.3638740  51.8837530 112.5042370  23.4214980
  52.4075010 112.0105020  22.7905150  52.4696950 112.6392730  24.1662550
  52.0627250 112.5882240  26.9434530  51.1129960 112.5545780  27.0579520
  52.2440260 113.4982350  26.7084300  37.9171690 110.8383920  16.0533160
  38.6263390 110.4167140  15.5680440  37.2011630 110.9059150  15.4216510
  37.5645850 106.8923250  15.0935810  38.2873980 107.4332190  15.4117030
  37.8370370 106.6186670  14.2177350  51.3737500 111.7615720  19.3607390
  51.8696620 111.5286590  20.1456270  51.1753570 110.9227560  18.9445030
  37.2538040 106.1429440  24.9958430  37.9014230 105.5926820  24.5553590
  37.6739880 106.3972590  25.8174240  52.8024660 110.3976670  21.8945070
  52.6923940 110.2432710  22.8327340  53.5632250 109.8697610  21.6520480
  51.1490380 106.3370800  28.3528070  51.7862600 106.9504940  28.7187260
  51.2965270 106.3731460  27.4077300  53.6914930 108.2284590  15.1351210
  54.6164240 108.0965770  14.9269500  53.6690720 108.3077410  16.0887660
  53.7653420 108.9995250  17.7607920  52.9704920 108.9340370  18.2900830
  53.9696700 109.9345890  17.7493270  37.0070040 106.2985110  27.7383750
  36.6584860 106.7548930  28.5041930  36.6757740 105.4042240  27.8206180
  44.5194860 107.4896990  31.2603170  44.4583750 108.0818820  32.0098580
  45.4595240 107.3822950  31.1153430  47.1569420 107.1467050  30.8995460
  47.7709830 107.4646340  30.2376540  47.7018980 106.6615640  31.5191320
  37.6790680 105.8261310  31.0134520  38.2273670 105.6449360  30.2500630
  37.7445990 105.0355420  31.5490830  47.8977460 105.7099190  27.2264750
  47.0237300 106.0434300  27.0237680  47.7888210 105.2372370  28.0516620
  48.8049440 107.9170060  28.6106470  48.4762800 107.1021820  28.2308200
  49.7531740 107.8739870  28.4872160  45.6452280 106.6269030  26.1657660
  44.8624070 107.1014530  26.4454420  45.3515210 105.7223860  26.0570840
  50.1973350 107.3292130  24.2106750  50.6381440 107.2737230  23.3628350
  49.9280940 108.2450140  24.2816930  52.0611920 106.9607370  22.2215570
  52.0000320 106.0168590  22.0746590  52.8403950 107.0687460  22.7669030
  36.9892690 106.9316510  18.6871380  37.7472050 107.0445390  18.1135410
  36.5269860 107.7685710  18.6414810  43.5306500 109.0455780  21.6773690
  42.7181010 108.6712670  21.3369570  44.0348140 108.2900860  21.9794880
  48.0331480 105.7098230  22.9156760  48.6360850 106.2818440  23.3905280
  47.2924470 106.2737670  22.6930660  51.1766080 106.1119790  18.1897040
  51.3716710 107.0103240  18.4564470  50.3895950 105.8806870  18.6829990
  39.3617840 107.4580560  17.2273350  39.8910600 106.6710360  17.0981300
  39.9946160 108.1371750  17.4608880  41.5555680 107.1955700  20.2818740
  40.9258420 106.4943010  20.4488870  41.0160820 107.9559830  20.0651900
  41.6811240 106.4739680  32.7171230  41.3995510 106.9773280  31.9532050
  42.0630940 105.6761430  32.3513360  48.2826700 105.8893260  33.2951700
  48.1692150 106.2087870  34.1903220  49.0996440 106.2905770  32.9988980
  47.1884850 113.9085730   3.6586440  47.1078900 112.9940340   3.3878150
  46.7749270 114.4052800   2.9526150  35.7093680 113.5592100   6.0853560
  36.2809790 112.7914300   6.0857200  35.7095220 113.8580860   5.1760170
  36.9518550 108.9676460   7.8722490  36.7721390 108.0702210   8.1525250
  36.5498630 109.5148330   8.5469440  45.7917050 111.1692320   5.7734800
  46.1681870 110.2964200   5.6608470  45.6936560 111.5051020   4.8825240
  49.5741170 108.6642760   2.7063140  50.3950790 108.1739330   2.7488620
  49.6075250 109.2540420   3.4594980  37.5705220 111.4636960   6.4804830
  38.2515330 111.7275330   7.0992230  37.2553270 110.6237830   6.8142840
  41.7629790 112.5104320   5.5677420  42.2708010 113.0085290   6.2082440
  42.2943030 111.7339520   5.3916780  53.8640720 110.6809510   9.2706770
  53.1592890 111.0691220   8.7521880  54.1298640 111.3759800   9.8727700
  40.0465890 107.1502880   9.8340840  40.0484330 107.6675270   9.0286740
  39.2170200 106.6733060   9.8110770  49.8102650 110.6043140   5.4790680
  49.1058220 110.8928030   6.0593790  50.1714810 111.4143250   5.1190240
  39.7281220 108.8612840   7.8411290  40.0698030 109.7054890   7.5465160
  38.7897030 109.0096580   7.9576630  52.8789570 110.0497930   5.8699890
  51.9314480 110.0836910   6.0015320  53.2039560 110.8636880   6.2549250
  43.4109110 106.3495110   4.1655880  43.7184090 105.7942000   3.4491380
  42.4809810 106.4839570   3.9828870  49.2713720 112.1548780   8.8217060
  48.8584900 112.9802490   9.0757050  48.5389670 111.5693820   8.6293420
  41.4046510 114.9408680   3.6835730  41.0003510 114.2285930   3.1881630
  41.4909630 114.5961920   4.5723770  40.1175130 111.7151890   7.4634770
  40.6689720 111.8247230   6.6888020  40.6318640 112.0889490   8.1790000
  52.7970290 111.2065360  12.7039180  52.1814560 111.7145030  12.1754640
  52.4766710 110.3063690  12.6465120  40.5714800 107.1788730   4.5666050
  40.1282950 107.9598270   4.2350570  41.1299790 107.5018620   5.2736990
  44.8584610 110.0457250  10.1701370  44.3963980 110.2540270  10.9821310
  44.4562720 109.2316600   9.8672040  49.8589120 111.2666200  11.2998030
  49.0082710 110.9671950  11.6207100  49.6990910 111.5108210  10.3881850
  46.9538830 112.7667950  13.3996820  47.2792240 111.9331700  13.0599050
  47.7419160 113.2896470  13.5475150  42.6090700 107.7236060   6.4255650
  42.9063030 108.6298890   6.3447670  43.1576260 107.2354840   5.8115220
  40.3629020 112.3022300   2.2947300  40.1369940 112.0859470   3.1993920
  39.5821550 112.7350760   1.9493270  42.8028230 113.2007880  12.9607570
  42.7071830 112.2602610  12.8107970  43.6460210 113.4222950  12.5655640
  46.1991650 110.9449210   2.9241230  46.5921220 111.2621410   2.1109920
  46.5608500 110.0661090   3.0385750  37.9338770 109.6121550  11.1141350
  37.5402160 110.4596760  11.3214130  37.2457170 108.9747920  11.3049990
  44.5083820 109.6956520  14.1838090  43.8182140 109.5028720  14.8184180
  45.2516120 109.9791160  14.7162390  35.2355820 107.5350010   5.1471430
  34.9468870 108.1052870   5.8596410  35.9801580 107.0554460   5.5102660
  46.7846790 113.5354960   7.0192010  46.0527910 114.0441770   7.3682110
  46.3871130 112.7184940   6.7180790  43.2224180 110.2109160   5.4244500
  43.2260240 109.7699110   4.5749040  44.1175300 110.5326490   5.5316320
  39.0726560 110.0935650   4.3838710  38.7326610 110.5710880   5.1405760
  38.3103880 109.6400770   4.0239810  47.2472700 108.9888640   6.4314950
  47.2645440 109.4397290   7.2756800  46.9988280 108.0894280   6.6448390
  50.6743450 106.4020820  12.2701330  50.9989220 105.6710480  12.7959310
  50.7099960 106.0834460  11.3682320  43.5232150 114.2710940   7.1709910
  43.8902280 113.7969510   7.9171250  43.3337210 115.1452510   7.5118250
  36.3872640 109.0154630   3.3003380  36.1019560 108.6510300   4.1382000
  36.3251500 108.2835090   2.6866520  41.3131520 113.3119580   9.4894120
  41.0088590 114.1911560   9.7144480  42.2677980 113.3719370   9.5251560
  37.3695250 114.1522320  10.6365480  37.0110190 114.8176170  11.2238820
  37.0749810 113.3205870  11.0078100  40.5708370 114.6106560  13.5205030
  40.2708510 114.7563740  12.6232850  41.3419610 114.0511850  13.4278420
  35.9443820 107.6415560  11.3137580  35.2302340 107.8412480  11.9190190
  36.3638860 106.8655130  11.6852380  47.4382600 110.1337870   9.0639030
  47.8063420 109.3133080   9.3918600  46.5780800 110.1939760   9.4794680
  44.3984590 112.7877460   9.2877000  44.8969840 113.2623280   9.9528850
  44.5407540 111.8640980   9.4947030  46.8044090 108.0931420   2.7280260
  46.6811870 108.1117550   1.7789770  47.7528650 108.1410360   2.8478660
  51.6051450 109.0045420  10.1305390  51.1025050 109.7450820  10.4699200
  52.4208110 109.3929420   9.8142180  49.8973460 114.2478600   3.5766750
  48.9563600 114.2628830   3.7514440  50.2117530 113.4614560   4.0227050
  38.1295740 113.3267780  13.9509840  38.1701080 113.0281650  14.8595070
  38.9841240 113.7275390  13.7917360  40.0701550 111.9059880  11.9184330
  39.5398010 111.4150830  11.2907670  40.7389620 112.3344080  11.3842260
  49.4401780 113.7125500  13.6864670  50.0222550 112.9577820  13.5985150
  49.6163550 114.2432940  12.9096150  40.5573850 108.8722250  11.9981620
  40.4630720 108.2543000  11.2732490  39.9771240 109.5988540  11.7711530
  43.3235290 107.4295490   9.0309010  42.8752590 107.4519750   8.1854560
  42.6900490 107.0314510   9.6279310  46.0658740 114.0566000  11.0359290
  46.1854950 113.4607140  11.7754130  46.9252740 114.0935690  10.6160590
  42.8327510 110.5987350  12.2935110  43.4227200 110.2903200  12.9812930
  42.0147750 110.1267100  12.4495010  47.6520940 110.2153160  12.5268130
  46.9636460 109.5534700  12.4618120  48.3726960 109.7691430  12.9716590
  36.1606400 114.5719450   3.4269960  35.5055240 114.3031090   2.7829660
  36.9984350 114.4623930   2.9771940  37.1982330 114.9572020   7.9673300
  37.5655370 114.8699420   8.8469320  36.6293150 114.1938570   7.8680160
  51.9986190 113.4256400  10.9803770  51.7672280 113.1969150  10.0801720
  52.2590740 114.3455950  10.9348660  36.7498330 111.8681110  11.8731720
  35.8554380 111.8347870  12.2125430  37.2895880 112.0667900  12.6382970
  50.4374260 108.6512830  13.7583470  51.3144440 108.6596230  14.1417470
  50.4495100 107.9143670  13.1475820  51.8837530 112.5042370   4.6471490
  52.4075010 112.0105020   4.0161660  52.4696950 112.6392730   5.3919060
  52.0627250 112.5882240   8.1691040  51.1129960 112.5545780   8.2836030
  52.2440260 113.4982350   7.9340810  37.2538040 106.1429440   6.2214940
  37.9014230 105.5926820   5.7810100  37.6739880 106.3972590   7.0430750
  52.8024660 110.3976670   3.1201580  52.6923940 110.2432710   4.0583850
  53.5632250 109.8697610   2.8776990  51.1490380 106.3370800   9.5784580
  51.7862600 106.9504940   9.9443770  51.2965270 106.3731460   8.6333810
  37.0070040 106.2985110   8.9640260  36.6584860 106.7548930   9.7298440
  36.6757740 105.4042240   9.0462690  44.5194860 107.4896990  12.4859680
  44.4583750 108.0818820  13.2355090  45.4595240 107.3822950  12.3409940
  47.1569420 107.1467050  12.1251970  47.7709830 107.4646340  11.4633050
  47.7018980 106.6615640  12.7447830  37.6790680 105.8261310  12.2391030
  38.2273670 105.6449360  11.4757140  37.7445990 105.0355420  12.7747340
  47.8977460 105.7099190   8.4521260  47.0237300 106.0434300   8.2494190
  47.7888210 105.2372370   9.2773130  48.8049440 107.9170060   9.8362980
  48.4762800 107.1021820   9.4564710  49.7531740 107.8739870   9.7128670
  45.6452280 106.6269030   7.3914170  44.8624070 107.1014530   7.6710930
  45.3515210 105.7223860   7.2827350  50.1973350 107.3292130   5.4363260
  50.6381440 107.2737230   4.5884860  49.9280940 108.2450140   5.5073440
  52.0611920 106.9607370   3.4472080  52.0000320 106.0168590   3.3003100
  52.8403950 107.0687460   3.9925540  43.5306500 109.0455780   2.9030200
  42.7181010 108.6712670   2.5626080  44.0348140 108.2900860   3.2051390
  48.0331480 105.7098230   4.1413270  48.6360850 106.2818440   4.6161790
  47.2924470 106.2737670   3.9187170  41.6811240 106.4739680  13.9427740
  41.3995510 106.9773280  13.1788560  42.0630940 105.6761430  13.5769870
  48.2826700 105.8893260  14.5208210  48.1692150 106.2087870  15.4159730
  49.0996440 106.2905770  14.2245490  47.1884850  95.1342240  97.5303890
  47.1078900  94.2196850  97.2595600  46.7749270  95.6309310  96.8243600
  45.3202890  96.9121260  99.4113160  44.5444990  96.4321700  99.7011730
  45.9715820  96.2326910  99.2369320  39.3368720  97.2241070 100.2888920
  38.5053600  96.9689780 100.6885430  39.9449700  97.2951840 101.0246840
  49.3410320 101.3181450  98.1912290  48.8791850 100.5468690  98.5199460
  50.1535870 101.3447520  98.6964740  39.3169980 101.2581160 100.4846940
  39.6198020 100.3678900 100.3057160  40.0613570 101.8151380 100.2569190
  37.7460670  92.1842960  94.0731310  36.8577370  92.5258930  93.9711190
  38.0301860  91.9843280  93.1812140  35.7093680  94.7848610  99.9571010
  36.2809790  94.0170810  99.9574650  35.7095220  95.0837370  99.0477620
  45.5673630 103.6039460  97.8116280  44.9485070 104.0596960  97.2410720
  46.4225410 103.7590920  97.4105980  44.7611880  99.5878450  99.4183320
  44.6920160  98.6468390  99.2572450  45.5231740  99.6779860  99.9905890
  36.9518550  90.1932970 101.7439940  36.7721390  89.2958720 102.0242700
  36.5498630  90.7404840 102.4186890  45.7917050  92.3948830  99.6452250
  46.1681870  91.5220710  99.5325920  45.6936560  92.7307530  98.7542690
  39.9222060  90.7674460  95.1069690  40.0288810  91.6678190  95.4138450
  39.0114420  90.7192430  94.8164340  49.5741170  89.8899270  96.5780590
  50.3950790  89.3995840  96.6206070  49.6075250  90.4796930  97.3312430
  37.5705220  92.6893470 100.3522280  38.2515330  92.9531840 100.9709680
  37.2553270  91.8494340 100.6860290  41.7629790  93.7360830  99.4394870
  42.2708010  94.2341800 100.0799890  42.2943030  92.9596030  99.2634230
  46.4336980  98.4878700  95.2048190  45.8154250  98.9528150  94.6410910
  46.9460230  99.1806180  95.6217700  41.2968740  98.0154570 101.8831790
  40.9638120  98.6423490 102.5252860  41.4735420  98.5416450 101.1033460
  49.8102650  91.8299650  99.3508130  49.1058220  92.1184540  99.9311240
  50.1714810  92.6399760  98.9907690  39.7281220  90.0869350 101.7128740
  40.0698030  90.9311400 101.4182610  38.7897030  90.2353090 101.8294080
  35.8020180  99.1735230  92.5787820  35.4248160  99.6622330  91.8472720
  36.0593250  99.8460510  93.2094350  51.4265430 101.4474780 101.6135610
  50.7428950 102.1173890 101.6052280  51.9659720 101.6455430 100.8480470
  52.8789570  91.2754440  99.7417340  51.9314480  91.3093420  99.8732770
  53.2039560  92.0893390 100.1266700  43.4109110  87.5751620  98.0373330
  43.7184090  87.0198510  97.3208830  42.4809810  87.7096080  97.8546320
  48.9624170 103.2918910 100.3280790  48.9751330 102.8881200  99.4603050
  48.4099390 104.0666200 100.2242220  50.2569590 100.0135130  95.4170960
  50.1465920  99.0709460  95.5420380  50.2537840 100.3750770  96.3033720
  48.3609610  98.1948750 101.6563400  48.7778400  97.9808860 100.8216860
  49.0849430  98.4521540 102.2272020  45.7989870  95.6400450  94.7733450
  44.8719150  95.5737830  95.0021920  45.9514690  96.5780580  94.6588690
  45.7858950  91.9117450  91.7700610  44.8462620  92.0731410  91.8553070
  46.1042210  92.6303130  91.2236600  52.3071710  96.5935970 101.7479640
  51.4790340  96.6629060 101.2729770  52.9022190  97.1790280 101.2795470
  49.8287160  97.2020750  95.2768700  49.2099580  96.8640300  94.6295000
  49.8111610  96.5580510  95.9847890  41.4046510  96.1665190  97.5553180
  41.0003510  95.4542440  97.0599080  41.4909630  95.8218430  98.4441220
  41.8728210  99.8532750  99.7192390  41.5756500  99.2478220  99.0400170
  42.8228030  99.8910060  99.6081750  40.1175130  92.9408400 101.3352220
  40.6689720  93.0503740 100.5605470  40.6318640  93.3146000 102.0507450
  48.0051860  96.4407560  92.2841450  48.4445140  95.6029990  92.1379270
  48.7180280  97.0736960  92.3705590  46.1147240 101.3803630  96.2522690
  46.5543150 102.1227960  95.8378080  46.0534130 101.6230200  97.1761650
  51.5869000  87.6950370  90.5982490  51.2741660  87.7877200  91.4981560
  52.3481470  88.2731400  90.5479920  38.1051140  95.0610170  95.0559830
  37.9848740  95.7872260  94.4441100  37.7952030  94.2913080  94.5787740
  35.7436510  98.2325310 100.8628470  35.8216930  98.3674080  99.9184190
  36.3578190  97.5241200 101.0556590  36.9884140  99.9325500  97.2734650
  36.5812220 100.0740090  96.4188250  37.8797150  99.6485660  97.0705860
  48.7817420 104.3672750  93.6085700  48.6218560 104.0775690  94.5067530
  48.6164130 103.5912880  93.0730930  41.2605800 104.1471280  95.3857320
  41.0848280 103.2306820  95.1725120  40.4061540 104.5058570  95.6255120
  48.4843550 101.8760310  92.1683700  47.7908710 101.8737600  91.5085980
  49.2266410 101.4519630  91.7377870  48.0493480 103.5023020  96.2432190
  48.5050430 102.7212400  96.5570810  48.3886000 104.2129840  96.7873370
  40.5714800  88.4045240  98.4383500  40.1282950  89.1854780  98.1068020
  41.1299790  88.7275130  99.1454440  43.6873620  88.0255940  93.3189330
  43.0627800  88.0215810  94.0442640  43.6003740  87.1586900  92.9225300
  42.6090700  88.9492570 100.2973100  42.9063030  89.8555400 100.2165120
  43.1576260  88.4611350  99.6832670  40.3629020  93.5278810  96.1664750
  40.1369940  93.3115980  97.0711370  39.5821550  93.9607270  95.8210720
  47.5926780  93.5342180  94.7655400  46.9935670  94.2577980  94.5819020
  48.1406390  93.4718960  93.9831850  46.1991650  92.1705720  96.7958680
  46.5921220  92.4877920  95.9827370  46.5608500  91.2917600  96.9103200
  35.2355820  88.7606520  99.0188880  34.9468870  89.3309380  99.7313860
  35.9801580  88.2810970  99.3820110  35.4226050  92.7026640  90.2291600
  35.3400720  93.6457400  90.3706590  35.0709110  92.5601550  89.3503950
  46.7846790  94.7611470 100.8909460  46.0527910  95.2698280 101.2399560
  46.3871130  93.9441450 100.5898240  43.2224180  91.4365670  99.2961950
  43.2260240  90.9955620  98.4466490  44.1175300  91.7583000  99.4033770
  39.0726560  91.3192160  98.2556160  38.7326610  91.7967390  99.0123210
  38.3103880  90.8657280  97.8957260  43.2844330  92.4377750  92.2868710
  43.4057150  92.3964230  93.2354530  42.8992840  93.3001900  92.1315440
  47.2472700  90.2145150 100.3032400  47.2645440  90.6653800 101.1474250
  46.9988280  89.3150790 100.5165840  42.2965830  94.7478890  91.6852010
  41.7282730  94.2997140  91.0587920  43.0054830  95.1071670  91.1517160
  43.5232150  95.4967450 101.0427360  43.8902280  95.0226020 101.7888700
  43.3337210  96.3709020 101.3835700  36.3872640  90.2411140  97.1720830
  36.1019560  89.8766810  98.0099450  36.3251500  89.5091600  96.5583970
  39.8413310  98.7437080  93.9578420  39.0675570  98.2034700  93.7977140
  40.5707940  98.2243690  93.6196180  50.6001290  97.7402440  99.7504810
  51.3200410  98.2357730  99.3600920  50.3983110  97.0620330  99.1058680
  46.0611230  89.1340400  93.8934200  45.2475840  88.6353570  93.8179510
  45.8673180  89.9738650  93.4770550  48.7759620  93.5060050  92.1896360
  49.6639240  93.8177280  92.0147700  48.7464710  92.6332300  91.7976940
  39.8850710  98.4117460  97.5957230  40.4029380  97.6085720  97.5414120
  39.4334730  98.3496600  98.4374060  44.7720210  99.6783740  92.8684530
  45.1135910 100.4225970  92.3727850  43.9432920  99.9914860  93.2309360
  51.0473890  94.8171890  91.6576220  50.9637610  95.2486110  90.8072660
  51.7668080  95.2770240  92.0903040  52.0761140 101.6714150  94.3858350
  51.4337300 101.0169770  94.6602070  51.6891800 102.0769240  93.6099020
  47.6547620  98.9999580  98.2330040  48.0071440  98.4027710  97.5731410
  46.7709950  98.6743810  98.4038290  43.7410900  99.7597270  95.6400450
  44.4282030 100.3066480  96.0208040  42.9543320 100.3038000  95.6750060
  35.8803300  95.3770090  91.1317530  36.7498150  95.6594890  91.4153450
  35.3893620  96.1905960  91.0166340  43.0438110  96.7643300  95.2525810
  43.5000890  97.5748550  95.4786000  42.6926320  96.4466440  96.0844300
  38.9449890  87.1080950  95.7248330  38.8164520  87.0998850  96.6733250
  38.1211910  87.4464040  95.3739340  46.6202800 100.2781990 101.1995560
  47.2625030  99.5775150 101.3127730  47.1452150 101.0580430 101.0192450
  50.4658520 100.5630610  90.9234700  50.2396100  99.8461050  91.5159340
  50.0754720 100.3143050  90.0856450  36.2474550 104.5897470  91.6979160
  36.6072190 105.1886810  91.0436430  36.1066890 105.1357360  92.4714190
  50.0474770  98.4802550  92.5848860  49.7596470  98.9415240  93.3726740
  50.8426940  98.0200320  92.8533080  42.2643170 101.9728670  92.5152830
  42.2553270 102.7058360  91.8997340  41.3441530 101.7260250  92.6079790
  37.8649810  97.1943560  93.2599590  37.2577760  97.9342460  93.2694890
  38.3399160  97.2842920  92.4337790  50.8044630  90.3151320  93.7444040
  50.1757790  90.4196990  93.0302270  50.3096550  90.5348100  94.5337920
  45.2502770 102.0356910  91.1778020  45.3514750 101.8320900  90.2480000
  44.3504510 101.7815190  91.3825800  42.7728660  92.5937270  95.1601920
  42.0644810  93.0623610  95.6015530  43.0573140  91.9359280  95.7947110
  46.8044090  89.3187930  96.5997710  46.6811870  89.3374060  95.6507220
  47.7528650  89.3666870  96.7196110  43.8920880 104.5543230  95.8725690
  44.1462380 104.5164620  94.9505060  42.9433360 104.4276560  95.8653940
  40.9763680  90.9022350  92.5352630  41.8254210  91.3392500  92.4692820
  40.6094950  91.2142610  93.3624690  49.8973460  95.4735110  97.4484200
  48.9563600  95.4885340  97.6231890  50.2117530  94.6871070  97.8944500
  39.8755100  97.1554710  91.0088160  40.6418370  97.0436070  91.5713590
  39.9529790  96.4592680  90.3564930  38.5701860  94.5879780  91.6921050
  38.6505450  93.6407290  91.8038450  39.4621610  94.9186660  91.7981710
  51.8999040 102.6443960  99.1238460  52.0246460 103.4675130  99.5962270
  52.7664600 102.4334690  98.7762610  39.3716570 104.7375170  98.7955590
  40.1079050 104.1890630  99.0664160  39.7557490 105.6031180  98.6561580
  36.2562050 100.8048740  94.6697100  35.3301830 101.0469880  94.6602510
  36.7218480 101.6323000  94.5481850  42.4818880 103.9105480  90.6181160
  43.2747490 104.1994310  90.1662950  41.9623230 103.4797650  89.9393640
  51.5349050 103.1375610  92.0417900  51.2490560 102.7240750  91.2272080
  51.3368600 104.0663320  91.9218420  42.9996280  99.1308890  90.4823510
  42.8946920  98.5161240  91.2084890  42.8320500  98.6074780  89.6986520
  46.2399010  98.1928920  91.0865500  45.6909110  98.6398220  91.7308240
  46.8618270  97.6878170  91.6103170  41.9074130  97.1519840  92.9830800
  42.3290550  96.9859710  93.8262190  42.0324970  96.3420070  92.4885940
  44.4201770  96.1757450  90.2307900  44.9407430  95.4606470  89.8649050
  45.0670170  96.8143320  90.5308410  40.8033030  93.2253070  89.9288960
  40.6022090  92.3620430  90.2902300  40.6325080  93.1386430  88.9910560
  48.2821340  88.0361300  92.4575840  48.5623630  87.1929200  92.8135260
  47.5087070  88.2684410  92.9714590  39.6015830  90.3253690  89.9166840
  39.9041730  90.3321120  89.0085990  40.3410420  89.9751550  90.4134500
  42.8200760  89.2688310  90.9023040  42.4722760  88.5912300  90.3225490
  43.0213530  88.8077820  91.7166430  44.9849800 104.2569060  92.5209640
  45.8800590 104.5954030  92.5428400  45.0167430 103.5348470  91.8933920
  38.6245960  99.6296110  90.7496640  39.0620830 100.1725780  91.4054220
  39.1093690  98.8043060  90.7592980  35.8391760 102.4185140  98.2016900
  36.1694770 101.5506200  97.9695540  36.2682760 102.6243660  99.0321860
  40.4353680 100.7494150  95.8618870  40.1349220 100.6259120  96.7622780
  40.3291170  99.8902740  95.4534600  36.3281970 103.2855730 100.9398530
  35.8912960 103.4656530 101.7722680  36.8959650 104.0430350 100.7980250
  53.2045600 100.5290550  90.5645550  52.3738560 100.5967200  91.0352780
  53.3817430 101.4194670  90.2612410  52.6602060  97.2738030  93.0679750
  53.4220970  97.8434680  93.1739440  52.6756430  96.7065230  93.8388060
  36.1606400  95.7975960  97.2987410  35.5055240  95.5287600  96.6547110
  36.9984350  95.6880440  96.8489390  53.6662030  98.1288130  97.9121680
  54.0370860  97.3455450  97.5057650  54.3063960  98.8177230  97.7338980
  52.7121230  97.5672400  90.2252270  52.9870070  98.4751280  90.0971490
  52.5231970  97.5034930  91.1614260  49.1096840  90.5917250  91.5205900
  49.5281720  90.4048230  90.6802560  48.8032900  89.7396300  91.8308830
  52.6086570  95.5041390  95.2181700  52.2330170  94.7369320  94.7862990
  51.8789690  95.8864090  95.7056630  37.1982330  96.1828530 101.8390750
  37.5655370  96.0955930 102.7186770  36.6293150  95.4195080 101.7397610
  35.3744480  93.0074890  93.2412740  34.4708560  93.2705090  93.0664400
  35.8585100  93.2786060  92.4612700  51.8837530  93.7298880  98.5188940
  52.4075010  93.2361530  97.8879110  52.4696950  93.8649240  99.2636510
  52.0627250  93.8138750 102.0408490  51.1129960  93.7802290 102.1553480
  52.2440260  94.7238860 101.8058260  37.9171690  92.0640430  91.1507120
  38.6263390  91.6423650  90.6654400  37.2011630  92.1315660  90.5190470
  37.5645850  88.1179760  90.1909770  38.2873980  88.6588700  90.5090990
  37.8370370  87.8443180  89.3151310  51.3737500  92.9872230  94.4581350
  51.8696620  92.7543100  95.2430230  51.1753570  92.1484070  94.0418990
  37.2538040  87.3685950 100.0932390  37.9014230  86.8183330  99.6527550
  37.6739880  87.6229100 100.9148200  52.8024660  91.6233180  96.9919030
  52.6923940  91.4689220  97.9301300  53.5632250  91.0954120  96.7494440
  53.6914930  89.4541100  90.2325170  54.6164240  89.3222280  90.0243460
  53.6690720  89.5333920  91.1861620  53.7653420  90.2251760  92.8581880
  52.9704920  90.1596880  93.3874790  53.9696700  91.1602400  92.8467230
  50.7071840 104.2643310  96.8520270  51.3030910 103.9427880  96.1754690
  50.9649990 103.7915130  97.6433540  42.3140440 102.2520810 102.6020620
  42.0731800 102.5195370 101.7151140  43.2543080 102.4226540 102.6571480
  51.2584050 104.9138610 100.6818000  50.7987020 105.6654420 100.3076020
  50.6296510 104.1945080 100.6232800  41.6879770 103.2226850  99.8566130
  42.2044790 102.6114210  99.3314390  42.3377150 103.7255630 100.3477140
  44.4275270 104.1135340 100.6835110  44.7153080 103.8589640  99.8068120
  44.9398490 103.5612700 101.2740680  45.6452280  87.8525540 101.2631620
  44.8624070  88.3271040 101.5428380  45.3515210  86.9480370 101.1544800
  50.1973350  88.5548640  99.3080710  50.6381440  88.4993740  98.4602310
  49.9280940  89.4706650  99.3790890  52.0611920  88.1863880  97.3189530
  52.0000320  87.2425100  97.1720550  52.8403950  88.2943970  97.8642990
  36.3664670 104.3256240  96.2813480  36.1986710 103.6926920  96.9795370
  35.4999180 104.5315640  95.9307670  36.9892690  88.1573020  93.7845340
  37.7472050  88.2701900  93.2109370  36.5269860  88.9942220  93.7388770
  43.5306500  90.2712290  96.7747650  42.7181010  89.8969180  96.4343530
  44.0348140  89.5157370  97.0768840  48.0331480  86.9354740  98.0130720
  48.6360850  87.5074950  98.4879240  47.2924470  87.4994180  97.7904620
  51.1766080  87.3376300  93.2871000  51.3716710  88.2359750  93.5538430
  50.3895950  87.1063380  93.7803950  37.9727370 103.0189470  93.7263620
  37.4474990 103.3997500  93.0225580  37.8971950 103.6440240  94.4473330
  39.3617840  88.6837070  92.3247310  39.8910600  87.8966870  92.1955260
  39.9946160  89.3628260  92.5582840  41.5555680  88.4212210  95.3792700
  40.9258420  87.7199520  95.5462830  41.0160820  89.1816340  95.1625860
  52.7292690 104.5777010  95.0477560  52.9044880 103.8914750  94.4038480
  52.0314260 105.1024060  94.6554230  40.5720340 104.9671850  92.6012870
  41.3039160 104.6831130  92.0536760  40.8314010 104.7285130  93.4912250
  39.7335130 101.0836580  92.6059200  39.1044010 101.5521680  93.1545030
  39.8482960 100.2385800  93.0405390  47.1884850  95.1342240  78.7560400
  47.1078900  94.2196850  78.4852110  46.7749270  95.6309310  78.0500110
  45.3202890  96.9121260  80.6369670  44.5444990  96.4321700  80.9268240
  45.9715820  96.2326910  80.4625830  39.3368720  97.2241070  81.5145430
  38.5053600  96.9689780  81.9141940  39.9449700  97.2951840  82.2503350
  49.3410320 101.3181450  79.4168800  48.8791850 100.5468690  79.7455970
  50.1535870 101.3447520  79.9221250  39.3169980 101.2581160  81.7103450
  39.6198020 100.3678900  81.5313670  40.0613570 101.8151380  81.4825700
  37.7460670  92.1842960  75.2987820  36.8577370  92.5258930  75.1967700
  38.0301860  91.9843280  74.4068650  35.7093680  94.7848610  81.1827520
  36.2809790  94.0170810  81.1831160  35.7095220  95.0837370  80.2734130
  45.5673630 103.6039460  79.0372790  44.9485070 104.0596960  78.4667230
  46.4225410 103.7590920  78.6362490  44.7611880  99.5878450  80.6439830
  44.6920160  98.6468390  80.4828960  45.5231740  99.6779860  81.2162400
  36.9518550  90.1932970  82.9696450  36.7721390  89.2958720  83.2499210
  36.5498630  90.7404840  83.6443400  45.7917050  92.3948830  80.8708760
  46.1681870  91.5220710  80.7582430  45.6936560  92.7307530  79.9799200
  39.9222060  90.7674460  76.3326200  40.0288810  91.6678190  76.6394960
  39.0114420  90.7192430  76.0420850  49.5741170  89.8899270  77.8037100
  50.3950790  89.3995840  77.8462580  49.6075250  90.4796930  78.5568940
  37.5705220  92.6893470  81.5778790  38.2515330  92.9531840  82.1966190
  37.2553270  91.8494340  81.9116800  41.7629790  93.7360830  80.6651380
  42.2708010  94.2341800  81.3056400  42.2943030  92.9596030  80.4890740
  53.8640720  91.9066020  84.3680730  53.1592890  92.2947730  83.8495840
  54.1298640  92.6016310  84.9701660  40.0465890  88.3759390  84.9314800
  40.0484330  88.8931780  84.1260700  39.2170200  87.8989570  84.9084730
  46.4336980  98.4878700  76.4304700  45.8154250  98.9528150  75.8667420
  46.9460230  99.1806180  76.8474210  41.2968740  98.0154570  83.1088300
  40.9638120  98.6423490  83.7509370  41.4735420  98.5416450  82.3289970
  49.8102650  91.8299650  80.5764640  49.1058220  92.1184540  81.1567750
  50.1714810  92.6399760  80.2164200  39.7281220  90.0869350  82.9385250
  40.0698030  90.9311400  82.6439120  38.7897030  90.2353090  83.0550590
  40.5087840  99.9835370  84.9237480  41.1261840 100.6586450  84.6421930
  39.6480960 100.3923350  84.8324980  35.8020180  99.1735230  73.8044330
  35.4248160  99.6622330  73.0729230  36.0593250  99.8460510  74.4350860
  51.4265430 101.4474780  82.8392120  50.7428950 102.1173890  82.8308790
  51.9659720 101.6455430  82.0736980  52.8789570  91.2754440  80.9673850
  51.9314480  91.3093420  81.0989280  53.2039560  92.0893390  81.3523210
  43.4109110  87.5751620  79.2629840  43.7184090  87.0198510  78.5465340
  42.4809810  87.7096080  79.0802830  48.9624170 103.2918910  81.5537300
  48.9751330 102.8881200  80.6859560  48.4099390 104.0666200  81.4498730
  50.2569590 100.0135130  76.6427470  50.1465920  99.0709460  76.7676890
  50.2537840 100.3750770  77.5290230  48.3609610  98.1948750  82.8819910
  48.7778400  97.9808860  82.0473370  49.0849430  98.4521540  83.4528530
  45.7989870  95.6400450  75.9989960  44.8719150  95.5737830  76.2278430
  45.9514690  96.5780580  75.8845200  45.7858950  91.9117450  72.9957120
  44.8462620  92.0731410  73.0809580  46.1042210  92.6303130  72.4493110
  52.3071710  96.5935970  82.9736150  51.4790340  96.6629060  82.4986280
  52.9022190  97.1790280  82.5051980  49.8287160  97.2020750  76.5025210
  49.2099580  96.8640300  75.8551510  49.8111610  96.5580510  77.2104400
  49.2713720  93.3805290  83.9191020  48.8584900  94.2059000  84.1731010
  48.5389670  92.7950330  83.7267380  41.4046510  96.1665190  78.7809690
  41.0003510  95.4542440  78.2855590  41.4909630  95.8218430  79.6697730
  41.8728210  99.8532750  80.9448900  41.5756500  99.2478220  80.2656680
  42.8228030  99.8910060  80.8338260  40.1175130  92.9408400  82.5608730
  40.6689720  93.0503740  81.7861980  40.6318640  93.3146000  83.2763960
  49.9613820 103.4264620  84.6072000  49.4844380 104.2336810  84.4144610
  49.2775610 102.7742950  84.7598210  40.9646640  99.5914440  87.5956700
  40.0675170  99.8154410  87.8430100  40.9899510  99.7149380  86.6468100
  48.0051860  96.4407560  73.5097960  48.4445140  95.6029990  73.3635780
  48.7180280  97.0736960  73.5962100  39.7917860  96.4627760  86.1714070
  39.6525630  97.3350560  86.5401470  38.9099220  96.1200570  86.0262010
  46.1147240 101.3803630  77.4779200  46.5543150 102.1227960  77.0634590
  46.0534130 101.6230200  78.4018160  41.5898210 102.4049460  88.3799220
  41.5613640 102.8092410  87.5127650  41.4263180 101.4759820  88.2170820
  51.5869000  87.6950370  71.8239000  51.2741660  87.7877200  72.7238070
  52.3481470  88.2731400  71.7736430  38.1051140  95.0610170  76.2816340
  37.9848740  95.7872260  75.6697610  37.7952030  94.2913080  75.8044250
  53.5413030 103.1876560  89.6763390  54.0172750 103.6659450  90.3552470
  54.1620190 103.1194050  88.9508890  35.7436510  98.2325310  82.0884980
  35.8216930  98.3674080  81.1440700  36.3578190  97.5241200  82.2813100
  36.9884140  99.9325500  78.4991160  36.5812220 100.0740090  77.6444760
  37.8797150  99.6485660  78.2962370  52.9446280 100.3789410  86.8363400
  53.0709340 100.1401290  85.9180580  52.9867660  99.5473950  87.3085480
  46.8063020 104.0817410  85.4058210  47.3207690 103.9925420  86.2080640
  45.9632100 104.4277110  85.6986120  48.7817420 104.3672750  74.8342210
  48.6218560 104.0775690  75.7324040  48.6164130 103.5912880  74.2987440
  41.2605800 104.1471280  76.6113830  41.0848280 103.2306820  76.3981630
  40.4061540 104.5058570  76.8511630  48.4843550 101.8760310  73.3940210
  47.7908710 101.8737600  72.7342490  49.2266410 101.4519630  72.9634380
  48.0493480 103.5023020  77.4688700  48.5050430 102.7212400  77.7827320
  48.3886000 104.2129840  78.0129880  52.7970290  92.4321870  87.8013140
  52.1814560  92.9401540  87.2728600  52.4766710  91.5320200  87.7439080
  35.7996030  99.2739480  84.6279440  35.9627070  98.8044840  83.8098810
  36.2648480  98.7663040  85.2928280  40.5714800  88.4045240  79.6640010
  40.1282950  89.1854780  79.3324530  41.1299790  88.7275130  80.3710950
  44.8584610  91.2713760  85.2675330  44.3963980  91.4796780  86.0795270
  44.4562720  90.4573110  84.9646000  49.8589120  92.4922710  86.3971990
  49.0082710  92.1928460  86.7181060  49.6990910  92.7364720  85.4855810
  46.9538830  93.9924460  88.4970780  47.2792240  93.1588210  88.1573010
  47.7419160  94.5152980  88.6449110  43.6873620  88.0255940  74.5445840
  43.0627800  88.0215810  75.2699150  43.6003740  87.1586900  74.1481810
  42.6090700  88.9492570  81.5229610  42.9063030  89.8555400  81.4421630
  43.1576260  88.4611350  80.9089180  40.3629020  93.5278810  77.3921260
  40.1369940  93.3115980  78.2967880  39.5821550  93.9607270  77.0467230
  47.5926780  93.5342180  75.9911910  46.9935670  94.2577980  75.8075530
  48.1406390  93.4718960  75.2088360  42.8028230  94.4264390  88.0581530
  42.7071830  93.4859120  87.9081930  43.6460210  94.6479460  87.6629600
  46.1991650  92.1705720  78.0215190  46.5921220  92.4877920  77.2083880
  46.5608500  91.2917600  78.1359710  37.9338770  90.8378060  86.2115310
  37.5402160  91.6853270  86.4188090  37.2457170  90.2004430  86.4023950
  44.5083820  90.9213030  89.2812050  43.8182140  90.7285230  89.9158140
  45.2516120  91.2047670  89.8136350  35.2355820  88.7606520  80.2445390
  34.9468870  89.3309380  80.9570370  35.9801580  88.2810970  80.6076620
  35.4226050  92.7026640  71.4548110  35.3400720  93.6457400  71.5963100
  35.0709110  92.5601550  70.5760460  46.7846790  94.7611470  82.1165970
  46.0527910  95.2698280  82.4656070  46.3871130  93.9441450  81.8154750
  43.2224180  91.4365670  80.5218460  43.2260240  90.9955620  79.6723000
  44.1175300  91.7583000  80.6290280  39.0726560  91.3192160  79.4812670
  38.7326610  91.7967390  80.2379720  38.3103880  90.8657280  79.1213770
  43.2844330  92.4377750  73.5125220  43.4057150  92.3964230  74.4611040
  42.8992840  93.3001900  73.3571950  47.2472700  90.2145150  81.5288910
  47.2645440  90.6653800  82.3730760  46.9988280  89.3150790  81.7422350
  42.2965830  94.7478890  72.9108520  41.7282730  94.2997140  72.2844430
  43.0054830  95.1071670  72.3773670  50.6743450  87.6277330  87.3675290
  50.9989220  86.8966990  87.8933270  50.7099960  87.3090970  86.4656280
  37.3735010  98.6490910  86.7875250  36.9889800  98.0084580  87.3858210
  37.6847200  99.3527030  87.3569980  43.5232150  95.4967450  82.2683870
  43.8902280  95.0226020  83.0145210  43.3337210  96.3709020  82.6092210
  36.3872640  90.2411140  78.3977340  36.1019560  89.8766810  79.2355960
  36.3251500  89.5091600  77.7840480  41.3131520  94.5376090  84.5868080
  41.0088590  95.4168070  84.8118440  42.2677980  94.5975880  84.6225520
  39.8413310  98.7437080  75.1834930  39.0675570  98.2034700  75.0233650
  40.5707940  98.2243690  74.8452690  50.6001290  97.7402440  80.9761320
  51.3200410  98.2357730  80.5857430  50.3983110  97.0620330  80.3315190
  46.0611230  89.1340400  75.1190710  45.2475840  88.6353570  75.0436020
  45.8673180  89.9738650  74.7027060  45.9820090  97.8111500  86.8630320
  45.9157400  96.8907170  86.6087910  45.3525230  97.9086940  87.5774960
  48.7759620  93.5060050  73.4152870  49.6639240  93.8177280  73.2404210
  48.7464710  92.6332300  73.0233450  39.8850710  98.4117460  78.8213740
  40.4029380  97.6085720  78.7670630  39.4334730  98.3496600  79.6630570
  44.7720210  99.6783740  74.0941040  45.1135910 100.4225970  73.5984360
  43.9432920  99.9914860  74.4565870  37.3695250  95.3778830  85.7339440
  37.0110190  96.0432680  86.3212780  37.0749810  94.5462380  86.1052060
  40.5708370  95.8363070  88.6178990  40.2708510  95.9820250  87.7206810
  41.3419610  95.2768360  88.5252380  45.9136820 100.6332070  86.6134120
  45.9281360  99.7013030  86.3953030  45.2061920 100.7191830  87.2523890
  51.0473890  94.8171890  72.8832730  50.9637610  95.2486110  72.0329170
  51.7668080  95.2770240  73.3159550  52.1248030  97.2739410  85.9602700
  51.3996220  97.8668190  85.7632090  52.6523490  97.2662950  85.1616070
  52.0761140 101.6714150  75.6114860  51.4337300 101.0169770  75.8858580
  51.6891800 102.0769240  74.8355530  47.6547620  98.9999580  79.4586550
  48.0071440  98.4027710  78.7987920  46.7709950  98.6743810  79.6294800
  43.7410900  99.7597270  76.8656960  44.4282030 100.3066480  77.2464550
  42.9543320 100.3038000  76.9006570  35.8803300  95.3770090  72.3574040
  36.7498150  95.6594890  72.6409960  35.3893620  96.1905960  72.2422850
  43.0438110  96.7643300  76.4782320  43.5000890  97.5748550  76.7042510
  42.6926320  96.4466440  77.3100810  45.3470720 102.2749640  83.7074620
  45.9912940 102.4809020  84.3848040  45.7100160 101.5138040  83.2545470
  38.9449890  87.1080950  76.9504840  38.8164520  87.0998850  77.8989760
  38.1211910  87.4464040  76.5995850  46.6202800 100.2781990  82.4252070
  47.2625030  99.5775150  82.5384240  47.1452150 101.0580430  82.2448960
  50.4658520 100.5630610  72.1491210  50.2396100  99.8461050  72.7415850
  50.0754720 100.3143050  71.3112960  48.3940420 101.0776890  85.6288130
  48.7296660 101.6643580  86.3066050  47.4740760 100.9469600  85.8585920
  36.2474550 104.5897470  72.9235670  36.6072190 105.1886810  72.2692940
  36.1066890 105.1357360  73.6970700  35.9443820  88.8672070  86.4111540
  35.2302340  89.0668990  87.0164150  36.3638860  88.0911640  86.7826340
  50.0474770  98.4802550  73.8105370  49.7596470  98.9415240  74.5983250
  50.8426940  98.0200320  74.0789590  36.2316410 102.8552330  87.3978070
  36.3407530 101.9147070  87.2573460  35.5796970 103.1207080  86.7491800
  44.2229000 101.1268220  88.7976190  43.9025870 100.4077460  89.3421880
  43.5487360 101.8023290  88.8712250  42.2643170 101.9728670  73.7409340
  42.2553270 102.7058360  73.1253850  41.3441530 101.7260250  73.8336300
  37.8649810  97.1943560  74.4856100  37.2577760  97.9342460  74.4951400
  38.3399160  97.2842920  73.6594300  47.4382600  91.3594380  84.1612990
  47.8063420  90.5389590  84.4892560  46.5780800  91.4196270  84.5768640
  50.8044630  90.3151320  74.9700550  50.1757790  90.4196990  74.2558780
  50.3096550  90.5348100  75.7594430  45.2502770 102.0356910  72.4034530
  45.3514750 101.8320900  71.4736510  44.3504510 101.7815190  72.6082310
  42.7728660  92.5937270  76.3858430  42.0644810  93.0623610  76.8272040
  43.0573140  91.9359280  77.0203620  44.3984590  94.0133970  84.3850960
  44.8969840  94.4879790  85.0502810  44.5407540  93.0897490  84.5920990
  46.8044090  89.3187930  77.8254220  46.6811870  89.3374060  76.8763730
  47.7528650  89.3666870  77.9452620  43.8920880 104.5543230  77.0982200
  44.1462380 104.5164620  76.1761570  42.9433360 104.4276560  77.0910450
  40.9763680  90.9022350  73.7609140  41.8254210  91.3392500  73.6949330
  40.6094950  91.2142610  74.5881200  51.6051450  90.2301930  85.2279350
  51.1025050  90.9707330  85.5673160  52.4208110  90.6185930  84.9116140
  49.8973460  95.4735110  78.6740710  48.9563600  95.4885340  78.8488400
  50.2117530  94.6871070  79.1201010  39.8755100  97.1554710  72.2344670
  40.6418370  97.0436070  72.7970100  39.9529790  96.4592680  71.5821440
  38.5701860  94.5879780  72.9177560  38.6505450  93.6407290  73.0294960
  39.4621610  94.9186660  73.0238220  51.8999040 102.6443960  80.3494970
  52.0246460 103.4675130  80.8218780  52.7664600 102.4334690  80.0019120
  39.3716570 104.7375170  80.0212100  40.1079050 104.1890630  80.2920670
  39.7557490 105.6031180  79.8818090  36.2562050 100.8048740  75.8953610
  35.3301830 101.0469880  75.8859020  36.7218480 101.6323000  75.7738360
  38.3774850 103.9221240  89.2097680  39.1787580 104.2433290  89.6233080
  37.8626670 103.5616820  89.9317590  42.4818880 103.9105480  71.8437670
  43.2747490 104.1994310  71.3919460  41.9623230 103.4797650  71.1650150
  47.2139480 100.0301110  89.1573090  46.6077640 100.0532710  88.4168840
  46.9093590  99.2984150  89.6940340  48.6439850 103.7581400  87.7682500
  49.5961600 103.6739420  87.7182740  48.4968070 104.4223110  88.4416290
  51.5349050 103.1375610  73.2674410  51.2490560 102.7240750  72.4528590
  51.3368600 104.0663320  73.1474930  36.0972660  96.4094700  88.1533730
  36.6011680  95.8301980  88.7249960  35.3580080  96.6934930  88.6910100
  42.9996280  99.1308890  71.7080020  42.8946920  98.5161240  72.4341400
  42.8320500  98.6074780  70.9243030  43.1510600  97.8165690  87.6869250
  42.3856270  98.3850690  87.6023920  43.3326560  97.5241900  86.7937480
  46.2399010  98.1928920  72.3122010  45.6909110  98.6398220  72.9564750
  46.8618270  97.6878170  72.8359680  50.2933950  99.5471020  88.2444270
  51.0343420  99.8846780  87.7411730  49.5306630  99.7163080  87.6914040
  38.1295740  94.5524290  89.0483800  38.1701080  94.2538160  89.9569030
  38.9841240  94.9531900  88.8891320  41.9074130  97.1519840  74.2087310
  42.3290550  96.9859710  75.0518700  42.0324970  96.3420070  73.7142450
  40.0701550  93.1316390  87.0158290  39.5398010  92.6407340  86.3881630
  40.7389620  93.5600590  86.4816220  44.4201770  96.1757450  71.4564410
  44.9407430  95.4606470  71.0905560  45.0670170  96.8143320  71.7564920
  48.9679610  97.5985850  86.7799480  49.3820630  97.7530930  87.6289900
  48.0330610  97.7241070  86.9425260  49.4401780  94.9382010  88.7838630
  50.0222550  94.1834330  88.6959110  49.6163550  95.4689450  88.0070110
  40.5573850  90.0978760  87.0955580  40.4630720  89.4799510  86.3706450
  39.9771240  90.8245050  86.8685490  43.3235290  88.6552000  84.1282970
  42.8752590  88.6776260  83.2828520  42.6900490  88.2571020  84.7253270
  43.7294840  97.5506330  84.7495410  44.1482950  98.3939060  84.5771650
  42.8103470  97.6878370  84.5202190  46.0658740  95.2822510  86.1333250
  46.1854950  94.6863650  86.8728090  46.9252740  95.3192200  85.7134550
  48.4046640  95.8359700  84.7095760  47.8781860  96.3602320  84.1060900
  48.7477980  96.4687090  85.3405490  40.8033030  93.2253070  71.1545470
  40.6022090  92.3620430  71.5158810  40.6325080  93.1386430  70.2167070
  41.5802260 103.8559340  85.8653140  41.0423350 104.5805400  85.5461840
  41.8336220 103.3789680  85.0750480  42.8327510  91.8243860  87.3909070
  43.4227200  91.5159710  88.0786890  42.0147750  91.3523610  87.5468970
  47.6520940  91.4409670  87.6242090  46.9636460  90.7791210  87.5592080
  48.3726960  90.9947940  88.0690550  48.2821340  88.0361300  73.6832350
  48.5623630  87.1929200  74.0391770  47.5087070  88.2684410  74.1971100
  39.6015830  90.3253690  71.1423350  39.9041730  90.3321120  70.2342500
  40.3410420  89.9751550  71.6391010  44.4364470 105.0910550  86.1239790
  44.3623170 105.9945690  86.4312160  43.5343310 104.7722450  86.0961860
  42.8200760  89.2688310  72.1279550  42.4722760  88.5912300  71.5482000
  43.0213530  88.8077820  72.9422940  44.9849800 104.2569060  73.7466150
  45.8800590 104.5954030  73.7684910  45.0167430 103.5348470  73.1190430
  38.6245960  99.6296110  71.9753150  39.0620830 100.1725780  72.6310730
  39.1093690  98.8043060  71.9849490  35.8391760 102.4185140  79.4273410
  36.1694770 101.5506200  79.1952050  36.2682760 102.6243660  80.2578370
  40.4353680 100.7494150  77.0875380  40.1349220 100.6259120  77.9879290
  40.3291170  99.8902740  76.6791110  36.3281970 103.2855730  82.1655040
  35.8912960 103.4656530  82.9979190  36.8959650 104.0430350  82.0236760
  51.9644150 102.7872730  86.4532350  51.3646140 102.8465290  85.7096270
  52.0938050 101.8477710  86.5829200  53.2045600 100.5290550  71.7902060
  52.3738560 100.5967200  72.2609290  53.3817430 101.4194670  71.4868920
  52.6602060  97.2738030  74.2936260  53.4220970  97.8434680  74.3995950
  52.6756430  96.7065230  75.0644570  36.1606400  95.7975960  78.5243920
  35.5055240  95.5287600  77.8803620  36.9984350  95.6880440  78.0745900
  53.6662030  98.1288130  79.1378190  54.0370860  97.3455450  78.7314160
  54.3063960  98.8177230  78.9595490  50.6495790  99.5124710  84.5508510
  49.8355630  99.9421870  84.8134300  51.0569990 100.1243120  83.9377560
  52.7121230  97.5672400  71.4508780  52.9870070  98.4751280  71.3228000
  52.5231970  97.5034930  72.3870770  49.1096840  90.5917250  72.7462410
  49.5281720  90.4048230  71.9059070  48.8032900  89.7396300  73.0565340
  52.6086570  95.5041390  76.4438210  52.2330170  94.7369320  76.0119500
  51.8789690  95.8864090  76.9313140  37.1982330  96.1828530  83.0647260
  37.5655370  96.0955930  83.9443280  36.6293150  95.4195080  82.9654120
  51.9986190  94.6512910  86.0777730  51.7672280  94.4225660  85.1775680
  52.2590740  95.5712460  86.0322620  36.7498330  93.0937620  86.9705680
  35.8554380  93.0604380  87.3099390  37.2895880  93.2924410  87.7356930
  50.4374260  89.8769340  88.8557430  51.3144440  89.8852740  89.2391430
  50.4495100  89.1400180  88.2449780  35.3744480  93.0074890  74.4669250
  34.4708560  93.2705090  74.2920910  35.8585100  93.2786060  73.6869210
  51.8837530  93.7298880  79.7445450  52.4075010  93.2361530  79.1135620
  52.4696950  93.8649240  80.4893020  52.0627250  93.8138750  83.2665000
  51.1129960  93.7802290  83.3809990  52.2440260  94.7238860  83.0314770
  37.9171690  92.0640430  72.3763630  38.6263390  91.6423650  71.8910910
  37.2011630  92.1315660  71.7446980  37.5645850  88.1179760  71.4166280
  38.2873980  88.6588700  71.7347500  37.8370370  87.8443180  70.5407820
  51.3737500  92.9872230  75.6837860  51.8696620  92.7543100  76.4686740
  51.1753570  92.1484070  75.2675500  37.2538040  87.3685950  81.3188900
  37.9014230  86.8183330  80.8784060  37.6739880  87.6229100  82.1404710
  52.8024660  91.6233180  78.2175540  52.6923940  91.4689220  79.1557810
  53.5632250  91.0954120  77.9750950  51.1490380  87.5627310  84.6758540
  51.7862600  88.1761450  85.0417730  51.2965270  87.5987970  83.7307770
  53.6914930  89.4541100  71.4581680  54.6164240  89.3222280  71.2499970
  53.6690720  89.5333920  72.4118130  53.7653420  90.2251760  74.0838390
  52.9704920  90.1596880  74.6131300  53.9696700  91.1602400  74.0723740
  50.7071840 104.2643310  78.0776780  51.3030910 103.9427880  77.4011200
  50.9649990 103.7915130  78.8690050  37.0070040  87.5241620  84.0614220
  36.6584860  87.9805440  84.8272400  36.6757740  86.6298750  84.1436650
  38.6134410 100.6961220  88.2267410  38.5704040 100.3254130  89.1081870
  38.7445420 101.6338790  88.3669230  42.3140440 102.2520810  83.8277130
  42.0731800 102.5195370  82.9407650  43.2543080 102.4226540  83.8827990
  44.5194860  88.7153500  87.5833640  44.4583750  89.3075330  88.3329050
  45.4595240  88.6079460  87.4383900  47.1569420  88.3723560  87.2225930
  47.7709830  88.6902850  86.5607010  47.7018980  87.8872150  87.8421790
  53.5744600 104.2715190  84.6287770  53.0802880 104.6684060  83.9114900
  52.9657890 103.6464400  85.0225050  37.6790680  87.0517820  87.3364990
  38.2273670  86.8705870  86.5731100  37.7445990  86.2611930  87.8721300
  38.4522440 103.6423470  85.3465190  37.8582760 103.5108170  86.0855230
  38.4446280 102.8061610  84.8807290  47.8977460  86.9355700  83.5495220
  47.0237300  87.2690810  83.3468150  47.7888210  86.4628880  84.3747090
  48.8049440  89.1426570  84.9336940  48.4762800  88.3278330  84.5538670
  49.7531740  89.0996380  84.8102630  51.2584050 104.9138610  81.9074510
  50.7987020 105.6654420  81.5332530  50.6296510 104.1945080  81.8489310
  38.0834670 101.0081850  84.2973230  37.3568730 100.3887140  84.2299180
  38.1443820 101.4022460  83.4271310  41.6879770 103.2226850  81.0822640
  42.2044790 102.6114210  80.5570900  42.3377150 103.7255630  81.5733650
  44.4275270 104.1135340  81.9091620  44.7153080 103.8589640  81.0324630
  44.9398490 103.5612700  82.4997190  45.6452280  87.8525540  82.4888130
  44.8624070  88.3271040  82.7684890  45.3515210  86.9480370  82.3801310
  50.1973350  88.5548640  80.5337220  50.6381440  88.4993740  79.6858820
  49.9280940  89.4706650  80.6047400  52.0611920  88.1863880  78.5446040
  52.0000320  87.2425100  78.3977060  52.8403950  88.2943970  79.0899500
  36.3664670 104.3256240  77.5069990  36.1986710 103.6926920  78.2051880
  35.4999180 104.5315640  77.1564180  36.9892690  88.1573020  75.0101850
  37.7472050  88.2701900  74.4365880  36.5269860  88.9942220  74.9645280
  43.5306500  90.2712290  78.0004160  42.7181010  89.8969180  77.6600040
  44.0348140  89.5157370  78.3025350  48.0331480  86.9354740  79.2387230
  48.6360850  87.5074950  79.7135750  47.2924470  87.4994180  79.0161130
  51.1766080  87.3376300  74.5127510  51.3716710  88.2359750  74.7794940
  50.3895950  87.1063380  75.0060460  37.9727370 103.0189470  74.9520130
  37.4474990 103.3997500  74.2482090  37.8971950 103.6440240  75.6729840
  39.3617840  88.6837070  73.5503820  39.8910600  87.8966870  73.4211770
  39.9946160  89.3628260  73.7839350  41.5555680  88.4212210  76.6049210
  40.9258420  87.7199520  76.7719340  41.0160820  89.1816340  76.3882370
  44.4947630 105.0351440  89.2759820  45.4214940 104.7995710  89.3195780
  44.4798060 105.8623440  88.7945850  52.7292690 104.5777010  76.2734070
  52.9044880 103.8914750  75.6294990  52.0314260 105.1024060  75.8810740
  41.6811240  87.6996190  89.0401700  41.3995510  88.2029790  88.2762520
  42.0630940  86.9017940  88.6743830  40.5720340 104.9671850  73.8269380
  41.3039160 104.6831130  73.2793270  40.8314010 104.7285130  74.7168760
  39.7335130 101.0836580  73.8315710  39.1044010 101.5521680  74.3801540
  39.8482960 100.2385800  74.2661900  48.2826700  87.1149770  89.6182170
  48.1692150  87.4344380  90.5133690  49.0996440  87.5162280  89.3219450
  51.0625190 104.2621300  89.1000860  51.8550510 103.7670530  88.8926820
  51.3558340 104.9411440  89.7076470  47.1884850  95.1342240  59.9816910
  47.1078900  94.2196850  59.7108620  46.7749270  95.6309310  59.2756620
  45.3202890  96.9121260  61.8626180  44.5444990  96.4321700  62.1524750
  45.9715820  96.2326910  61.6882340  39.3368720  97.2241070  62.7401940
  38.5053600  96.9689780  63.1398450  39.9449700  97.2951840  63.4759860
  49.3410320 101.3181450  60.6425310  48.8791850 100.5468690  60.9712480
  50.1535870 101.3447520  61.1477760  39.3169980 101.2581160  62.9359960
  39.6198020 100.3678900  62.7570180  40.0613570 101.8151380  62.7082210
  37.7460670  92.1842960  56.5244330  36.8577370  92.5258930  56.4224210
  38.0301860  91.9843280  55.6325160  35.7093680  94.7848610  62.4084030
  36.2809790  94.0170810  62.4087670  35.7095220  95.0837370  61.4990640
  45.5673630 103.6039460  60.2629300  44.9485070 104.0596960  59.6923740
  46.4225410 103.7590920  59.8619000  44.7611880  99.5878450  61.8696340
  44.6920160  98.6468390  61.7085470  45.5231740  99.6779860  62.4418910
  36.9518550  90.1932970  64.1952960  36.7721390  89.2958720  64.4755720
  36.5498630  90.7404840  64.8699910  45.7917050  92.3948830  62.0965270
  46.1681870  91.5220710  61.9838940  45.6936560  92.7307530  61.2055710
  39.9222060  90.7674460  57.5582710  40.0288810  91.6678190  57.8651470
  39.0114420  90.7192430  57.2677360  49.5741170  89.8899270  59.0293610
  50.3950790  89.3995840  59.0719090  49.6075250  90.4796930  59.7825450
  37.5705220  92.6893470  62.8035300  38.2515330  92.9531840  63.4222700
  37.2553270  91.8494340  63.1373310  41.7629790  93.7360830  61.8907890
  42.2708010  94.2341800  62.5312910  42.2943030  92.9596030  61.7147250
  53.8640720  91.9066020  65.5937240  53.1592890  92.2947730  65.0752350
  54.1298640  92.6016310  66.1958170  40.0465890  88.3759390  66.1571310
  40.0484330  88.8931780  65.3517210  39.2170200  87.8989570  66.1341240
  46.4336980  98.4878700  57.6561210  45.8154250  98.9528150  57.0923930
  46.9460230  99.1806180  58.0730720  41.2968740  98.0154570  64.3344810
  40.9638120  98.6423490  64.9765880  41.4735420  98.5416450  63.5546480
  49.8102650  91.8299650  61.8021150  49.1058220  92.1184540  62.3824260
  50.1714810  92.6399760  61.4420710  39.7281220  90.0869350  64.1641760
  40.0698030  90.9311400  63.8695630  38.7897030  90.2353090  64.2807100
  40.5087840  99.9835370  66.1493990  41.1261840 100.6586450  65.8678440
  39.6480960 100.3923350  66.0581490  35.8020180  99.1735230  55.0300840
  35.4248160  99.6622330  54.2985740  36.0593250  99.8460510  55.6607370
  51.4265430 101.4474780  64.0648630  50.7428950 102.1173890  64.0565300
  51.9659720 101.6455430  63.2993490  52.8789570  91.2754440  62.1930360
  51.9314480  91.3093420  62.3245790  53.2039560  92.0893390  62.5779720
  43.4109110  87.5751620  60.4886350  43.7184090  87.0198510  59.7721850
  42.4809810  87.7096080  60.3059340  48.9624170 103.2918910  62.7793810
  48.9751330 102.8881200  61.9116070  48.4099390 104.0666200  62.6755240
  50.2569590 100.0135130  57.8683980  50.1465920  99.0709460  57.9933400
  50.2537840 100.3750770  58.7546740  48.3609610  98.1948750  64.1076420
  48.7778400  97.9808860  63.2729880  49.0849430  98.4521540  64.6785040
  45.7989870  95.6400450  57.2246470  44.8719150  95.5737830  57.4534940
  45.9514690  96.5780580  57.1101710  45.7858950  91.9117450  54.2213630
  44.8462620  92.0731410  54.3066090  46.1042210  92.6303130  53.6749620
  52.3071710  96.5935970  64.1992660  51.4790340  96.6629060  63.7242790
  52.9022190  97.1790280  63.7308490  49.8287160  97.2020750  57.7281720
  49.2099580  96.8640300  57.0808020  49.8111610  96.5580510  58.4360910
  49.2713720  93.3805290  65.1447530  48.8584900  94.2059000  65.3987520
  48.5389670  92.7950330  64.9523890  41.4046510  96.1665190  60.0066200
  41.0003510  95.4542440  59.5112100  41.4909630  95.8218430  60.8954240
  41.8728210  99.8532750  62.1705410  41.5756500  99.2478220  61.4913190
  42.8228030  99.8910060  62.0594770  40.1175130  92.9408400  63.7865240
  40.6689720  93.0503740  63.0118490  40.6318640  93.3146000  64.5020470
  49.9613820 103.4264620  65.8328510  49.4844380 104.2336810  65.6401120
  49.2775610 102.7742950  65.9854720  40.9646640  99.5914440  68.8213210
  40.0675170  99.8154410  69.0686610  40.9899510  99.7149380  67.8724610
  48.0051860  96.4407560  54.7354470  48.4445140  95.6029990  54.5892290
  48.7180280  97.0736960  54.8218610  39.7917860  96.4627760  67.3970580
  39.6525630  97.3350560  67.7657980  38.9099220  96.1200570  67.2518520
  46.1147240 101.3803630  58.7035710  46.5543150 102.1227960  58.2891100
  46.0534130 101.6230200  59.6274670  41.5898210 102.4049460  69.6055730
  41.5613640 102.8092410  68.7384160  41.4263180 101.4759820  69.4427330
  51.5869000  87.6950370  53.0495510  51.2741660  87.7877200  53.9494580
  52.3481470  88.2731400  52.9992940  38.1051140  95.0610170  57.5072850
  37.9848740  95.7872260  56.8954120  37.7952030  94.2913080  57.0300760
  53.5413030 103.1876560  70.9019900  54.0172750 103.6659450  71.5808980
  54.1620190 103.1194050  70.1765400  35.7436510  98.2325310  63.3141490
  35.8216930  98.3674080  62.3697210  36.3578190  97.5241200  63.5069610
  36.9884140  99.9325500  59.7247670  36.5812220 100.0740090  58.8701270
  37.8797150  99.6485660  59.5218880  52.9446280 100.3789410  68.0619910
  53.0709340 100.1401290  67.1437090  52.9867660  99.5473950  68.5341990
  46.8063020 104.0817410  66.6314720  47.3207690 103.9925420  67.4337150
  45.9632100 104.4277110  66.9242630  48.7817420 104.3672750  56.0598720
  48.6218560 104.0775690  56.9580550  48.6164130 103.5912880  55.5243950
  41.2605800 104.1471280  57.8370340  41.0848280 103.2306820  57.6238140
  40.4061540 104.5058570  58.0768140  48.4843550 101.8760310  54.6196720
  47.7908710 101.8737600  53.9599000  49.2266410 101.4519630  54.1890890
  48.0493480 103.5023020  58.6945210  48.5050430 102.7212400  59.0083830
  48.3886000 104.2129840  59.2386390  52.7970290  92.4321870  69.0269650
  52.1814560  92.9401540  68.4985110  52.4766710  91.5320200  68.9695590
  35.7996030  99.2739480  65.8535950  35.9627070  98.8044840  65.0355320
  36.2648480  98.7663040  66.5184790  40.5714800  88.4045240  60.8896520
  40.1282950  89.1854780  60.5581040  41.1299790  88.7275130  61.5967460
  44.8584610  91.2713760  66.4931840  44.3963980  91.4796780  67.3051780
  44.4562720  90.4573110  66.1902510  49.8589120  92.4922710  67.6228500
  49.0082710  92.1928460  67.9437570  49.6990910  92.7364720  66.7112320
  46.9538830  93.9924460  69.7227290  47.2792240  93.1588210  69.3829520
  47.7419160  94.5152980  69.8705620  43.6873620  88.0255940  55.7702350
  43.0627800  88.0215810  56.4955660  43.6003740  87.1586900  55.3738320
  42.6090700  88.9492570  62.7486120  42.9063030  89.8555400  62.6678140
  43.1576260  88.4611350  62.1345690  40.3629020  93.5278810  58.6177770
  40.1369940  93.3115980  59.5224390  39.5821550  93.9607270  58.2723740
  47.5926780  93.5342180  57.2168420  46.9935670  94.2577980  57.0332040
  48.1406390  93.4718960  56.4344870  42.8028230  94.4264390  69.2838040
  42.7071830  93.4859120  69.1338440  43.6460210  94.6479460  68.8886110
  46.1991650  92.1705720  59.2471700  46.5921220  92.4877920  58.4340390
  46.5608500  91.2917600  59.3616220  37.9338770  90.8378060  67.4371820
  37.5402160  91.6853270  67.6444600  37.2457170  90.2004430  67.6280460
  44.5083820  90.9213030  70.5068560  43.8182140  90.7285230  71.1414650
  45.2516120  91.2047670  71.0392860  35.2355820  88.7606520  61.4701900
  34.9468870  89.3309380  62.1826880  35.9801580  88.2810970  61.8333130
  35.4226050  92.7026640  52.6804620  35.3400720  93.6457400  52.8219610
  35.0709110  92.5601550  51.8016970  46.7846790  94.7611470  63.3422480
  46.0527910  95.2698280  63.6912580  46.3871130  93.9441450  63.0411260
  43.2224180  91.4365670  61.7474970  43.2260240  90.9955620  60.8979510
  44.1175300  91.7583000  61.8546790  39.0726560  91.3192160  60.7069180
  38.7326610  91.7967390  61.4636230  38.3103880  90.8657280  60.3470280
  43.2844330  92.4377750  54.7381730  43.4057150  92.3964230  55.6867550
  42.8992840  93.3001900  54.5828460  47.2472700  90.2145150  62.7545420
  47.2645440  90.6653800  63.5987270  46.9988280  89.3150790  62.9678860
  42.2965830  94.7478890  54.1365030  41.7282730  94.2997140  53.5100940
  43.0054830  95.1071670  53.6030180  50.6743450  87.6277330  68.5931800
  50.9989220  86.8966990  69.1189780  50.7099960  87.3090970  67.6912790
  37.3735010  98.6490910  68.0131760  36.9889800  98.0084580  68.6114720
  37.6847200  99.3527030  68.5826490  43.5232150  95.4967450  63.4940380
  43.8902280  95.0226020  64.2401720  43.3337210  96.3709020  63.8348720
  36.3872640  90.2411140  59.6233850  36.1019560  89.8766810  60.4612470
  36.3251500  89.5091600  59.0096990  41.3131520  94.5376090  65.8124590
  41.0088590  95.4168070  66.0374950  42.2677980  94.5975880  65.8482030
  39.8413310  98.7437080  56.4091440  39.0675570  98.2034700  56.2490160
  40.5707940  98.2243690  56.0709200  50.6001290  97.7402440  62.2017830
  51.3200410  98.2357730  61.8113940  50.3983110  97.0620330  61.5571700
  46.0611230  89.1340400  56.3447220  45.2475840  88.6353570  56.2692530
  45.8673180  89.9738650  55.9283570  45.9820090  97.8111500  68.0886830
  45.9157400  96.8907170  67.8344420  45.3525230  97.9086940  68.8031470
  48.7759620  93.5060050  54.6409380  49.6639240  93.8177280  54.4660720
  48.7464710  92.6332300  54.2489960  39.8850710  98.4117460  60.0470250
  40.4029380  97.6085720  59.9927140  39.4334730  98.3496600  60.8887080
  44.7720210  99.6783740  55.3197550  45.1135910 100.4225970  54.8240870
  43.9432920  99.9914860  55.6822380  37.3695250  95.3778830  66.9595950
  37.0110190  96.0432680  67.5469290  37.0749810  94.5462380  67.3308570
  40.5708370  95.8363070  69.8435500  40.2708510  95.9820250  68.9463320
  41.3419610  95.2768360  69.7508890  45.9136820 100.6332070  67.8390630
  45.9281360  99.7013030  67.6209540  45.2061920 100.7191830  68.4780400
  51.0473890  94.8171890  54.1089240  50.9637610  95.2486110  53.2585680
  51.7668080  95.2770240  54.5416060  52.1248030  97.2739410  67.1859210
  51.3996220  97.8668190  66.9888600  52.6523490  97.2662950  66.3872580
  52.0761140 101.6714150  56.8371370  51.4337300 101.0169770  57.1115090
  51.6891800 102.0769240  56.0612040  47.6547620  98.9999580  60.6843060
  48.0071440  98.4027710  60.0244430  46.7709950  98.6743810  60.8551310
  43.7410900  99.7597270  58.0913470  44.4282030 100.3066480  58.4721060
  42.9543320 100.3038000  58.1263080  35.8803300  95.3770090  53.5830550
  36.7498150  95.6594890  53.8666470  35.3893620  96.1905960  53.4679360
  43.0438110  96.7643300  57.7038830  43.5000890  97.5748550  57.9299020
  42.6926320  96.4466440  58.5357320  45.3470720 102.2749640  64.9331130
  45.9912940 102.4809020  65.6104550  45.7100160 101.5138040  64.4801980
  38.9449890  87.1080950  58.1761350  38.8164520  87.0998850  59.1246270
  38.1211910  87.4464040  57.8252360  46.6202800 100.2781990  63.6508580
  47.2625030  99.5775150  63.7640750  47.1452150 101.0580430  63.4705470
  50.4658520 100.5630610  53.3747720  50.2396100  99.8461050  53.9672360
  50.0754720 100.3143050  52.5369470  48.3940420 101.0776890  66.8544640
  48.7296660 101.6643580  67.5322560  47.4740760 100.9469600  67.0842430
  36.2474550 104.5897470  54.1492180  36.6072190 105.1886810  53.4949450
  36.1066890 105.1357360  54.9227210  35.9443820  88.8672070  67.6368050
  35.2302340  89.0668990  68.2420660  36.3638860  88.0911640  68.0082850
  50.0474770  98.4802550  55.0361880  49.7596470  98.9415240  55.8239760
  50.8426940  98.0200320  55.3046100  36.2316410 102.8552330  68.6234580
  36.3407530 101.9147070  68.4829970  35.5796970 103.1207080  67.9748310
  44.2229000 101.1268220  70.0232700  43.9025870 100.4077460  70.5678390
  43.5487360 101.8023290  70.0968760  42.2643170 101.9728670  54.9665850
  42.2553270 102.7058360  54.3510360  41.3441530 101.7260250  55.0592810
  37.8649810  97.1943560  55.7112610  37.2577760  97.9342460  55.7207910
  38.3399160  97.2842920  54.8850810  47.4382600  91.3594380  65.3869500
  47.8063420  90.5389590  65.7149070  46.5780800  91.4196270  65.8025150
  50.8044630  90.3151320  56.1957060  50.1757790  90.4196990  55.4815290
  50.3096550  90.5348100  56.9850940  45.2502770 102.0356910  53.6291040
  45.3514750 101.8320900  52.6993020  44.3504510 101.7815190  53.8338820
  42.7728660  92.5937270  57.6114940  42.0644810  93.0623610  58.0528550
  43.0573140  91.9359280  58.2460130  44.3984590  94.0133970  65.6107470
  44.8969840  94.4879790  66.2759320  44.5407540  93.0897490  65.8177500
  46.8044090  89.3187930  59.0510730  46.6811870  89.3374060  58.1020240
  47.7528650  89.3666870  59.1709130  43.8920880 104.5543230  58.3238710
  44.1462380 104.5164620  57.4018080  42.9433360 104.4276560  58.3166960
  40.9763680  90.9022350  54.9865650  41.8254210  91.3392500  54.9205840
  40.6094950  91.2142610  55.8137710  51.6051450  90.2301930  66.4535860
  51.1025050  90.9707330  66.7929670  52.4208110  90.6185930  66.1372650
  49.8973460  95.4735110  59.8997220  48.9563600  95.4885340  60.0744910
  50.2117530  94.6871070  60.3457520  39.8755100  97.1554710  53.4601180
  40.6418370  97.0436070  54.0226610  39.9529790  96.4592680  52.8077950
  38.5701860  94.5879780  54.1434070  38.6505450  93.6407290  54.2551470
  39.4621610  94.9186660  54.2494730  51.8999040 102.6443960  61.5751480
  52.0246460 103.4675130  62.0475290  52.7664600 102.4334690  61.2275630
  39.3716570 104.7375170  61.2468610  40.1079050 104.1890630  61.5177180
  39.7557490 105.6031180  61.1074600  36.2562050 100.8048740  57.1210120
  35.3301830 101.0469880  57.1115530  36.7218480 101.6323000  56.9994870
  38.3774850 103.9221240  70.4354190  39.1787580 104.2433290  70.8489590
  37.8626670 103.5616820  71.1574100  42.4818880 103.9105480  53.0694180
  43.2747490 104.1994310  52.6175970  41.9623230 103.4797650  52.3906660
  47.2139480 100.0301110  70.3829600  46.6077640 100.0532710  69.6425350
  46.9093590  99.2984150  70.9196850  48.6439850 103.7581400  68.9939010
  49.5961600 103.6739420  68.9439250  48.4968070 104.4223110  69.6672800
  51.5349050 103.1375610  54.4930920  51.2490560 102.7240750  53.6785100
  51.3368600 104.0663320  54.3731440  36.0972660  96.4094700  69.3790240
  36.6011680  95.8301980  69.9506470  35.3580080  96.6934930  69.9166610
  42.9996280  99.1308890  52.9336530  42.8946920  98.5161240  53.6597910
  42.8320500  98.6074780  52.1499540  43.1510600  97.8165690  68.9125760
  42.3856270  98.3850690  68.8280430  43.3326560  97.5241900  68.0193990
  46.2399010  98.1928920  53.5378520  45.6909110  98.6398220  54.1821260
  46.8618270  97.6878170  54.0616190  50.2933950  99.5471020  69.4700780
  51.0343420  99.8846780  68.9668240  49.5306630  99.7163080  68.9170550
  38.1295740  94.5524290  70.2740310  38.1701080  94.2538160  71.1825540
  38.9841240  94.9531900  70.1147830  41.9074130  97.1519840  55.4343820
  42.3290550  96.9859710  56.2775210  42.0324970  96.3420070  54.9398960
  40.0701550  93.1316390  68.2414800  39.5398010  92.6407340  67.6138140
  40.7389620  93.5600590  67.7072730  44.4201770  96.1757450  52.6820920
  44.9407430  95.4606470  52.3162070  45.0670170  96.8143320  52.9821430
  48.9679610  97.5985850  68.0055990  49.3820630  97.7530930  68.8546410
  48.0330610  97.7241070  68.1681770  49.4401780  94.9382010  70.0095140
  50.0222550  94.1834330  69.9215620  49.6163550  95.4689450  69.2326620
  40.5573850  90.0978760  68.3212090  40.4630720  89.4799510  67.5962960
  39.9771240  90.8245050  68.0942000  43.3235290  88.6552000  65.3539480
  42.8752590  88.6776260  64.5085030  42.6900490  88.2571020  65.9509780
  43.7294840  97.5506330  65.9751920  44.1482950  98.3939060  65.8028160
  42.8103470  97.6878370  65.7458700  46.0658740  95.2822510  67.3589760
  46.1854950  94.6863650  68.0984600  46.9252740  95.3192200  66.9391060
  48.4046640  95.8359700  65.9352270  47.8781860  96.3602320  65.3317410
  48.7477980  96.4687090  66.5662000  40.8033030  93.2253070  52.3801980
  40.6022090  92.3620430  52.7415320  40.6325080  93.1386430  51.4423580
  41.5802260 103.8559340  67.0909650  41.0423350 104.5805400  66.7718350
  41.8336220 103.3789680  66.3006990  42.8327510  91.8243860  68.6165580
  43.4227200  91.5159710  69.3043400  42.0147750  91.3523610  68.7725480
  47.6520940  91.4409670  68.8498600  46.9636460  90.7791210  68.7848590
  48.3726960  90.9947940  69.2947060  48.2821340  88.0361300  54.9088860
  48.5623630  87.1929200  55.2648280  47.5087070  88.2684410  55.4227610
  39.6015830  90.3253690  52.3679860  39.9041730  90.3321120  51.4599010
  40.3410420  89.9751550  52.8647520  44.4364470 105.0910550  67.3496300
  44.3623170 105.9945690  67.6568670  43.5343310 104.7722450  67.3218370
  42.8200760  89.2688310  53.3536060  42.4722760  88.5912300  52.7738510
  43.0213530  88.8077820  54.1679450  44.9849800 104.2569060  54.9722660
  45.8800590 104.5954030  54.9941420  45.0167430 103.5348470  54.3446940
  38.6245960  99.6296110  53.2009660  39.0620830 100.1725780  53.8567240
  39.1093690  98.8043060  53.2106000  35.8391760 102.4185140  60.6529920
  36.1694770 101.5506200  60.4208560  36.2682760 102.6243660  61.4834880
  40.4353680 100.7494150  58.3131890  40.1349220 100.6259120  59.2135800
  40.3291170  99.8902740  57.9047620  36.3281970 103.2855730  63.3911550
  35.8912960 103.4656530  64.2235700  36.8959650 104.0430350  63.2493270
  51.9644150 102.7872730  67.6788860  51.3646140 102.8465290  66.9352780
  52.0938050 101.8477710  67.8085710  53.2045600 100.5290550  53.0158570
  52.3738560 100.5967200  53.4865800  53.3817430 101.4194670  52.7125430
  52.6602060  97.2738030  55.5192770  53.4220970  97.8434680  55.6252460
  52.6756430  96.7065230  56.2901080  36.1606400  95.7975960  59.7500430
  35.5055240  95.5287600  59.1060130  36.9984350  95.6880440  59.3002410
  53.6662030  98.1288130  60.3634700  54.0370860  97.3455450  59.9570670
  54.3063960  98.8177230  60.1852000  50.6495790  99.5124710  65.7765020
  49.8355630  99.9421870  66.0390810  51.0569990 100.1243120  65.1634070
  52.7121230  97.5672400  52.6765290  52.9870070  98.4751280  52.5484510
  52.5231970  97.5034930  53.6127280  49.1096840  90.5917250  53.9718920
  49.5281720  90.4048230  53.1315580  48.8032900  89.7396300  54.2821850
  52.6086570  95.5041390  57.6694720  52.2330170  94.7369320  57.2376010
  51.8789690  95.8864090  58.1569650  37.1982330  96.1828530  64.2903770
  37.5655370  96.0955930  65.1699790  36.6293150  95.4195080  64.1910630
  51.9986190  94.6512910  67.3034240  51.7672280  94.4225660  66.4032190
  52.2590740  95.5712460  67.2579130  36.7498330  93.0937620  68.1962190
  35.8554380  93.0604380  68.5355900  37.2895880  93.2924410  68.9613440
  50.4374260  89.8769340  70.0813940  51.3144440  89.8852740  70.4647940
  50.4495100  89.1400180  69.4706290  35.3744480  93.0074890  55.6925760
  34.4708560  93.2705090  55.5177420  35.8585100  93.2786060  54.9125720
  51.8837530  93.7298880  60.9701960  52.4075010  93.2361530  60.3392130
  52.4696950  93.8649240  61.7149530  52.0627250  93.8138750  64.4921510
  51.1129960  93.7802290  64.6066500  52.2440260  94.7238860  64.2571280
  37.9171690  92.0640430  53.6020140  38.6263390  91.6423650  53.1167420
  37.2011630  92.1315660  52.9703490  37.5645850  88.1179760  52.6422790
  38.2873980  88.6588700  52.9604010  37.8370370  87.8443180  51.7664330
  51.3737500  92.9872230  56.9094370  51.8696620  92.7543100  57.6943250
  51.1753570  92.1484070  56.4932010  37.2538040  87.3685950  62.5445410
  37.9014230  86.8183330  62.1040570  37.6739880  87.6229100  63.3661220
  52.8024660  91.6233180  59.4432050  52.6923940  91.4689220  60.3814320
  53.5632250  91.0954120  59.2007460  51.1490380  87.5627310  65.9015050
  51.7862600  88.1761450  66.2674240  51.2965270  87.5987970  64.9564280
  53.6914930  89.4541100  52.6838190  54.6164240  89.3222280  52.4756480
  53.6690720  89.5333920  53.6374640  53.7653420  90.2251760  55.3094900
  52.9704920  90.1596880  55.8387810  53.9696700  91.1602400  55.2980250
  50.7071840 104.2643310  59.3033290  51.3030910 103.9427880  58.6267710
  50.9649990 103.7915130  60.0946560  37.0070040  87.5241620  65.2870730
  36.6584860  87.9805440  66.0528910  36.6757740  86.6298750  65.3693160
  38.6134410 100.6961220  69.4523920  38.5704040 100.3254130  70.3338380
  38.7445420 101.6338790  69.5925740  42.3140440 102.2520810  65.0533640
  42.0731800 102.5195370  64.1664160  43.2543080 102.4226540  65.1084500
  44.5194860  88.7153500  68.8090150  44.4583750  89.3075330  69.5585560
  45.4595240  88.6079460  68.6640410  47.1569420  88.3723560  68.4482440
  47.7709830  88.6902850  67.7863520  47.7018980  87.8872150  69.0678300
  53.5744600 104.2715190  65.8544280  53.0802880 104.6684060  65.1371410
  52.9657890 103.6464400  66.2481560  37.6790680  87.0517820  68.5621500
  38.2273670  86.8705870  67.7987610  37.7445990  86.2611930  69.0977810
  38.4522440 103.6423470  66.5721700  37.8582760 103.5108170  67.3111740
  38.4446280 102.8061610  66.1063800  47.8977460  86.9355700  64.7751730
  47.0237300  87.2690810  64.5724660  47.7888210  86.4628880  65.6003600
  48.8049440  89.1426570  66.1593450  48.4762800  88.3278330  65.7795180
  49.7531740  89.0996380  66.0359140  51.2584050 104.9138610  63.1331020
  50.7987020 105.6654420  62.7589040  50.6296510 104.1945080  63.0745820
  38.0834670 101.0081850  65.5229740  37.3568730 100.3887140  65.4555690
  38.1443820 101.4022460  64.6527820  41.6879770 103.2226850  62.3079150
  42.2044790 102.6114210  61.7827410  42.3377150 103.7255630  62.7990160
  44.4275270 104.1135340  63.1348130  44.7153080 103.8589640  62.2581140
  44.9398490 103.5612700  63.7253700  45.6452280  87.8525540  63.7144640
  44.8624070  88.3271040  63.9941400  45.3515210  86.9480370  63.6057820
  50.1973350  88.5548640  61.7593730  50.6381440  88.4993740  60.9115330
  49.9280940  89.4706650  61.8303910  52.0611920  88.1863880  59.7702550
  52.0000320  87.2425100  59.6233570  52.8403950  88.2943970  60.3156010
  36.3664670 104.3256240  58.7326500  36.1986710 103.6926920  59.4308390
  35.4999180 104.5315640  58.3820690  36.9892690  88.1573020  56.2358360
  37.7472050  88.2701900  55.6622390  36.5269860  88.9942220  56.1901790
  43.5306500  90.2712290  59.2260670  42.7181010  89.8969180  58.8856550
  44.0348140  89.5157370  59.5281860  48.0331480  86.9354740  60.4643740
  48.6360850  87.5074950  60.9392260  47.2924470  87.4994180  60.2417640
  51.1766080  87.3376300  55.7384020  51.3716710  88.2359750  56.0051450
  50.3895950  87.1063380  56.2316970  37.9727370 103.0189470  56.1776640
  37.4474990 103.3997500  55.4738600  37.8971950 103.6440240  56.8986350
  39.3617840  88.6837070  54.7760330  39.8910600  87.8966870  54.6468280
  39.9946160  89.3628260  55.0095860  41.5555680  88.4212210  57.8305720
  40.9258420  87.7199520  57.9975850  41.0160820  89.1816340  57.6138880
  44.4947630 105.0351440  70.5016330  45.4214940 104.7995710  70.5452290
  44.4798060 105.8623440  70.0202360  52.7292690 104.5777010  57.4990580
  52.9044880 103.8914750  56.8551500  52.0314260 105.1024060  57.1067250
  41.6811240  87.6996190  70.2658210  41.3995510  88.2029790  69.5019030
  42.0630940  86.9017940  69.9000340  40.5720340 104.9671850  55.0525890
  41.3039160 104.6831130  54.5049780  40.8314010 104.7285130  55.9425270
  39.7335130 101.0836580  55.0572220  39.1044010 101.5521680  55.6058050
  39.8482960 100.2385800  55.4918410  48.2826700  87.1149770  70.8438680
  48.1692150  87.4344380  71.7390200  49.0996440  87.5162280  70.5475960
  51.0625190 104.2621300  70.3257370  51.8550510 103.7670530  70.1183330
  51.3558340 104.9411440  70.9332980  47.1884850  95.1342240  41.2073420
  47.1078900  94.2196850  40.9365130  46.7749270  95.6309310  40.5013130
  45.3202890  96.9121260  43.0882690  44.5444990  96.4321700  43.3781260
  45.9715820  96.2326910  42.9138850  39.3368720  97.2241070  43.9658450
  38.5053600  96.9689780  44.3654960  39.9449700  97.2951840  44.7016370
  49.3410320 101.3181450  41.8681820  48.8791850 100.5468690  42.1968990
  50.1535870 101.3447520  42.3734270  39.3169980 101.2581160  44.1616470
  39.6198020 100.3678900  43.9826690  40.0613570 101.8151380  43.9338720
  37.7460670  92.1842960  37.7500840  36.8577370  92.5258930  37.6480720
  38.0301860  91.9843280  36.8581670  35.7093680  94.7848610  43.6340540
  36.2809790  94.0170810  43.6344180  35.7095220  95.0837370  42.7247150
  45.5673630 103.6039460  41.4885810  44.9485070 104.0596960  40.9180250
  46.4225410 103.7590920  41.0875510  44.7611880  99.5878450  43.0952850
  44.6920160  98.6468390  42.9341980  45.5231740  99.6779860  43.6675420
  36.9518550  90.1932970  45.4209470  36.7721390  89.2958720  45.7012230
  36.5498630  90.7404840  46.0956420  45.7917050  92.3948830  43.3221780
  46.1681870  91.5220710  43.2095450  45.6936560  92.7307530  42.4312220
  39.9222060  90.7674460  38.7839220  40.0288810  91.6678190  39.0907980
  39.0114420  90.7192430  38.4933870  49.5741170  89.8899270  40.2550120
  50.3950790  89.3995840  40.2975600  49.6075250  90.4796930  41.0081960
  37.5705220  92.6893470  44.0291810  38.2515330  92.9531840  44.6479210
  37.2553270  91.8494340  44.3629820  41.7629790  93.7360830  43.1164400
  42.2708010  94.2341800  43.7569420  42.2943030  92.9596030  42.9403760
  53.8640720  91.9066020  46.8193750  53.1592890  92.2947730  46.3008860
  54.1298640  92.6016310  47.4214680  40.0465890  88.3759390  47.3827820
  40.0484330  88.8931780  46.5773720  39.2170200  87.8989570  47.3597750
  46.4336980  98.4878700  38.8817720  45.8154250  98.9528150  38.3180440
  46.9460230  99.1806180  39.2987230  41.2968740  98.0154570  45.5601320
  40.9638120  98.6423490  46.2022390  41.4735420  98.5416450  44.7802990
  49.8102650  91.8299650  43.0277660  49.1058220  92.1184540  43.6080770
  50.1714810  92.6399760  42.6677220  39.7281220  90.0869350  45.3898270
  40.0698030  90.9311400  45.0952140  38.7897030  90.2353090  45.5063610
  40.5087840  99.9835370  47.3750500  41.1261840 100.6586450  47.0934950
  39.6480960 100.3923350  47.2838000  35.8020180  99.1735230  36.2557350
  35.4248160  99.6622330  35.5242250  36.0593250  99.8460510  36.8863880
  51.4265430 101.4474780  45.2905140  50.7428950 102.1173890  45.2821810
  51.9659720 101.6455430  44.5250000  52.8789570  91.2754440  43.4186870
  51.9314480  91.3093420  43.5502300  53.2039560  92.0893390  43.8036230
  43.4109110  87.5751620  41.7142860  43.7184090  87.0198510  40.9978360
  42.4809810  87.7096080  41.5315850  48.9624170 103.2918910  44.0050320
  48.9751330 102.8881200  43.1372580  48.4099390 104.0666200  43.9011750
  50.2569590 100.0135130  39.0940490  50.1465920  99.0709460  39.2189910
  50.2537840 100.3750770  39.9803250  48.3609610  98.1948750  45.3332930
  48.7778400  97.9808860  44.4986390  49.0849430  98.4521540  45.9041550
  45.7989870  95.6400450  38.4502980  44.8719150  95.5737830  38.6791450
  45.9514690  96.5780580  38.3358220  45.7858950  91.9117450  35.4470140
  44.8462620  92.0731410  35.5322600  46.1042210  92.6303130  34.9006130
  52.3071710  96.5935970  45.4249170  51.4790340  96.6629060  44.9499300
  52.9022190  97.1790280  44.9565000  49.8287160  97.2020750  38.9538230
  49.2099580  96.8640300  38.3064530  49.8111610  96.5580510  39.6617420
  49.2713720  93.3805290  46.3704040  48.8584900  94.2059000  46.6244030
  48.5389670  92.7950330  46.1780400  41.4046510  96.1665190  41.2322710
  41.0003510  95.4542440  40.7368610  41.4909630  95.8218430  42.1210750
  41.8728210  99.8532750  43.3961920  41.5756500  99.2478220  42.7169700
  42.8228030  99.8910060  43.2851280  40.1175130  92.9408400  45.0121750
  40.6689720  93.0503740  44.2375000  40.6318640  93.3146000  45.7276980
  49.9613820 103.4264620  47.0585020  49.4844380 104.2336810  46.8657630
  49.2775610 102.7742950  47.2111230  40.9646640  99.5914440  50.0469720
  40.0675170  99.8154410  50.2943120  40.9899510  99.7149380  49.0981120
  48.0051860  96.4407560  35.9610980  48.4445140  95.6029990  35.8148800
  48.7180280  97.0736960  36.0475120  39.7917860  96.4627760  48.6227090
  39.6525630  97.3350560  48.9914490  38.9099220  96.1200570  48.4775030
  46.1147240 101.3803630  39.9292220  46.5543150 102.1227960  39.5147610
  46.0534130 101.6230200  40.8531180  41.5898210 102.4049460  50.8312240
  41.5613640 102.8092410  49.9640670  41.4263180 101.4759820  50.6683840
  51.5869000  87.6950370  34.2752020  51.2741660  87.7877200  35.1751090
  52.3481470  88.2731400  34.2249450  38.1051140  95.0610170  38.7329360
  37.9848740  95.7872260  38.1210630  37.7952030  94.2913080  38.2557270
  53.5413030 103.1876560  52.1276410  54.0172750 103.6659450  52.8065490
  54.1620190 103.1194050  51.4021910  35.7436510  98.2325310  44.5398000
  35.8216930  98.3674080  43.5953720  36.3578190  97.5241200  44.7326120
  36.9884140  99.9325500  40.9504180  36.5812220 100.0740090  40.0957780
  37.8797150  99.6485660  40.7475390  52.9446280 100.3789410  49.2876420
  53.0709340 100.1401290  48.3693600  52.9867660  99.5473950  49.7598500
  46.8063020 104.0817410  47.8571230  47.3207690 103.9925420  48.6593660
  45.9632100 104.4277110  48.1499140  48.7817420 104.3672750  37.2855230
  48.6218560 104.0775690  38.1837060  48.6164130 103.5912880  36.7500460
  41.2605800 104.1471280  39.0626850  41.0848280 103.2306820  38.8494650
  40.4061540 104.5058570  39.3024650  48.4843550 101.8760310  35.8453230
  47.7908710 101.8737600  35.1855510  49.2266410 101.4519630  35.4147400
  48.0493480 103.5023020  39.9201720  48.5050430 102.7212400  40.2340340
  48.3886000 104.2129840  40.4642900  52.7970290  92.4321870  50.2526160
  52.1814560  92.9401540  49.7241620  52.4766710  91.5320200  50.1952100
  35.7996030  99.2739480  47.0792460  35.9627070  98.8044840  46.2611830
  36.2648480  98.7663040  47.7441300  40.5714800  88.4045240  42.1153030
  40.1282950  89.1854780  41.7837550  41.1299790  88.7275130  42.8223970
  44.8584610  91.2713760  47.7188350  44.3963980  91.4796780  48.5308290
  44.4562720  90.4573110  47.4159020  49.8589120  92.4922710  48.8485010
  49.0082710  92.1928460  49.1694080  49.6990910  92.7364720  47.9368830
  46.9538830  93.9924460  50.9483800  47.2792240  93.1588210  50.6086030
  47.7419160  94.5152980  51.0962130  43.6873620  88.0255940  36.9958860
  43.0627800  88.0215810  37.7212170  43.6003740  87.1586900  36.5994830
  42.6090700  88.9492570  43.9742630  42.9063030  89.8555400  43.8934650
  43.1576260  88.4611350  43.3602200  40.3629020  93.5278810  39.8434280
  40.1369940  93.3115980  40.7480900  39.5821550  93.9607270  39.4980250
  47.5926780  93.5342180  38.4424930  46.9935670  94.2577980  38.2588550
  48.1406390  93.4718960  37.6601380  42.8028230  94.4264390  50.5094550
  42.7071830  93.4859120  50.3594950  43.6460210  94.6479460  50.1142620
  46.1991650  92.1705720  40.4728210  46.5921220  92.4877920  39.6596900
  46.5608500  91.2917600  40.5872730  37.9338770  90.8378060  48.6628330
  37.5402160  91.6853270  48.8701110  37.2457170  90.2004430  48.8536970
  44.5083820  90.9213030  51.7325070  43.8182140  90.7285230  52.3671160
  45.2516120  91.2047670  52.2649370  35.2355820  88.7606520  42.6958410
  34.9468870  89.3309380  43.4083390  35.9801580  88.2810970  43.0589640
  35.4226050  92.7026640  33.9061130  35.3400720  93.6457400  34.0476120
  35.0709110  92.5601550  33.0273480  46.7846790  94.7611470  44.5678990
  46.0527910  95.2698280  44.9169090  46.3871130  93.9441450  44.2667770
  43.2224180  91.4365670  42.9731480  43.2260240  90.9955620  42.1236020
  44.1175300  91.7583000  43.0803300  39.0726560  91.3192160  41.9325690
  38.7326610  91.7967390  42.6892740  38.3103880  90.8657280  41.5726790
  43.2844330  92.4377750  35.9638240  43.4057150  92.3964230  36.9124060
  42.8992840  93.3001900  35.8084970  47.2472700  90.2145150  43.9801930
  47.2645440  90.6653800  44.8243780  46.9988280  89.3150790  44.1935370
  42.2965830  94.7478890  35.3621540  41.7282730  94.2997140  34.7357450
  43.0054830  95.1071670  34.8286690  50.6743450  87.6277330  49.8188310
  50.9989220  86.8966990  50.3446290  50.7099960  87.3090970  48.9169300
  37.3735010  98.6490910  49.2388270  36.9889800  98.0084580  49.8371230
  37.6847200  99.3527030  49.8083000  43.5232150  95.4967450  44.7196890
  43.8902280  95.0226020  45.4658230  43.3337210  96.3709020  45.0605230
  36.3872640  90.2411140  40.8490360  36.1019560  89.8766810  41.6868980
  36.3251500  89.5091600  40.2353500  41.3131520  94.5376090  47.0381100
  41.0088590  95.4168070  47.2631460  42.2677980  94.5975880  47.0738540
  39.8413310  98.7437080  37.6347950  39.0675570  98.2034700  37.4746670
  40.5707940  98.2243690  37.2965710  50.6001290  97.7402440  43.4274340
  51.3200410  98.2357730  43.0370450  50.3983110  97.0620330  42.7828210
  46.0611230  89.1340400  37.5703730  45.2475840  88.6353570  37.4949040
  45.8673180  89.9738650  37.1540080  45.9820090  97.8111500  49.3143340
  45.9157400  96.8907170  49.0600930  45.3525230  97.9086940  50.0287980
  48.7759620  93.5060050  35.8665890  49.6639240  93.8177280  35.6917230
  48.7464710  92.6332300  35.4746470  39.8850710  98.4117460  41.2726760
  40.4029380  97.6085720  41.2183650  39.4334730  98.3496600  42.1143590
  44.7720210  99.6783740  36.5454060  45.1135910 100.4225970  36.0497380
  43.9432920  99.9914860  36.9078890  37.3695250  95.3778830  48.1852460
  37.0110190  96.0432680  48.7725800  37.0749810  94.5462380  48.5565080
  40.5708370  95.8363070  51.0692010  40.2708510  95.9820250  50.1719830
  41.3419610  95.2768360  50.9765400  45.9136820 100.6332070  49.0647140
  45.9281360  99.7013030  48.8466050  45.2061920 100.7191830  49.7036910
  51.0473890  94.8171890  35.3345750  50.9637610  95.2486110  34.4842190
  51.7668080  95.2770240  35.7672570  52.1248030  97.2739410  48.4115720
  51.3996220  97.8668190  48.2145110  52.6523490  97.2662950  47.6129090
  52.0761140 101.6714150  38.0627880  51.4337300 101.0169770  38.3371600
  51.6891800 102.0769240  37.2868550  47.6547620  98.9999580  41.9099570
  48.0071440  98.4027710  41.2500940  46.7709950  98.6743810  42.0807820
  43.7410900  99.7597270  39.3169980  44.4282030 100.3066480  39.6977570
  42.9543320 100.3038000  39.3519590  35.8803300  95.3770090  34.8087060
  36.7498150  95.6594890  35.0922980  35.3893620  96.1905960  34.6935870
  43.0438110  96.7643300  38.9295340  43.5000890  97.5748550  39.1555530
  42.6926320  96.4466440  39.7613830  45.3470720 102.2749640  46.1587640
  45.9912940 102.4809020  46.8361060  45.7100160 101.5138040  45.7058490
  38.9449890  87.1080950  39.4017860  38.8164520  87.0998850  40.3502780
  38.1211910  87.4464040  39.0508870  46.6202800 100.2781990  44.8765090
  47.2625030  99.5775150  44.9897260  47.1452150 101.0580430  44.6961980
  50.4658520 100.5630610  34.6004230  50.2396100  99.8461050  35.1928870
  50.0754720 100.3143050  33.7625980  48.3940420 101.0776890  48.0801150
  48.7296660 101.6643580  48.7579070  47.4740760 100.9469600  48.3098940
  36.2474550 104.5897470  35.3748690  36.6072190 105.1886810  34.7205960
  36.1066890 105.1357360  36.1483720  35.9443820  88.8672070  48.8624560
  35.2302340  89.0668990  49.4677170  36.3638860  88.0911640  49.2339360
  50.0474770  98.4802550  36.2618390  49.7596470  98.9415240  37.0496270
  50.8426940  98.0200320  36.5302610  36.2316410 102.8552330  49.8491090
  36.3407530 101.9147070  49.7086480  35.5796970 103.1207080  49.2004820
  44.2229000 101.1268220  51.2489210  43.9025870 100.4077460  51.7934900
  43.5487360 101.8023290  51.3225270  42.2643170 101.9728670  36.1922360
  42.2553270 102.7058360  35.5766870  41.3441530 101.7260250  36.2849320
  37.8649810  97.1943560  36.9369120  37.2577760  97.9342460  36.9464420
  38.3399160  97.2842920  36.1107320  47.4382600  91.3594380  46.6126010
  47.8063420  90.5389590  46.9405580  46.5780800  91.4196270  47.0281660
  50.8044630  90.3151320  37.4213570  50.1757790  90.4196990  36.7071800
  50.3096550  90.5348100  38.2107450  45.2502770 102.0356910  34.8547550
  45.3514750 101.8320900  33.9249530  44.3504510 101.7815190  35.0595330
  42.7728660  92.5937270  38.8371450  42.0644810  93.0623610  39.2785060
  43.0573140  91.9359280  39.4716640  44.3984590  94.0133970  46.8363980
  44.8969840  94.4879790  47.5015830  44.5407540  93.0897490  47.0434010
  46.8044090  89.3187930  40.2767240  46.6811870  89.3374060  39.3276750
  47.7528650  89.3666870  40.3965640  43.8920880 104.5543230  39.5495220
  44.1462380 104.5164620  38.6274590  42.9433360 104.4276560  39.5423470
  40.9763680  90.9022350  36.2122160  41.8254210  91.3392500  36.1462350
  40.6094950  91.2142610  37.0394220  51.6051450  90.2301930  47.6792370
  51.1025050  90.9707330  48.0186180  52.4208110  90.6185930  47.3629160
  49.8973460  95.4735110  41.1253730  48.9563600  95.4885340  41.3001420
  50.2117530  94.6871070  41.5714030  39.8755100  97.1554710  34.6857690
  40.6418370  97.0436070  35.2483120  39.9529790  96.4592680  34.0334460
  38.5701860  94.5879780  35.3690580  38.6505450  93.6407290  35.4807980
  39.4621610  94.9186660  35.4751240  51.8999040 102.6443960  42.8007990
  52.0246460 103.4675130  43.2731800  52.7664600 102.4334690  42.4532140
  39.3716570 104.7375170  42.4725120  40.1079050 104.1890630  42.7433690
  39.7557490 105.6031180  42.3331110  36.2562050 100.8048740  38.3466630
  35.3301830 101.0469880  38.3372040  36.7218480 101.6323000  38.2251380
  38.3774850 103.9221240  51.6610700  39.1787580 104.2433290  52.0746100
  37.8626670 103.5616820  52.3830610  42.4818880 103.9105480  34.2950690
  43.2747490 104.1994310  33.8432480  41.9623230 103.4797650  33.6163170
  47.2139480 100.0301110  51.6086110  46.6077640 100.0532710  50.8681860
  46.9093590  99.2984150  52.1453360  48.6439850 103.7581400  50.2195520
  49.5961600 103.6739420  50.1695760  48.4968070 104.4223110  50.8929310
  51.5349050 103.1375610  35.7187430  51.2490560 102.7240750  34.9041610
  51.3368600 104.0663320  35.5987950  36.0972660  96.4094700  50.6046750
  36.6011680  95.8301980  51.1762980  35.3580080  96.6934930  51.1423120
  42.9996280  99.1308890  34.1593040  42.8946920  98.5161240  34.8854420
  42.8320500  98.6074780  33.3756050  43.1510600  97.8165690  50.1382270
  42.3856270  98.3850690  50.0536940  43.3326560  97.5241900  49.2450500
  46.2399010  98.1928920  34.7635030  45.6909110  98.6398220  35.4077770
  46.8618270  97.6878170  35.2872700  50.2933950  99.5471020  50.6957290
  51.0343420  99.8846780  50.1924750  49.5306630  99.7163080  50.1427060
  38.1295740  94.5524290  51.4996820  38.1701080  94.2538160  52.4082050
  38.9841240  94.9531900  51.3404340  41.9074130  97.1519840  36.6600330
  42.3290550  96.9859710  37.5031720  42.0324970  96.3420070  36.1655470
  40.0701550  93.1316390  49.4671310  39.5398010  92.6407340  48.8394650
  40.7389620  93.5600590  48.9329240  44.4201770  96.1757450  33.9077430
  44.9407430  95.4606470  33.5418580  45.0670170  96.8143320  34.2077940
  48.9679610  97.5985850  49.2312500  49.3820630  97.7530930  50.0802920
  48.0330610  97.7241070  49.3938280  49.4401780  94.9382010  51.2351650
  50.0222550  94.1834330  51.1472130  49.6163550  95.4689450  50.4583130
  40.5573850  90.0978760  49.5468600  40.4630720  89.4799510  48.8219470
  39.9771240  90.8245050  49.3198510  43.3235290  88.6552000  46.5795990
  42.8752590  88.6776260  45.7341540  42.6900490  88.2571020  47.1766290
  43.7294840  97.5506330  47.2008430  44.1482950  98.3939060  47.0284670
  42.8103470  97.6878370  46.9715210  46.0658740  95.2822510  48.5846270
  46.1854950  94.6863650  49.3241110  46.9252740  95.3192200  48.1647570
  48.4046640  95.8359700  47.1608780  47.8781860  96.3602320  46.5573920
  48.7477980  96.4687090  47.7918510  40.8033030  93.2253070  33.6058490
  40.6022090  92.3620430  33.9671830  40.6325080  93.1386430  32.6680090
  41.5802260 103.8559340  48.3166160  41.0423350 104.5805400  47.9974860
  41.8336220 103.3789680  47.5263500  42.8327510  91.8243860  49.8422090
  43.4227200  91.5159710  50.5299910  42.0147750  91.3523610  49.9981990
  47.6520940  91.4409670  50.0755110  46.9636460  90.7791210  50.0105100
  48.3726960  90.9947940  50.5203570  48.2821340  88.0361300  36.1345370
  48.5623630  87.1929200  36.4904790  47.5087070  88.2684410  36.6484120
  39.6015830  90.3253690  33.5936370  39.9041730  90.3321120  32.6855520
  40.3410420  89.9751550  34.0904030  44.4364470 105.0910550  48.5752810
  44.3623170 105.9945690  48.8825180  43.5343310 104.7722450  48.5474880
  42.8200760  89.2688310  34.5792570  42.4722760  88.5912300  33.9995020
  43.0213530  88.8077820  35.3935960  44.9849800 104.2569060  36.1979170
  45.8800590 104.5954030  36.2197930  45.0167430 103.5348470  35.5703450
  38.6245960  99.6296110  34.4266170  39.0620830 100.1725780  35.0823750
  39.1093690  98.8043060  34.4362510  35.8391760 102.4185140  41.8786430
  36.1694770 101.5506200  41.6465070  36.2682760 102.6243660  42.7091390
  40.4353680 100.7494150  39.5388400  40.1349220 100.6259120  40.4392310
  40.3291170  99.8902740  39.1304130  36.3281970 103.2855730  44.6168060
  35.8912960 103.4656530  45.4492210  36.8959650 104.0430350  44.4749780
  51.9644150 102.7872730  48.9045370  51.3646140 102.8465290  48.1609290
  52.0938050 101.8477710  49.0342220  53.2045600 100.5290550  34.2415080
  52.3738560 100.5967200  34.7122310  53.3817430 101.4194670  33.9381940
  52.6602060  97.2738030  36.7449280  53.4220970  97.8434680  36.8508970
  52.6756430  96.7065230  37.5157590  36.1606400  95.7975960  40.9756940
  35.5055240  95.5287600  40.3316640  36.9984350  95.6880440  40.5258920
  53.6662030  98.1288130  41.5891210  54.0370860  97.3455450  41.1827180
  54.3063960  98.8177230  41.4108510  50.6495790  99.5124710  47.0021530
  49.8355630  99.9421870  47.2647320  51.0569990 100.1243120  46.3890580
  52.7121230  97.5672400  33.9021800  52.9870070  98.4751280  33.7741020
  52.5231970  97.5034930  34.8383790  49.1096840  90.5917250  35.1975430
  49.5281720  90.4048230  34.3572090  48.8032900  89.7396300  35.5078360
  52.6086570  95.5041390  38.8951230  52.2330170  94.7369320  38.4632520
  51.8789690  95.8864090  39.3826160  37.1982330  96.1828530  45.5160280
  37.5655370  96.0955930  46.3956300  36.6293150  95.4195080  45.4167140
  51.9986190  94.6512910  48.5290750  51.7672280  94.4225660  47.6288700
  52.2590740  95.5712460  48.4835640  36.7498330  93.0937620  49.4218700
  35.8554380  93.0604380  49.7612410  37.2895880  93.2924410  50.1869950
  50.4374260  89.8769340  51.3070450  51.3144440  89.8852740  51.6904450
  50.4495100  89.1400180  50.6962800  35.3744480  93.0074890  36.9182270
  34.4708560  93.2705090  36.7433930  35.8585100  93.2786060  36.1382230
  51.8837530  93.7298880  42.1958470  52.4075010  93.2361530  41.5648640
  52.4696950  93.8649240  42.9406040  52.0627250  93.8138750  45.7178020
  51.1129960  93.7802290  45.8323010  52.2440260  94.7238860  45.4827790
  37.9171690  92.0640430  34.8276650  38.6263390  91.6423650  34.3423930
  37.2011630  92.1315660  34.1960000  37.5645850  88.1179760  33.8679300
  38.2873980  88.6588700  34.1860520  37.8370370  87.8443180  32.9920840
  51.3737500  92.9872230  38.1350880  51.8696620  92.7543100  38.9199760
  51.1753570  92.1484070  37.7188520  37.2538040  87.3685950  43.7701920
  37.9014230  86.8183330  43.3297080  37.6739880  87.6229100  44.5917730
  52.8024660  91.6233180  40.6688560  52.6923940  91.4689220  41.6070830
  53.5632250  91.0954120  40.4263970  51.1490380  87.5627310  47.1271560
  51.7862600  88.1761450  47.4930750  51.2965270  87.5987970  46.1820790
  53.6914930  89.4541100  33.9094700  54.6164240  89.3222280  33.7012990
  53.6690720  89.5333920  34.8631150  53.7653420  90.2251760  36.5351410
  52.9704920  90.1596880  37.0644320  53.9696700  91.1602400  36.5236760
  50.7071840 104.2643310  40.5289800  51.3030910 103.9427880  39.8524220
  50.9649990 103.7915130  41.3203070  37.0070040  87.5241620  46.5127240
  36.6584860  87.9805440  47.2785420  36.6757740  86.6298750  46.5949670
  38.6134410 100.6961220  50.6780430  38.5704040 100.3254130  51.5594890
  38.7445420 101.6338790  50.8182250  42.3140440 102.2520810  46.2790150
  42.0731800 102.5195370  45.3920670  43.2543080 102.4226540  46.3341010
  44.5194860  88.7153500  50.0346660  44.4583750  89.3075330  50.7842070
  45.4595240  88.6079460  49.8896920  47.1569420  88.3723560  49.6738950
  47.7709830  88.6902850  49.0120030  47.7018980  87.8872150  50.2934810
  53.5744600 104.2715190  47.0800790  53.0802880 104.6684060  46.3627920
  52.9657890 103.6464400  47.4738070  37.6790680  87.0517820  49.7878010
  38.2273670  86.8705870  49.0244120  37.7445990  86.2611930  50.3234320
  38.4522440 103.6423470  47.7978210  37.8582760 103.5108170  48.5368250
  38.4446280 102.8061610  47.3320310  47.8977460  86.9355700  46.0008240
  47.0237300  87.2690810  45.7981170  47.7888210  86.4628880  46.8260110
  48.8049440  89.1426570  47.3849960  48.4762800  88.3278330  47.0051690
  49.7531740  89.0996380  47.2615650  51.2584050 104.9138610  44.3587530
  50.7987020 105.6654420  43.9845550  50.6296510 104.1945080  44.3002330
  38.0834670 101.0081850  46.7486250  37.3568730 100.3887140  46.6812200
  38.1443820 101.4022460  45.8784330  41.6879770 103.2226850  43.5335660
  42.2044790 102.6114210  43.0083920  42.3377150 103.7255630  44.0246670
  44.4275270 104.1135340  44.3604640  44.7153080 103.8589640  43.4837650
  44.9398490 103.5612700  44.9510210  45.6452280  87.8525540  44.9401150
  44.8624070  88.3271040  45.2197910  45.3515210  86.9480370  44.8314330
  50.1973350  88.5548640  42.9850240  50.6381440  88.4993740  42.1371840
  49.9280940  89.4706650  43.0560420  52.0611920  88.1863880  40.9959060
  52.0000320  87.2425100  40.8490080  52.8403950  88.2943970  41.5412520
  36.3664670 104.3256240  39.9583010  36.1986710 103.6926920  40.6564900
  35.4999180 104.5315640  39.6077200  36.9892690  88.1573020  37.4614870
  37.7472050  88.2701900  36.8878900  36.5269860  88.9942220  37.4158300
  43.5306500  90.2712290  40.4517180  42.7181010  89.8969180  40.1113060
  44.0348140  89.5157370  40.7538370  48.0331480  86.9354740  41.6900250
  48.6360850  87.5074950  42.1648770  47.2924470  87.4994180  41.4674150
  51.1766080  87.3376300  36.9640530  51.3716710  88.2359750  37.2307960
  50.3895950  87.1063380  37.4573480  37.9727370 103.0189470  37.4033150
  37.4474990 103.3997500  36.6995110  37.8971950 103.6440240  38.1242860
  39.3617840  88.6837070  36.0016840  39.8910600  87.8966870  35.8724790
  39.9946160  89.3628260  36.2352370  41.5555680  88.4212210  39.0562230
  40.9258420  87.7199520  39.2232360  41.0160820  89.1816340  38.8395390
  44.4947630 105.0351440  51.7272840  45.4214940 104.7995710  51.7708800
  44.4798060 105.8623440  51.2458870  52.7292690 104.5777010  38.7247090
  52.9044880 103.8914750  38.0808010  52.0314260 105.1024060  38.3323760
  41.6811240  87.6996190  51.4914720  41.3995510  88.2029790  50.7275540
  42.0630940  86.9017940  51.1256850  40.5720340 104.9671850  36.2782400
  41.3039160 104.6831130  35.7306290  40.8314010 104.7285130  37.1681780
  39.7335130 101.0836580  36.2828730  39.1044010 101.5521680  36.8314560
  39.8482960 100.2385800  36.7174920  48.2826700  87.1149770  52.0695190
  48.1692150  87.4344380  52.9646710  49.0996440  87.5162280  51.7732470
  51.0625190 104.2621300  51.5513880  51.8550510 103.7670530  51.3439840
  51.3558340 104.9411440  52.1589490  47.1884850  95.1342240  22.4329930
  47.1078900  94.2196850  22.1621640  46.7749270  95.6309310  21.7269640
  45.3202890  96.9121260  24.3139200  44.5444990  96.4321700  24.6037770
  45.9715820  96.2326910  24.1395360  39.3368720  97.2241070  25.1914960
  38.5053600  96.9689780  25.5911470  39.9449700  97.2951840  25.9272880
  49.3410320 101.3181450  23.0938330  48.8791850 100.5468690  23.4225500
  50.1535870 101.3447520  23.5990780  39.3169980 101.2581160  25.3872980
  39.6198020 100.3678900  25.2083200  40.0613570 101.8151380  25.1595230
  37.7460670  92.1842960  18.9757350  36.8577370  92.5258930  18.8737230
  38.0301860  91.9843280  18.0838180  35.7093680  94.7848610  24.8597050
  36.2809790  94.0170810  24.8600690  35.7095220  95.0837370  23.9503660
  45.5673630 103.6039460  22.7142320  44.9485070 104.0596960  22.1436760
  46.4225410 103.7590920  22.3132020  44.7611880  99.5878450  24.3209360
  44.6920160  98.6468390  24.1598490  45.5231740  99.6779860  24.8931930
  36.9518550  90.1932970  26.6465980  36.7721390  89.2958720  26.9268740
  36.5498630  90.7404840  27.3212930  45.7917050  92.3948830  24.5478290
  46.1681870  91.5220710  24.4351960  45.6936560  92.7307530  23.6568730
  39.9222060  90.7674460  20.0095730  40.0288810  91.6678190  20.3164490
  39.0114420  90.7192430  19.7190380  49.5741170  89.8899270  21.4806630
  50.3950790  89.3995840  21.5232110  49.6075250  90.4796930  22.2338470
  37.5705220  92.6893470  25.2548320  38.2515330  92.9531840  25.8735720
  37.2553270  91.8494340  25.5886330  41.7629790  93.7360830  24.3420910
  42.2708010  94.2341800  24.9825930  42.2943030  92.9596030  24.1660270
  53.8640720  91.9066020  28.0450260  53.1592890  92.2947730  27.5265370
  54.1298640  92.6016310  28.6471190  40.0465890  88.3759390  28.6084330
  40.0484330  88.8931780  27.8030230  39.2170200  87.8989570  28.5854260
  46.4336980  98.4878700  20.1074230  45.8154250  98.9528150  19.5436950
  46.9460230  99.1806180  20.5243740  41.2968740  98.0154570  26.7857830
  40.9638120  98.6423490  27.4278900  41.4735420  98.5416450  26.0059500
  49.8102650  91.8299650  24.2534170  49.1058220  92.1184540  24.8337280
  50.1714810  92.6399760  23.8933730  39.7281220  90.0869350  26.6154780
  40.0698030  90.9311400  26.3208650  38.7897030  90.2353090  26.7320120
  40.5087840  99.9835370  28.6007010  41.1261840 100.6586450  28.3191460
  39.6480960 100.3923350  28.5094510  51.4265430 101.4474780  26.5161650
  50.7428950 102.1173890  26.5078320  51.9659720 101.6455430  25.7506510
  52.8789570  91.2754440  24.6443380  51.9314480  91.3093420  24.7758810
  53.2039560  92.0893390  25.0292740  43.4109110  87.5751620  22.9399370
  43.7184090  87.0198510  22.2234870  42.4809810  87.7096080  22.7572360
  48.9624170 103.2918910  25.2306830  48.9751330 102.8881200  24.3629090
  48.4099390 104.0666200  25.1268260  50.2569590 100.0135130  20.3197000
  50.1465920  99.0709460  20.4446420  50.2537840 100.3750770  21.2059760
  48.3609610  98.1948750  26.5589440  48.7778400  97.9808860  25.7242900
  49.0849430  98.4521540  27.1298060  45.7989870  95.6400450  19.6759490
  44.8719150  95.5737830  19.9047960  45.9514690  96.5780580  19.5614730
  45.7858950  91.9117450  16.6726650  44.8462620  92.0731410  16.7579110
  46.1042210  92.6303130  16.1262640  52.3071710  96.5935970  26.6505680
  51.4790340  96.6629060  26.1755810  52.9022190  97.1790280  26.1821510
  49.8287160  97.2020750  20.1794740  49.2099580  96.8640300  19.5321040
  49.8111610  96.5580510  20.8873930  49.2713720  93.3805290  27.5960550
  48.8584900  94.2059000  27.8500540  48.5389670  92.7950330  27.4036910
  41.4046510  96.1665190  22.4579220  41.0003510  95.4542440  21.9625120
  41.4909630  95.8218430  23.3467260  41.8728210  99.8532750  24.6218430
  41.5756500  99.2478220  23.9426210  42.8228030  99.8910060  24.5107790
  40.1175130  92.9408400  26.2378260  40.6689720  93.0503740  25.4631510
  40.6318640  93.3146000  26.9533490  49.9613820 103.4264620  28.2841530
  49.4844380 104.2336810  28.0914140  49.2775610 102.7742950  28.4367740
  40.9646640  99.5914440  31.2726230  40.0675170  99.8154410  31.5199630
  40.9899510  99.7149380  30.3237630  48.0051860  96.4407560  17.1867490
  48.4445140  95.6029990  17.0405310  48.7180280  97.0736960  17.2731630
  39.7917860  96.4627760  29.8483600  39.6525630  97.3350560  30.2171000
  38.9099220  96.1200570  29.7031540  46.1147240 101.3803630  21.1548730
  46.5543150 102.1227960  20.7404120  46.0534130 101.6230200  22.0787690
  41.5898210 102.4049460  32.0568750  41.5613640 102.8092410  31.1897180
  41.4263180 101.4759820  31.8940350  51.5869000  87.6950370  15.5008530
  51.2741660  87.7877200  16.4007600  52.3481470  88.2731400  15.4505960
  53.5413030 103.1876560  33.3532920  54.0172750 103.6659450  34.0322000
  54.1620190 103.1194050  32.6278420  35.7436510  98.2325310  25.7654510
  35.8216930  98.3674080  24.8210230  36.3578190  97.5241200  25.9582630
  36.9884140  99.9325500  22.1760690  36.5812220 100.0740090  21.3214290
  37.8797150  99.6485660  21.9731900  52.9446280 100.3789410  30.5132930
  53.0709340 100.1401290  29.5950110  52.9867660  99.5473950  30.9855010
  46.8063020 104.0817410  29.0827740  47.3207690 103.9925420  29.8850170
  45.9632100 104.4277110  29.3755650  48.7817420 104.3672750  18.5111740
  48.6218560 104.0775690  19.4093570  48.6164130 103.5912880  17.9756970
  41.2605800 104.1471280  20.2883360  41.0848280 103.2306820  20.0751160
  40.4061540 104.5058570  20.5281160  48.4843550 101.8760310  17.0709740
  47.7908710 101.8737600  16.4112020  49.2266410 101.4519630  16.6403910
  48.0493480 103.5023020  21.1458230  48.5050430 102.7212400  21.4596850
  48.3886000 104.2129840  21.6899410  52.7970290  92.4321870  31.4782670
  52.1814560  92.9401540  30.9498130  52.4766710  91.5320200  31.4208610
  35.7996030  99.2739480  28.3048970  35.9627070  98.8044840  27.4868340
  36.2648480  98.7663040  28.9697810  40.5714800  88.4045240  23.3409540
  40.1282950  89.1854780  23.0094060  41.1299790  88.7275130  24.0480480
  44.8584610  91.2713760  28.9444860  44.3963980  91.4796780  29.7564800
  44.4562720  90.4573110  28.6415530  49.8589120  92.4922710  30.0741520
  49.0082710  92.1928460  30.3950590  49.6990910  92.7364720  29.1625340
  46.9538830  93.9924460  32.1740310  47.2792240  93.1588210  31.8342540
  47.7419160  94.5152980  32.3218640  43.6873620  88.0255940  18.2215370
  43.0627800  88.0215810  18.9468680  43.6003740  87.1586900  17.8251340
  42.6090700  88.9492570  25.1999140  42.9063030  89.8555400  25.1191160
  43.1576260  88.4611350  24.5858710  40.3629020  93.5278810  21.0690790
  40.1369940  93.3115980  21.9737410  39.5821550  93.9607270  20.7236760
  47.5926780  93.5342180  19.6681440  46.9935670  94.2577980  19.4845060
  48.1406390  93.4718960  18.8857890  42.8028230  94.4264390  31.7351060
  42.7071830  93.4859120  31.5851460  43.6460210  94.6479460  31.3399130
  46.1991650  92.1705720  21.6984720  46.5921220  92.4877920  20.8853410
  46.5608500  91.2917600  21.8129240  37.9338770  90.8378060  29.8884840
  37.5402160  91.6853270  30.0957620  37.2457170  90.2004430  30.0793480
  44.5083820  90.9213030  32.9581580  43.8182140  90.7285230  33.5927670
  45.2516120  91.2047670  33.4905880  35.2355820  88.7606520  23.9214920
  34.9468870  89.3309380  24.6339900  35.9801580  88.2810970  24.2846150
  35.4226050  92.7026640  15.1317640  35.3400720  93.6457400  15.2732630
  35.0709110  92.5601550  14.2529990  46.7846790  94.7611470  25.7935500
  46.0527910  95.2698280  26.1425600  46.3871130  93.9441450  25.4924280
  43.2224180  91.4365670  24.1987990  43.2260240  90.9955620  23.3492530
  44.1175300  91.7583000  24.3059810  39.0726560  91.3192160  23.1582200
  38.7326610  91.7967390  23.9149250  38.3103880  90.8657280  22.7983300
  43.2844330  92.4377750  17.1894750  43.4057150  92.3964230  18.1380570
  42.8992840  93.3001900  17.0341480  47.2472700  90.2145150  25.2058440
  47.2645440  90.6653800  26.0500290  46.9988280  89.3150790  25.4191880
  42.2965830  94.7478890  16.5878050  41.7282730  94.2997140  15.9613960
  43.0054830  95.1071670  16.0543200  50.6743450  87.6277330  31.0444820
  50.9989220  86.8966990  31.5702800  50.7099960  87.3090970  30.1425810
  37.3735010  98.6490910  30.4644780  36.9889800  98.0084580  31.0627740
  37.6847200  99.3527030  31.0339510  43.5232150  95.4967450  25.9453400
  43.8902280  95.0226020  26.6914740  43.3337210  96.3709020  26.2861740
  36.3872640  90.2411140  22.0746870  36.1019560  89.8766810  22.9125490
  36.3251500  89.5091600  21.4610010  41.3131520  94.5376090  28.2637610
  41.0088590  95.4168070  28.4887970  42.2677980  94.5975880  28.2995050
  39.8413310  98.7437080  18.8604460  39.0675570  98.2034700  18.7003180
  40.5707940  98.2243690  18.5222220  50.6001290  97.7402440  24.6530850
  51.3200410  98.2357730  24.2626960  50.3983110  97.0620330  24.0084720
  46.0611230  89.1340400  18.7960240  45.2475840  88.6353570  18.7205550
  45.8673180  89.9738650  18.3796590  45.9820090  97.8111500  30.5399850
  45.9157400  96.8907170  30.2857440  45.3525230  97.9086940  31.2544490
  48.7759620  93.5060050  17.0922400  49.6639240  93.8177280  16.9173740
  48.7464710  92.6332300  16.7002980  39.8850710  98.4117460  22.4983270
  40.4029380  97.6085720  22.4440160  39.4334730  98.3496600  23.3400100
  44.7720210  99.6783740  17.7710570  45.1135910 100.4225970  17.2753890
  43.9432920  99.9914860  18.1335400  37.3695250  95.3778830  29.4108970
  37.0110190  96.0432680  29.9982310  37.0749810  94.5462380  29.7821590
  40.5708370  95.8363070  32.2948520  40.2708510  95.9820250  31.3976340
  41.3419610  95.2768360  32.2021910  45.9136820 100.6332070  30.2903650
  45.9281360  99.7013030  30.0722560  45.2061920 100.7191830  30.9293420
  51.0473890  94.8171890  16.5602260  50.9637610  95.2486110  15.7098700
  51.7668080  95.2770240  16.9929080  52.1248030  97.2739410  29.6372230
  51.3996220  97.8668190  29.4401620  52.6523490  97.2662950  28.8385600
  52.0761140 101.6714150  19.2884390  51.4337300 101.0169770  19.5628110
  51.6891800 102.0769240  18.5125060  47.6547620  98.9999580  23.1356080
  48.0071440  98.4027710  22.4757450  46.7709950  98.6743810  23.3064330
  43.7410900  99.7597270  20.5426490  44.4282030 100.3066480  20.9234080
  42.9543320 100.3038000  20.5776100  35.8803300  95.3770090  16.0343570
  36.7498150  95.6594890  16.3179490  35.3893620  96.1905960  15.9192380
  43.0438110  96.7643300  20.1551850  43.5000890  97.5748550  20.3812040
  42.6926320  96.4466440  20.9870340  45.3470720 102.2749640  27.3844150
  45.9912940 102.4809020  28.0617570  45.7100160 101.5138040  26.9315000
  38.9449890  87.1080950  20.6274370  38.8164520  87.0998850  21.5759290
  38.1211910  87.4464040  20.2765380  46.6202800 100.2781990  26.1021600
  47.2625030  99.5775150  26.2153770  47.1452150 101.0580430  25.9218490
  50.4658520 100.5630610  15.8260740  50.2396100  99.8461050  16.4185380
  50.0754720 100.3143050  14.9882490  48.3940420 101.0776890  29.3057660
  48.7296660 101.6643580  29.9835580  47.4740760 100.9469600  29.5355450
  36.2474550 104.5897470  16.6005200  36.6072190 105.1886810  15.9462470
  36.1066890 105.1357360  17.3740230  35.9443820  88.8672070  30.0881070
  35.2302340  89.0668990  30.6933680  36.3638860  88.0911640  30.4595870
  50.0474770  98.4802550  17.4874900  49.7596470  98.9415240  18.2752780
  50.8426940  98.0200320  17.7559120  36.2316410 102.8552330  31.0747600
  36.3407530 101.9147070  30.9342990  35.5796970 103.1207080  30.4261330
  44.2229000 101.1268220  32.4745720  43.9025870 100.4077460  33.0191410
  43.5487360 101.8023290  32.5481780  42.2643170 101.9728670  17.4178870
  42.2553270 102.7058360  16.8023380  41.3441530 101.7260250  17.5105830
  47.4382600  91.3594380  27.8382520  47.8063420  90.5389590  28.1662090
  46.5780800  91.4196270  28.2538170  50.8044630  90.3151320  18.6470080
  50.1757790  90.4196990  17.9328310  50.3096550  90.5348100  19.4363960
  45.2502770 102.0356910  16.0804060  45.3514750 101.8320900  15.1506040
  44.3504510 101.7815190  16.2851840  42.7728660  92.5937270  20.0627960
  42.0644810  93.0623610  20.5041570  43.0573140  91.9359280  20.6973150
  44.3984590  94.0133970  28.0620490  44.8969840  94.4879790  28.7272340
  44.5407540  93.0897490  28.2690520  46.8044090  89.3187930  21.5023750
  46.6811870  89.3374060  20.5533260  47.7528650  89.3666870  21.6222150
  43.8920880 104.5543230  20.7751730  44.1462380 104.5164620  19.8531100
  42.9433360 104.4276560  20.7679980  40.9763680  90.9022350  17.4378670
  41.8254210  91.3392500  17.3718860  40.6094950  91.2142610  18.2650730
  51.6051450  90.2301930  28.9048880  51.1025050  90.9707330  29.2442690
  52.4208110  90.6185930  28.5885670  49.8973460  95.4735110  22.3510240
  48.9563600  95.4885340  22.5257930  50.2117530  94.6871070  22.7970540
  39.8755100  97.1554710  15.9114200  40.6418370  97.0436070  16.4739630
  39.9529790  96.4592680  15.2590970  38.5701860  94.5879780  16.5947090
  38.6505450  93.6407290  16.7064490  39.4621610  94.9186660  16.7007750
  51.8999040 102.6443960  24.0264500  52.0246460 103.4675130  24.4988310
  52.7664600 102.4334690  23.6788650  39.3716570 104.7375170  23.6981630
  40.1079050 104.1890630  23.9690200  39.7557490 105.6031180  23.5587620
  36.2562050 100.8048740  19.5723140  35.3301830 101.0469880  19.5628550
  36.7218480 101.6323000  19.4507890  38.3774850 103.9221240  32.8867210
  39.1787580 104.2433290  33.3002610  37.8626670 103.5616820  33.6087120
  42.4818880 103.9105480  15.5207200  43.2747490 104.1994310  15.0688990
  41.9623230 103.4797650  14.8419680  47.2139480 100.0301110  32.8342620
  46.6077640 100.0532710  32.0938370  46.9093590  99.2984150  33.3709870
  48.6439850 103.7581400  31.4452030  49.5961600 103.6739420  31.3952270
  48.4968070 104.4223110  32.1185820  51.5349050 103.1375610  16.9443940
  51.2490560 102.7240750  16.1298120  51.3368600 104.0663320  16.8244460
  36.0972660  96.4094700  31.8303260  36.6011680  95.8301980  32.4019490
  35.3580080  96.6934930  32.3679630  42.9996280  99.1308890  15.3849550
  42.8946920  98.5161240  16.1110930  42.8320500  98.6074780  14.6012560
  43.1510600  97.8165690  31.3638780  42.3856270  98.3850690  31.2793450
  43.3326560  97.5241900  30.4707010  46.2399010  98.1928920  15.9891540
  45.6909110  98.6398220  16.6334280  46.8618270  97.6878170  16.5129210
  50.2933950  99.5471020  31.9213800  51.0343420  99.8846780  31.4181260
  49.5306630  99.7163080  31.3683570  38.1295740  94.5524290  32.7253330
  38.1701080  94.2538160  33.6338560  38.9841240  94.9531900  32.5660850
  41.9074130  97.1519840  17.8856840  42.3290550  96.9859710  18.7288230
  42.0324970  96.3420070  17.3911980  40.0701550  93.1316390  30.6927820
  39.5398010  92.6407340  30.0651160  40.7389620  93.5600590  30.1585750
  44.4201770  96.1757450  15.1333940  44.9407430  95.4606470  14.7675090
  45.0670170  96.8143320  15.4334450  48.9679610  97.5985850  30.4569010
  49.3820630  97.7530930  31.3059430  48.0330610  97.7241070  30.6194790
  49.4401780  94.9382010  32.4608160  50.0222550  94.1834330  32.3728640
  49.6163550  95.4689450  31.6839640  40.5573850  90.0978760  30.7725110
  40.4630720  89.4799510  30.0475980  39.9771240  90.8245050  30.5455020
  43.3235290  88.6552000  27.8052500  42.8752590  88.6776260  26.9598050
  42.6900490  88.2571020  28.4022800  43.7294840  97.5506330  28.4264940
  44.1482950  98.3939060  28.2541180  42.8103470  97.6878370  28.1971720
  46.0658740  95.2822510  29.8102780  46.1854950  94.6863650  30.5497620
  46.9252740  95.3192200  29.3904080  48.4046640  95.8359700  28.3865290
  47.8781860  96.3602320  27.7830430  48.7477980  96.4687090  29.0175020
  40.8033030  93.2253070  14.8315000  40.6022090  92.3620430  15.1928340
  40.6325080  93.1386430  13.8936600  41.5802260 103.8559340  29.5422670
  41.0423350 104.5805400  29.2231370  41.8336220 103.3789680  28.7520010
  42.8327510  91.8243860  31.0678600  43.4227200  91.5159710  31.7556420
  42.0147750  91.3523610  31.2238500  47.6520940  91.4409670  31.3011620
  46.9636460  90.7791210  31.2361610  48.3726960  90.9947940  31.7460080
  48.2821340  88.0361300  17.3601880  48.5623630  87.1929200  17.7161300
  47.5087070  88.2684410  17.8740630  39.6015830  90.3253690  14.8192880
  39.9041730  90.3321120  13.9112030  40.3410420  89.9751550  15.3160540
  44.4364470 105.0910550  29.8009320  44.3623170 105.9945690  30.1081690
  43.5343310 104.7722450  29.7731390  42.8200760  89.2688310  15.8049080
  42.4722760  88.5912300  15.2251530  43.0213530  88.8077820  16.6192470
  44.9849800 104.2569060  17.4235680  45.8800590 104.5954030  17.4454440
  45.0167430 103.5348470  16.7959960  38.6245960  99.6296110  15.6522680
  39.0620830 100.1725780  16.3080260  39.1093690  98.8043060  15.6619020
  35.8391760 102.4185140  23.1042940  36.1694770 101.5506200  22.8721580
  36.2682760 102.6243660  23.9347900  40.4353680 100.7494150  20.7644910
  40.1349220 100.6259120  21.6648820  40.3291170  99.8902740  20.3560640
  36.3281970 103.2855730  25.8424570  35.8912960 103.4656530  26.6748720
  36.8959650 104.0430350  25.7006290  51.9644150 102.7872730  30.1301880
  51.3646140 102.8465290  29.3865800  52.0938050 101.8477710  30.2598730
  53.2045600 100.5290550  15.4671590  52.3738560 100.5967200  15.9378820
  53.3817430 101.4194670  15.1638450  52.6602060  97.2738030  17.9705790
  53.4220970  97.8434680  18.0765480  52.6756430  96.7065230  18.7414100
  53.6662030  98.1288130  22.8147720  54.0370860  97.3455450  22.4083690
  54.3063960  98.8177230  22.6365020  50.6495790  99.5124710  28.2278040
  49.8355630  99.9421870  28.4903830  51.0569990 100.1243120  27.6147090
  52.7121230  97.5672400  15.1278310  52.9870070  98.4751280  14.9997530
  52.5231970  97.5034930  16.0640300  49.1096840  90.5917250  16.4231940
  49.5281720  90.4048230  15.5828600  48.8032900  89.7396300  16.7334870
  52.6086570  95.5041390  20.1207740  52.2330170  94.7369320  19.6889030
  51.8789690  95.8864090  20.6082670  37.1982330  96.1828530  26.7416790
  37.5655370  96.0955930  27.6212810  36.6293150  95.4195080  26.6423650
  51.9986190  94.6512910  29.7547260  51.7672280  94.4225660  28.8545210
  52.2590740  95.5712460  29.7092150  36.7498330  93.0937620  30.6475210
  35.8554380  93.0604380  30.9868920  37.2895880  93.2924410  31.4126460
  50.4374260  89.8769340  32.5326960  51.3144440  89.8852740  32.9160960
  50.4495100  89.1400180  31.9219310  35.3744480  93.0074890  18.1438780
  34.4708560  93.2705090  17.9690440  35.8585100  93.2786060  17.3638740
  51.8837530  93.7298880  23.4214980  52.4075010  93.2361530  22.7905150
  52.4696950  93.8649240  24.1662550  52.0627250  93.8138750  26.9434530
  51.1129960  93.7802290  27.0579520  52.2440260  94.7238860  26.7084300
  37.9171690  92.0640430  16.0533160  38.6263390  91.6423650  15.5680440
  37.2011630  92.1315660  15.4216510  37.5645850  88.1179760  15.0935810
  38.2873980  88.6588700  15.4117030  37.8370370  87.8443180  14.2177350
  51.3737500  92.9872230  19.3607390  51.8696620  92.7543100  20.1456270
  51.1753570  92.1484070  18.9445030  37.2538040  87.3685950  24.9958430
  37.9014230  86.8183330  24.5553590  37.6739880  87.6229100  25.8174240
  52.8024660  91.6233180  21.8945070  52.6923940  91.4689220  22.8327340
  53.5632250  91.0954120  21.6520480  51.1490380  87.5627310  28.3528070
  51.7862600  88.1761450  28.7187260  51.2965270  87.5987970  27.4077300
  53.6914930  89.4541100  15.1351210  54.6164240  89.3222280  14.9269500
  53.6690720  89.5333920  16.0887660  53.7653420  90.2251760  17.7607920
  52.9704920  90.1596880  18.2900830  53.9696700  91.1602400  17.7493270
  50.7071840 104.2643310  21.7546310  51.3030910 103.9427880  21.0780730
  50.9649990 103.7915130  22.5459580  37.0070040  87.5241620  27.7383750
  36.6584860  87.9805440  28.5041930  36.6757740  86.6298750  27.8206180
  38.6134410 100.6961220  31.9036940  38.5704040 100.3254130  32.7851400
  38.7445420 101.6338790  32.0438760  42.3140440 102.2520810  27.5046660
  42.0731800 102.5195370  26.6177180  43.2543080 102.4226540  27.5597520
  44.5194860  88.7153500  31.2603170  44.4583750  89.3075330  32.0098580
  45.4595240  88.6079460  31.1153430  47.1569420  88.3723560  30.8995460
  47.7709830  88.6902850  30.2376540  47.7018980  87.8872150  31.5191320
  53.5744600 104.2715190  28.3057300  53.0802880 104.6684060  27.5884430
  52.9657890 103.6464400  28.6994580  37.6790680  87.0517820  31.0134520
  38.2273670  86.8705870  30.2500630  37.7445990  86.2611930  31.5490830
  38.4522440 103.6423470  29.0234720  37.8582760 103.5108170  29.7624760
  38.4446280 102.8061610  28.5576820  47.8977460  86.9355700  27.2264750
  47.0237300  87.2690810  27.0237680  47.7888210  86.4628880  28.0516620
  48.8049440  89.1426570  28.6106470  48.4762800  88.3278330  28.2308200
  49.7531740  89.0996380  28.4872160  51.2584050 104.9138610  25.5844040
  50.7987020 105.6654420  25.2102060  50.6296510 104.1945080  25.5258840
  38.0834670 101.0081850  27.9742760  37.3568730 100.3887140  27.9068710
  38.1443820 101.4022460  27.1040840  41.6879770 103.2226850  24.7592170
  42.2044790 102.6114210  24.2340430  42.3377150 103.7255630  25.2503180
  44.4275270 104.1135340  25.5861150  44.7153080 103.8589640  24.7094160
  44.9398490 103.5612700  26.1766720  45.6452280  87.8525540  26.1657660
  44.8624070  88.3271040  26.4454420  45.3515210  86.9480370  26.0570840
  50.1973350  88.5548640  24.2106750  50.6381440  88.4993740  23.3628350
  49.9280940  89.4706650  24.2816930  52.0611920  88.1863880  22.2215570
  52.0000320  87.2425100  22.0746590  52.8403950  88.2943970  22.7669030
  36.3664670 104.3256240  21.1839520  36.1986710 103.6926920  21.8821410
  35.4999180 104.5315640  20.8333710  36.9892690  88.1573020  18.6871380
  37.7472050  88.2701900  18.1135410  36.5269860  88.9942220  18.6414810
  43.5306500  90.2712290  21.6773690  42.7181010  89.8969180  21.3369570
  44.0348140  89.5157370  21.9794880  48.0331480  86.9354740  22.9156760
  48.6360850  87.5074950  23.3905280  47.2924470  87.4994180  22.6930660
  51.1766080  87.3376300  18.1897040  51.3716710  88.2359750  18.4564470
  50.3895950  87.1063380  18.6829990  37.9727370 103.0189470  18.6289660
  37.4474990 103.3997500  17.9251620  37.8971950 103.6440240  19.3499370
  39.3617840  88.6837070  17.2273350  39.8910600  87.8966870  17.0981300
  39.9946160  89.3628260  17.4608880  41.5555680  88.4212210  20.2818740
  40.9258420  87.7199520  20.4488870  41.0160820  89.1816340  20.0651900
  44.4947630 105.0351440  32.9529350  45.4214940 104.7995710  32.9965310
  44.4798060 105.8623440  32.4715380  52.7292690 104.5777010  19.9503600
  52.9044880 103.8914750  19.3064520  52.0314260 105.1024060  19.5580270
  41.6811240  87.6996190  32.7171230  41.3995510  88.2029790  31.9532050
  42.0630940  86.9017940  32.3513360  40.5720340 104.9671850  17.5038910
  41.3039160 104.6831130  16.9562800  40.8314010 104.7285130  18.3938290
  39.7335130 101.0836580  17.5085240  39.1044010 101.5521680  18.0571070
  39.8482960 100.2385800  17.9431430  48.2826700  87.1149770  33.2951700
  48.1692150  87.4344380  34.1903220  49.0996440  87.5162280  32.9988980
  51.0625190 104.2621300  32.7770390  51.8550510 103.7670530  32.5696350
  51.3558340 104.9411440  33.3846000  47.1884850  95.1342240   3.6586440
  47.1078900  94.2196850   3.3878150  46.7749270  95.6309310   2.9526150
  45.3202890  96.9121260   5.5395710  44.5444990  96.4321700   5.8294280
  45.9715820  96.2326910   5.3651870  39.3368720  97.2241070   6.4171470
  38.5053600  96.9689780   6.8167980  39.9449700  97.2951840   7.1529390
  49.3410320 101.3181450   4.3194840  48.8791850 100.5468690   4.6482010
  50.1535870 101.3447520   4.8247290  39.3169980 101.2581160   6.6129490
  39.6198020 100.3678900   6.4339710  40.0613570 101.8151380   6.3851740
  35.7093680  94.7848610   6.0853560  36.2809790  94.0170810   6.0857200
  35.7095220  95.0837370   5.1760170  45.5673630 103.6039460   3.9398830
  44.9485070 104.0596960   3.3693270  46.4225410 103.7590920   3.5388530
  44.7611880  99.5878450   5.5465870  44.6920160  98.6468390   5.3855000
  45.5231740  99.6779860   6.1188440  36.9518550  90.1932970   7.8722490
  36.7721390  89.2958720   8.1525250  36.5498630  90.7404840   8.5469440
  45.7917050  92.3948830   5.7734800  46.1681870  91.5220710   5.6608470
  45.6936560  92.7307530   4.8825240  49.5741170  89.8899270   2.7063140
  50.3950790  89.3995840   2.7488620  49.6075250  90.4796930   3.4594980
  37.5705220  92.6893470   6.4804830  38.2515330  92.9531840   7.0992230
  37.2553270  91.8494340   6.8142840  41.7629790  93.7360830   5.5677420
  42.2708010  94.2341800   6.2082440  42.2943030  92.9596030   5.3916780
  53.8640720  91.9066020   9.2706770  53.1592890  92.2947730   8.7521880
  54.1298640  92.6016310   9.8727700  40.0465890  88.3759390   9.8340840
  40.0484330  88.8931780   9.0286740  39.2170200  87.8989570   9.8110770
  41.2968740  98.0154570   8.0114340  40.9638120  98.6423490   8.6535410
  41.4735420  98.5416450   7.2316010  49.8102650  91.8299650   5.4790680
  49.1058220  92.1184540   6.0593790  50.1714810  92.6399760   5.1190240
  39.7281220  90.0869350   7.8411290  40.0698030  90.9311400   7.5465160
  38.7897030  90.2353090   7.9576630  40.5087840  99.9835370   9.8263520
  41.1261840 100.6586450   9.5447970  39.6480960 100.3923350   9.7351020
  51.4265430 101.4474780   7.7418160  50.7428950 102.1173890   7.7334830
  51.9659720 101.6455430   6.9763020  52.8789570  91.2754440   5.8699890
  51.9314480  91.3093420   6.0015320  53.2039560  92.0893390   6.2549250
  43.4109110  87.5751620   4.1655880  43.7184090  87.0198510   3.4491380
  42.4809810  87.7096080   3.9828870  48.9624170 103.2918910   6.4563340
  48.9751330 102.8881200   5.5885600  48.4099390 104.0666200   6.3524770
  48.3609610  98.1948750   7.7845950  48.7778400  97.9808860   6.9499410
  49.0849430  98.4521540   8.3554570  52.3071710  96.5935970   7.8762190
  51.4790340  96.6629060   7.4012320  52.9022190  97.1790280   7.4078020
  49.2713720  93.3805290   8.8217060  48.8584900  94.2059000   9.0757050
  48.5389670  92.7950330   8.6293420  41.4046510  96.1665190   3.6835730
  41.0003510  95.4542440   3.1881630  41.4909630  95.8218430   4.5723770
  41.8728210  99.8532750   5.8474940  41.5756500  99.2478220   5.1682720
  42.8228030  99.8910060   5.7364300  40.1175130  92.9408400   7.4634770
  40.6689720  93.0503740   6.6888020  40.6318640  93.3146000   8.1790000
  49.9613820 103.4264620   9.5098040  49.4844380 104.2336810   9.3170650
  49.2775610 102.7742950   9.6624250  40.9646640  99.5914440  12.4982740
  40.0675170  99.8154410  12.7456140  40.9899510  99.7149380  11.5494140
  39.7917860  96.4627760  11.0740110  39.6525630  97.3350560  11.4427510
  38.9099220  96.1200570  10.9288050  46.1147240 101.3803630   2.3805240
  46.5543150 102.1227960   1.9660630  46.0534130 101.6230200   3.3044200
  41.5898210 102.4049460  13.2825260  41.5613640 102.8092410  12.4153690
  41.4263180 101.4759820  13.1196860  53.5413030 103.1876560  14.5789430
  54.0172750 103.6659450  15.2578510  54.1620190 103.1194050  13.8534930
  35.7436510  98.2325310   6.9911020  35.8216930  98.3674080   6.0466740
  36.3578190  97.5241200   7.1839140  36.9884140  99.9325500   3.4017200
  36.5812220 100.0740090   2.5470800  37.8797150  99.6485660   3.1988410
  52.9446280 100.3789410  11.7389440  53.0709340 100.1401290  10.8206620
  52.9867660  99.5473950  12.2111520  46.8063020 104.0817410  10.3084250
  47.3207690 103.9925420  11.1106680  45.9632100 104.4277110  10.6012160
  48.0493480 103.5023020   2.3714740  48.5050430 102.7212400   2.6853360
  48.3886000 104.2129840   2.9155920  52.7970290  92.4321870  12.7039180
  52.1814560  92.9401540  12.1754640  52.4766710  91.5320200  12.6465120
  35.7996030  99.2739480   9.5305480  35.9627070  98.8044840   8.7124850
  36.2648480  98.7663040  10.1954320  40.5714800  88.4045240   4.5666050
  40.1282950  89.1854780   4.2350570  41.1299790  88.7275130   5.2736990
  44.8584610  91.2713760  10.1701370  44.3963980  91.4796780  10.9821310
  44.4562720  90.4573110   9.8672040  49.8589120  92.4922710  11.2998030
  49.0082710  92.1928460  11.6207100  49.6990910  92.7364720  10.3881850
  46.9538830  93.9924460  13.3996820  47.2792240  93.1588210  13.0599050
  47.7419160  94.5152980  13.5475150  42.6090700  88.9492570   6.4255650
  42.9063030  89.8555400   6.3447670  43.1576260  88.4611350   5.8115220
  40.3629020  93.5278810   2.2947300  40.1369940  93.3115980   3.1993920
  39.5821550  93.9607270   1.9493270  42.8028230  94.4264390  12.9607570
  42.7071830  93.4859120  12.8107970  43.6460210  94.6479460  12.5655640
  46.1991650  92.1705720   2.9241230  46.5921220  92.4877920   2.1109920
  46.5608500  91.2917600   3.0385750  37.9338770  90.8378060  11.1141350
  37.5402160  91.6853270  11.3214130  37.2457170  90.2004430  11.3049990
  44.5083820  90.9213030  14.1838090  43.8182140  90.7285230  14.8184180
  45.2516120  91.2047670  14.7162390  35.2355820  88.7606520   5.1471430
  34.9468870  89.3309380   5.8596410  35.9801580  88.2810970   5.5102660
  46.7846790  94.7611470   7.0192010  46.0527910  95.2698280   7.3682110
  46.3871130  93.9441450   6.7180790  43.2224180  91.4365670   5.4244500
  43.2260240  90.9955620   4.5749040  44.1175300  91.7583000   5.5316320
  39.0726560  91.3192160   4.3838710  38.7326610  91.7967390   5.1405760
  38.3103880  90.8657280   4.0239810  47.2472700  90.2145150   6.4314950
  47.2645440  90.6653800   7.2756800  46.9988280  89.3150790   6.6448390
  50.6743450  87.6277330  12.2701330  50.9989220  86.8966990  12.7959310
  50.7099960  87.3090970  11.3682320  37.3735010  98.6490910  11.6901290
  36.9889800  98.0084580  12.2884250  37.6847200  99.3527030  12.2596020
  43.5232150  95.4967450   7.1709910  43.8902280  95.0226020   7.9171250
  43.3337210  96.3709020   7.5118250  36.3872640  90.2411140   3.3003380
  36.1019560  89.8766810   4.1382000  36.3251500  89.5091600   2.6866520
  41.3131520  94.5376090   9.4894120  41.0088590  95.4168070   9.7144480
  42.2677980  94.5975880   9.5251560  50.6001290  97.7402440   5.8787360
  51.3200410  98.2357730   5.4883470  50.3983110  97.0620330   5.2341230
  45.9820090  97.8111500  11.7656360  45.9157400  96.8907170  11.5113950
  45.3525230  97.9086940  12.4801000  39.8850710  98.4117460   3.7239780
  40.4029380  97.6085720   3.6696670  39.4334730  98.3496600   4.5656610
  37.3695250  95.3778830  10.6365480  37.0110190  96.0432680  11.2238820
  37.0749810  94.5462380  11.0078100  40.5708370  95.8363070  13.5205030
  40.2708510  95.9820250  12.6232850  41.3419610  95.2768360  13.4278420
  45.9136820 100.6332070  11.5160160  45.9281360  99.7013030  11.2979070
  45.2061920 100.7191830  12.1549930  52.1248030  97.2739410  10.8628740
  51.3996220  97.8668190  10.6658130  52.6523490  97.2662950  10.0642110
  47.6547620  98.9999580   4.3612590  48.0071440  98.4027710   3.7013960
  46.7709950  98.6743810   4.5320840  43.7410900  99.7597270   1.7683000
  44.4282030 100.3066480   2.1490590  42.9543320 100.3038000   1.8032610
  45.3470720 102.2749640   8.6100660  45.9912940 102.4809020   9.2874080
  45.7100160 101.5138040   8.1571510  46.6202800 100.2781990   7.3278110
  47.2625030  99.5775150   7.4410280  47.1452150 101.0580430   7.1475000
  48.3940420 101.0776890  10.5314170  48.7296660 101.6643580  11.2092090
  47.4740760 100.9469600  10.7611960  35.9443820  88.8672070  11.3137580
  35.2302340  89.0668990  11.9190190  36.3638860  88.0911640  11.6852380
  36.2316410 102.8552330  12.3004110  36.3407530 101.9147070  12.1599500
  35.5796970 103.1207080  11.6517840  44.2229000 101.1268220  13.7002230
  43.9025870 100.4077460  14.2447920  43.5487360 101.8023290  13.7738290
  47.4382600  91.3594380   9.0639030  47.8063420  90.5389590   9.3918600
  46.5780800  91.4196270   9.4794680  44.3984590  94.0133970   9.2877000
  44.8969840  94.4879790   9.9528850  44.5407540  93.0897490   9.4947030
  46.8044090  89.3187930   2.7280260  46.6811870  89.3374060   1.7789770
  47.7528650  89.3666870   2.8478660  51.6051450  90.2301930  10.1305390
  51.1025050  90.9707330  10.4699200  52.4208110  90.6185930   9.8142180
  49.8973460  95.4735110   3.5766750  48.9563600  95.4885340   3.7514440
  50.2117530  94.6871070   4.0227050  51.8999040 102.6443960   5.2521010
  52.0246460 103.4675130   5.7244820  52.7664600 102.4334690   4.9045160
  39.3716570 104.7375170   4.9238140  40.1079050 104.1890630   5.1946710
  39.7557490 105.6031180   4.7844130  38.3774850 103.9221240  14.1123720
  39.1787580 104.2433290  14.5259120  37.8626670 103.5616820  14.8343630
  47.2139480 100.0301110  14.0599130  46.6077640 100.0532710  13.3194880
  46.9093590  99.2984150  14.5966380  48.6439850 103.7581400  12.6708540
  49.5961600 103.6739420  12.6208780  48.4968070 104.4223110  13.3442330
  36.0972660  96.4094700  13.0559770  36.6011680  95.8301980  13.6276000
  35.3580080  96.6934930  13.5936140  43.1510600  97.8165690  12.5895290
  42.3856270  98.3850690  12.5049960  43.3326560  97.5241900  11.6963520
  50.2933950  99.5471020  13.1470310  51.0343420  99.8846780  12.6437770
  49.5306630  99.7163080  12.5940080  38.1295740  94.5524290  13.9509840
  38.1701080  94.2538160  14.8595070  38.9841240  94.9531900  13.7917360
  40.0701550  93.1316390  11.9184330  39.5398010  92.6407340  11.2907670
  40.7389620  93.5600590  11.3842260  48.9679610  97.5985850  11.6825520
  49.3820630  97.7530930  12.5315940  48.0330610  97.7241070  11.8451300
  49.4401780  94.9382010  13.6864670  50.0222550  94.1834330  13.5985150
  49.6163550  95.4689450  12.9096150  40.5573850  90.0978760  11.9981620
  40.4630720  89.4799510  11.2732490  39.9771240  90.8245050  11.7711530
  43.3235290  88.6552000   9.0309010  42.8752590  88.6776260   8.1854560
  42.6900490  88.2571020   9.6279310  43.7294840  97.5506330   9.6521450
  44.1482950  98.3939060   9.4797690  42.8103470  97.6878370   9.4228230
  46.0658740  95.2822510  11.0359290  46.1854950  94.6863650  11.7754130
  46.9252740  95.3192200  10.6160590  48.4046640  95.8359700   9.6121800
  47.8781860  96.3602320   9.0086940  48.7477980  96.4687090  10.2431530
  41.5802260 103.8559340  10.7679180  41.0423350 104.5805400  10.4487880
  41.8336220 103.3789680   9.9776520  42.8327510  91.8243860  12.2935110
  43.4227200  91.5159710  12.9812930  42.0147750  91.3523610  12.4495010
  47.6520940  91.4409670  12.5268130  46.9636460  90.7791210  12.4618120
  48.3726960  90.9947940  12.9716590  44.4364470 105.0910550  11.0265830
  44.3623170 105.9945690  11.3338200  43.5343310 104.7722450  10.9987900
  35.8391760 102.4185140   4.3299450  36.1694770 101.5506200   4.0978090
  36.2682760 102.6243660   5.1604410  36.3281970 103.2855730   7.0681080
  35.8912960 103.4656530   7.9005230  36.8959650 104.0430350   6.9262800
  51.9644150 102.7872730  11.3558390  51.3646140 102.8465290  10.6122310
  52.0938050 101.8477710  11.4855240  36.1606400  95.7975960   3.4269960
  35.5055240  95.5287600   2.7829660  36.9984350  95.6880440   2.9771940
  53.6662030  98.1288130   4.0404230  54.0370860  97.3455450   3.6340200
  54.3063960  98.8177230   3.8621530  50.6495790  99.5124710   9.4534550
  49.8355630  99.9421870   9.7160340  51.0569990 100.1243120   8.8403600
  37.1982330  96.1828530   7.9673300  37.5655370  96.0955930   8.8469320
  36.6293150  95.4195080   7.8680160  51.9986190  94.6512910  10.9803770
  51.7672280  94.4225660  10.0801720  52.2590740  95.5712460  10.9348660
  36.7498330  93.0937620  11.8731720  35.8554380  93.0604380  12.2125430
  37.2895880  93.2924410  12.6382970  50.4374260  89.8769340  13.7583470
  51.3144440  89.8852740  14.1417470  50.4495100  89.1400180  13.1475820
  51.8837530  93.7298880   4.6471490  52.4075010  93.2361530   4.0161660
  52.4696950  93.8649240   5.3919060  52.0627250  93.8138750   8.1691040
  51.1129960  93.7802290   8.2836030  52.2440260  94.7238860   7.9340810
  37.2538040  87.3685950   6.2214940  37.9014230  86.8183330   5.7810100
  37.6739880  87.6229100   7.0430750  52.8024660  91.6233180   3.1201580
  52.6923940  91.4689220   4.0583850  53.5632250  91.0954120   2.8776990
  51.1490380  87.5627310   9.5784580  51.7862600  88.1761450   9.9443770
  51.2965270  87.5987970   8.6333810  50.7071840 104.2643310   2.9802820
  51.3030910 103.9427880   2.3037240  50.9649990 103.7915130   3.7716090
  37.0070040  87.5241620   8.9640260  36.6584860  87.9805440   9.7298440
  36.6757740  86.6298750   9.0462690  38.6134410 100.6961220  13.1293450
  38.5704040 100.3254130  14.0107910  38.7445420 101.6338790  13.2695270
  42.3140440 102.2520810   8.7303170  42.0731800 102.5195370   7.8433690
  43.2543080 102.4226540   8.7854030  44.5194860  88.7153500  12.4859680
  44.4583750  89.3075330  13.2355090  45.4595240  88.6079460  12.3409940
  47.1569420  88.3723560  12.1251970  47.7709830  88.6902850  11.4633050
  47.7018980  87.8872150  12.7447830  53.5744600 104.2715190   9.5313810
  53.0802880 104.6684060   8.8140940  52.9657890 103.6464400   9.9251090
  37.6790680  87.0517820  12.2391030  38.2273670  86.8705870  11.4757140
  37.7445990  86.2611930  12.7747340  38.4522440 103.6423470  10.2491230
  37.8582760 103.5108170  10.9881270  38.4446280 102.8061610   9.7833330
  47.8977460  86.9355700   8.4521260  47.0237300  87.2690810   8.2494190
  47.7888210  86.4628880   9.2773130  48.8049440  89.1426570   9.8362980
  48.4762800  88.3278330   9.4564710  49.7531740  89.0996380   9.7128670
  51.2584050 104.9138610   6.8100550  50.7987020 105.6654420   6.4358570
  50.6296510 104.1945080   6.7515350  38.0834670 101.0081850   9.1999270
  37.3568730 100.3887140   9.1325220  38.1443820 101.4022460   8.3297350
  41.6879770 103.2226850   5.9848680  42.2044790 102.6114210   5.4596940
  42.3377150 103.7255630   6.4759690  44.4275270 104.1135340   6.8117660
  44.7153080 103.8589640   5.9350670  44.9398490 103.5612700   7.4023230
  45.6452280  87.8525540   7.3914170  44.8624070  88.3271040   7.6710930
  45.3515210  86.9480370   7.2827350  50.1973350  88.5548640   5.4363260
  50.6381440  88.4993740   4.5884860  49.9280940  89.4706650   5.5073440
  52.0611920  88.1863880   3.4472080  52.0000320  87.2425100   3.3003100
  52.8403950  88.2943970   3.9925540  36.3664670 104.3256240   2.4096030
  36.1986710 103.6926920   3.1077920  35.4999180 104.5315640   2.0590220
  43.5306500  90.2712290   2.9030200  42.7181010  89.8969180   2.5626080
  44.0348140  89.5157370   3.2051390  48.0331480  86.9354740   4.1413270
  48.6360850  87.5074950   4.6161790  47.2924470  87.4994180   3.9187170
  44.4947630 105.0351440  14.1785860  45.4214940 104.7995710  14.2221820
  44.4798060 105.8623440  13.6971890  41.6811240  87.6996190  13.9427740
  41.3995510  88.2029790  13.1788560  42.0630940  86.9017940  13.5769870
  48.2826700  87.1149770  14.5208210  48.1692150  87.4344380  15.4159730
  49.0996440  87.5162280  14.2245490  51.0625190 104.2621300  14.0026900
  51.8550510 103.7670530  13.7952860  51.3558340 104.9411440  14.6102510
  47.1884850  76.3598750  97.5303890  47.1078900  75.4453360  97.2595600
  46.7749270  76.8565820  96.8243600  45.3202890  78.1377770  99.4113160
  44.5444990  77.6578210  99.7011730  45.9715820  77.4583420  99.2369320
  39.3368720  78.4497580 100.2888920  38.5053600  78.1946290 100.6885430
  39.9449700  78.5208350 101.0246840  49.3410320  82.5437960  98.1912290
  48.8791850  81.7725200  98.5199460  50.1535870  82.5704030  98.6964740
  39.3169980  82.4837670 100.4846940  39.6198020  81.5935410 100.3057160
  40.0613570  83.0407890 100.2569190  37.7460670  73.4099470  94.0731310
  36.8577370  73.7515440  93.9711190  38.0301860  73.2099790  93.1812140
  35.7093680  76.0105120  99.9571010  36.2809790  75.2427320  99.9574650
  35.7095220  76.3093880  99.0477620  45.5673630  84.8295970  97.8116280
  44.9485070  85.2853470  97.2410720  46.4225410  84.9847430  97.4105980
  44.7611880  80.8134960  99.4183320  44.6920160  79.8724900  99.2572450
  45.5231740  80.9036370  99.9905890  36.9518550  71.4189480 101.7439940
  36.7721390  70.5215230 102.0242700  36.5498630  71.9661350 102.4186890
  45.7917050  73.6205340  99.6452250  46.1681870  72.7477220  99.5325920
  45.6936560  73.9564040  98.7542690  39.9222060  71.9930970  95.1069690
  40.0288810  72.8934700  95.4138450  39.0114420  71.9448940  94.8164340
  49.5741170  71.1155780  96.5780590  50.3950790  70.6252350  96.6206070
  49.6075250  71.7053440  97.3312430  37.5705220  73.9149980 100.3522280
  38.2515330  74.1788350 100.9709680  37.2553270  73.0750850 100.6860290
  41.7629790  74.9617340  99.4394870  42.2708010  75.4598310 100.0799890
  42.2943030  74.1852540  99.2634230  46.4336980  79.7135210  95.2048190
  45.8154250  80.1784660  94.6410910  46.9460230  80.4062690  95.6217700
  41.2968740  79.2411080 101.8831790  40.9638120  79.8680000 102.5252860
  41.4735420  79.7672960 101.1033460  49.8102650  73.0556160  99.3508130
  49.1058220  73.3441050  99.9311240  50.1714810  73.8656270  98.9907690
  39.7281220  71.3125860 101.7128740  40.0698030  72.1567910 101.4182610
  38.7897030  71.4609600 101.8294080  35.8020180  80.3991740  92.5787820
  35.4248160  80.8878840  91.8472720  36.0593250  81.0717020  93.2094350
  51.4265430  82.6731290 101.6135610  50.7428950  83.3430400 101.6052280
  51.9659720  82.8711940 100.8480470  52.8789570  72.5010950  99.7417340
  51.9314480  72.5349930  99.8732770  53.2039560  73.3149900 100.1266700
  43.4109110  68.8008130  98.0373330  43.7184090  68.2455020  97.3208830
  42.4809810  68.9352590  97.8546320  48.9624170  84.5175420 100.3280790
  48.9751330  84.1137710  99.4603050  48.4099390  85.2922710 100.2242220
  50.2569590  81.2391640  95.4170960  50.1465920  80.2965970  95.5420380
  50.2537840  81.6007280  96.3033720  48.3609610  79.4205260 101.6563400
  48.7778400  79.2065370 100.8216860  49.0849430  79.6778050 102.2272020
  45.7989870  76.8656960  94.7733450  44.8719150  76.7994340  95.0021920
  45.9514690  77.8037090  94.6588690  45.7858950  73.1373960  91.7700610
  44.8462620  73.2987920  91.8553070  46.1042210  73.8559640  91.2236600
  52.3071710  77.8192480 101.7479640  51.4790340  77.8885570 101.2729770
  52.9022190  78.4046790 101.2795470  49.8287160  78.4277260  95.2768700
  49.2099580  78.0896810  94.6295000  49.8111610  77.7837020  95.9847890
  41.4046510  77.3921700  97.5553180  41.0003510  76.6798950  97.0599080
  41.4909630  77.0474940  98.4441220  41.8728210  81.0789260  99.7192390
  41.5756500  80.4734730  99.0400170  42.8228030  81.1166570  99.6081750
  40.1175130  74.1664910 101.3352220  40.6689720  74.2760250 100.5605470
  40.6318640  74.5402510 102.0507450  48.0051860  77.6664070  92.2841450
  48.4445140  76.8286500  92.1379270  48.7180280  78.2993470  92.3705590
  46.1147240  82.6060140  96.2522690  46.5543150  83.3484470  95.8378080
  46.0534130  82.8486710  97.1761650  51.5869000  68.9206880  90.5982490
  51.2741660  69.0133710  91.4981560  52.3481470  69.4987910  90.5479920
  38.1051140  76.2866680  95.0559830  37.9848740  77.0128770  94.4441100
  37.7952030  75.5169590  94.5787740  35.7436510  79.4581820 100.8628470
  35.8216930  79.5930590  99.9184190  36.3578190  78.7497710 101.0556590
  36.9884140  81.1582010  97.2734650  36.5812220  81.2996600  96.4188250
  37.8797150  80.8742170  97.0705860  48.7817420  85.5929260  93.6085700
  48.6218560  85.3032200  94.5067530  48.6164130  84.8169390  93.0730930
  41.2605800  85.3727790  95.3857320  41.0848280  84.4563330  95.1725120
  40.4061540  85.7315080  95.6255120  48.4843550  83.1016820  92.1683700
  47.7908710  83.0994110  91.5085980  49.2266410  82.6776140  91.7377870
  48.0493480  84.7279530  96.2432190  48.5050430  83.9468910  96.5570810
  48.3886000  85.4386350  96.7873370  40.5714800  69.6301750  98.4383500
  40.1282950  70.4111290  98.1068020  41.1299790  69.9531640  99.1454440
  43.6873620  69.2512450  93.3189330  43.0627800  69.2472320  94.0442640
  43.6003740  68.3843410  92.9225300  42.6090700  70.1749080 100.2973100
  42.9063030  71.0811910 100.2165120  43.1576260  69.6867860  99.6832670
  40.3629020  74.7535320  96.1664750  40.1369940  74.5372490  97.0711370
  39.5821550  75.1863780  95.8210720  47.5926780  74.7598690  94.7655400
  46.9935670  75.4834490  94.5819020  48.1406390  74.6975470  93.9831850
  46.1991650  73.3962230  96.7958680  46.5921220  73.7134430  95.9827370
  46.5608500  72.5174110  96.9103200  35.2355820  69.9863030  99.0188880
  34.9468870  70.5565890  99.7313860  35.9801580  69.5067480  99.3820110
  35.4226050  73.9283150  90.2291600  35.3400720  74.8713910  90.3706590
  35.0709110  73.7858060  89.3503950  46.7846790  75.9867980 100.8909460
  46.0527910  76.4954790 101.2399560  46.3871130  75.1697960 100.5898240
  43.2224180  72.6622180  99.2961950  43.2260240  72.2212130  98.4466490
  44.1175300  72.9839510  99.4033770  39.0726560  72.5448670  98.2556160
  38.7326610  73.0223900  99.0123210  38.3103880  72.0913790  97.8957260
  43.2844330  73.6634260  92.2868710  43.4057150  73.6220740  93.2354530
  42.8992840  74.5258410  92.1315440  47.2472700  71.4401660 100.3032400
  47.2645440  71.8910310 101.1474250  46.9988280  70.5407300 100.5165840
  42.2965830  75.9735400  91.6852010  41.7282730  75.5253650  91.0587920
  43.0054830  76.3328180  91.1517160  43.5232150  76.7223960 101.0427360
  43.8902280  76.2482530 101.7888700  43.3337210  77.5965530 101.3835700
  36.3872640  71.4667650  97.1720830  36.1019560  71.1023320  98.0099450
  36.3251500  70.7348110  96.5583970  39.8413310  79.9693590  93.9578420
  39.0675570  79.4291210  93.7977140  40.5707940  79.4500200  93.6196180
  50.6001290  78.9658950  99.7504810  51.3200410  79.4614240  99.3600920
  50.3983110  78.2876840  99.1058680  46.0611230  70.3596910  93.8934200
  45.2475840  69.8610080  93.8179510  45.8673180  71.1995160  93.4770550
  48.7759620  74.7316560  92.1896360  49.6639240  75.0433790  92.0147700
  48.7464710  73.8588810  91.7976940  39.8850710  79.6373970  97.5957230
  40.4029380  78.8342230  97.5414120  39.4334730  79.5753110  98.4374060
  44.7720210  80.9040250  92.8684530  45.1135910  81.6482480  92.3727850
  43.9432920  81.2171370  93.2309360  51.0473890  76.0428400  91.6576220
  50.9637610  76.4742620  90.8072660  51.7668080  76.5026750  92.0903040
  52.0761140  82.8970660  94.3858350  51.4337300  82.2426280  94.6602070
  51.6891800  83.3025750  93.6099020  47.6547620  80.2256090  98.2330040
  48.0071440  79.6284220  97.5731410  46.7709950  79.9000320  98.4038290
  43.7410900  80.9853780  95.6400450  44.4282030  81.5322990  96.0208040
  42.9543320  81.5294510  95.6750060  35.8803300  76.6026600  91.1317530
  36.7498150  76.8851400  91.4153450  35.3893620  77.4162470  91.0166340
  43.0438110  77.9899810  95.2525810  43.5000890  78.8005060  95.4786000
  42.6926320  77.6722950  96.0844300  38.9449890  68.3337460  95.7248330
  38.8164520  68.3255360  96.6733250  38.1211910  68.6720550  95.3739340
  46.6202800  81.5038500 101.1995560  47.2625030  80.8031660 101.3127730
  47.1452150  82.2836940 101.0192450  50.4658520  81.7887120  90.9234700
  50.2396100  81.0717560  91.5159340  50.0754720  81.5399560  90.0856450
  36.2474550  85.8153980  91.6979160  36.6072190  86.4143320  91.0436430
  36.1066890  86.3613870  92.4714190  50.0474770  79.7059060  92.5848860
  49.7596470  80.1671750  93.3726740  50.8426940  79.2456830  92.8533080
  42.2643170  83.1985180  92.5152830  42.2553270  83.9314870  91.8997340
  41.3441530  82.9516760  92.6079790  37.8649810  78.4200070  93.2599590
  37.2577760  79.1598970  93.2694890  38.3399160  78.5099430  92.4337790
  50.8044630  71.5407830  93.7444040  50.1757790  71.6453500  93.0302270
  50.3096550  71.7604610  94.5337920  45.2502770  83.2613420  91.1778020
  45.3514750  83.0577410  90.2480000  44.3504510  83.0071700  91.3825800
  42.7728660  73.8193780  95.1601920  42.0644810  74.2880120  95.6015530
  43.0573140  73.1615790  95.7947110  46.8044090  70.5444440  96.5997710
  46.6811870  70.5630570  95.6507220  47.7528650  70.5923380  96.7196110
  43.8920880  85.7799740  95.8725690  44.1462380  85.7421130  94.9505060
  42.9433360  85.6533070  95.8653940  40.9763680  72.1278860  92.5352630
  41.8254210  72.5649010  92.4692820  40.6094950  72.4399120  93.3624690
  49.8973460  76.6991620  97.4484200  48.9563600  76.7141850  97.6231890
  50.2117530  75.9127580  97.8944500  39.8755100  78.3811220  91.0088160
  40.6418370  78.2692580  91.5713590  39.9529790  77.6849190  90.3564930
  38.5701860  75.8136290  91.6921050  38.6505450  74.8663800  91.8038450
  39.4621610  76.1443170  91.7981710  51.8999040  83.8700470  99.1238460
  52.0246460  84.6931640  99.5962270  52.7664600  83.6591200  98.7762610
  39.3716570  85.9631680  98.7955590  40.1079050  85.4147140  99.0664160
  39.7557490  86.8287690  98.6561580  36.2562050  82.0305250  94.6697100
  35.3301830  82.2726390  94.6602510  36.7218480  82.8579510  94.5481850
  42.4818880  85.1361990  90.6181160  43.2747490  85.4250820  90.1662950
  41.9623230  84.7054160  89.9393640  51.5349050  84.3632120  92.0417900
  51.2490560  83.9497260  91.2272080  51.3368600  85.2919830  91.9218420
  42.9996280  80.3565400  90.4823510  42.8946920  79.7417750  91.2084890
  42.8320500  79.8331290  89.6986520  46.2399010  79.4185430  91.0865500
  45.6909110  79.8654730  91.7308240  46.8618270  78.9134680  91.6103170
  41.9074130  78.3776350  92.9830800  42.3290550  78.2116220  93.8262190
  42.0324970  77.5676580  92.4885940  44.4201770  77.4013960  90.2307900
  44.9407430  76.6862980  89.8649050  45.0670170  78.0399830  90.5308410
  40.8033030  74.4509580  89.9288960  40.6022090  73.5876940  90.2902300
  40.6325080  74.3642940  88.9910560  48.2821340  69.2617810  92.4575840
  48.5623630  68.4185710  92.8135260  47.5087070  69.4940920  92.9714590
  39.6015830  71.5510200  89.9166840  39.9041730  71.5577630  89.0085990
  40.3410420  71.2008060  90.4134500  42.8200760  70.4944820  90.9023040
  42.4722760  69.8168810  90.3225490  43.0213530  70.0334330  91.7166430
  44.9849800  85.4825570  92.5209640  45.8800590  85.8210540  92.5428400
  45.0167430  84.7604980  91.8933920  38.6245960  80.8552620  90.7496640
  39.0620830  81.3982290  91.4054220  39.1093690  80.0299570  90.7592980
  35.8391760  83.6441650  98.2016900  36.1694770  82.7762710  97.9695540
  36.2682760  83.8500170  99.0321860  40.4353680  81.9750660  95.8618870
  40.1349220  81.8515630  96.7622780  40.3291170  81.1159250  95.4534600
  36.3281970  84.5112240 100.9398530  35.8912960  84.6913040 101.7722680
  36.8959650  85.2686860 100.7980250  53.2045600  81.7547060  90.5645550
  52.3738560  81.8223710  91.0352780  53.3817430  82.6451180  90.2612410
  52.6602060  78.4994540  93.0679750  53.4220970  79.0691190  93.1739440
  52.6756430  77.9321740  93.8388060  36.1606400  77.0232470  97.2987410
  35.5055240  76.7544110  96.6547110  36.9984350  76.9136950  96.8489390
  53.6662030  79.3544640  97.9121680  54.0370860  78.5711960  97.5057650
  54.3063960  80.0433740  97.7338980  52.7121230  78.7928910  90.2252270
  52.9870070  79.7007790  90.0971490  52.5231970  78.7291440  91.1614260
  49.1096840  71.8173760  91.5205900  49.5281720  71.6304740  90.6802560
  48.8032900  70.9652810  91.8308830  52.6086570  76.7297900  95.2181700
  52.2330170  75.9625830  94.7862990  51.8789690  77.1120600  95.7056630
  37.1982330  77.4085040 101.8390750  37.5655370  77.3212440 102.7186770
  36.6293150  76.6451590 101.7397610  35.3744480  74.2331400  93.2412740
  34.4708560  74.4961600  93.0664400  35.8585100  74.5042570  92.4612700
  51.8837530  74.9555390  98.5188940  52.4075010  74.4618040  97.8879110
  52.4696950  75.0905750  99.2636510  52.0627250  75.0395260 102.0408490
  51.1129960  75.0058800 102.1553480  52.2440260  75.9495370 101.8058260
  37.9171690  73.2896940  91.1507120  38.6263390  72.8680160  90.6654400
  37.2011630  73.3572170  90.5190470  37.5645850  69.3436270  90.1909770
  38.2873980  69.8845210  90.5090990  37.8370370  69.0699690  89.3151310
  51.3737500  74.2128740  94.4581350  51.8696620  73.9799610  95.2430230
  51.1753570  73.3740580  94.0418990  37.2538040  68.5942460 100.0932390
  37.9014230  68.0439840  99.6527550  37.6739880  68.8485610 100.9148200
  52.8024660  72.8489690  96.9919030  52.6923940  72.6945730  97.9301300
  53.5632250  72.3210630  96.7494440  53.6914930  70.6797610  90.2325170
  54.6164240  70.5478790  90.0243460  53.6690720  70.7590430  91.1861620
  53.7653420  71.4508270  92.8581880  52.9704920  71.3853390  93.3874790
  53.9696700  72.3858910  92.8467230  50.7071840  85.4899820  96.8520270
  51.3030910  85.1684390  96.1754690  50.9649990  85.0171640  97.6433540
  42.3140440  83.4777320 102.6020620  42.0731800  83.7451880 101.7151140
  43.2543080  83.6483050 102.6571480  51.2584050  86.1395120 100.6818000
  50.7987020  86.8910930 100.3076020  50.6296510  85.4201590 100.6232800
  41.6879770  84.4483360  99.8566130  42.2044790  83.8370720  99.3314390
  42.3377150  84.9512140 100.3477140  44.4275270  85.3391850 100.6835110
  44.7153080  85.0846150  99.8068120  44.9398490  84.7869210 101.2740680
  45.6452280  69.0782050 101.2631620  44.8624070  69.5527550 101.5428380
  45.3515210  68.1736880 101.1544800  50.1973350  69.7805150  99.3080710
  50.6381440  69.7250250  98.4602310  49.9280940  70.6963160  99.3790890
  52.0611920  69.4120390  97.3189530  52.0000320  68.4681610  97.1720550
  52.8403950  69.5200480  97.8642990  36.3664670  85.5512750  96.2813480
  36.1986710  84.9183430  96.9795370  35.4999180  85.7572150  95.9307670
  36.9892690  69.3829530  93.7845340  37.7472050  69.4958410  93.2109370
  36.5269860  70.2198730  93.7388770  43.5306500  71.4968800  96.7747650
  42.7181010  71.1225690  96.4343530  44.0348140  70.7413880  97.0768840
  48.0331480  68.1611250  98.0130720  48.6360850  68.7331460  98.4879240
  47.2924470  68.7250690  97.7904620  51.1766080  68.5632810  93.2871000
  51.3716710  69.4616260  93.5538430  50.3895950  68.3319890  93.7803950
  37.9727370  84.2445980  93.7263620  37.4474990  84.6254010  93.0225580
  37.8971950  84.8696750  94.4473330  39.3617840  69.9093580  92.3247310
  39.8910600  69.1223380  92.1955260  39.9946160  70.5884770  92.5582840
  41.5555680  69.6468720  95.3792700  40.9258420  68.9456030  95.5462830
  41.0160820  70.4072850  95.1625860  52.7292690  85.8033520  95.0477560
  52.9044880  85.1171260  94.4038480  52.0314260  86.3280570  94.6554230
  40.5720340  86.1928360  92.6012870  41.3039160  85.9087640  92.0536760
  40.8314010  85.9541640  93.4912250  39.7335130  82.3093090  92.6059200
  39.1044010  82.7778190  93.1545030  39.8482960  81.4642310  93.0405390
  47.1884850  76.3598750  78.7560400  47.1078900  75.4453360  78.4852110
  46.7749270  76.8565820  78.0500110  45.3202890  78.1377770  80.6369670
  44.5444990  77.6578210  80.9268240  45.9715820  77.4583420  80.4625830
  39.3368720  78.4497580  81.5145430  38.5053600  78.1946290  81.9141940
  39.9449700  78.5208350  82.2503350  39.3169980  82.4837670  81.7103450
  39.6198020  81.5935410  81.5313670  40.0613570  83.0407890  81.4825700
  37.7460670  73.4099470  75.2987820  36.8577370  73.7515440  75.1967700
  38.0301860  73.2099790  74.4068650  35.7093680  76.0105120  81.1827520
  36.2809790  75.2427320  81.1831160  35.7095220  76.3093880  80.2734130
  45.5673630  84.8295970  79.0372790  44.9485070  85.2853470  78.4667230
  46.4225410  84.9847430  78.6362490  44.7611880  80.8134960  80.6439830
  44.6920160  79.8724900  80.4828960  45.5231740  80.9036370  81.2162400
  36.9518550  71.4189480  82.9696450  36.7721390  70.5215230  83.2499210
  36.5498630  71.9661350  83.6443400  45.7917050  73.6205340  80.8708760
  46.1681870  72.7477220  80.7582430  45.6936560  73.9564040  79.9799200
  39.9222060  71.9930970  76.3326200  40.0288810  72.8934700  76.6394960
  39.0114420  71.9448940  76.0420850  49.5741170  71.1155780  77.8037100
  50.3950790  70.6252350  77.8462580  49.6075250  71.7053440  78.5568940
  37.5705220  73.9149980  81.5778790  38.2515330  74.1788350  82.1966190
  37.2553270  73.0750850  81.9116800  41.7629790  74.9617340  80.6651380
  42.2708010  75.4598310  81.3056400  42.2943030  74.1852540  80.4890740
  53.8640720  73.1322530  84.3680730  53.1592890  73.5204240  83.8495840
  54.1298640  73.8272820  84.9701660  40.0465890  69.6015900  84.9314800
  40.0484330  70.1188290  84.1260700  39.2170200  69.1246080  84.9084730
  46.4336980  79.7135210  76.4304700  45.8154250  80.1784660  75.8667420
  46.9460230  80.4062690  76.8474210  41.2968740  79.2411080  83.1088300
  40.9638120  79.8680000  83.7509370  41.4735420  79.7672960  82.3289970
  49.8102650  73.0556160  80.5764640  49.1058220  73.3441050  81.1567750
  50.1714810  73.8656270  80.2164200  39.7281220  71.3125860  82.9385250
  40.0698030  72.1567910  82.6439120  38.7897030  71.4609600  83.0550590
  40.5087840  81.2091880  84.9237480  41.1261840  81.8842960  84.6421930
  39.6480960  81.6179860  84.8324980  35.8020180  80.3991740  73.8044330
  35.4248160  80.8878840  73.0729230  36.0593250  81.0717020  74.4350860
  52.8789570  72.5010950  80.9673850  51.9314480  72.5349930  81.0989280
  53.2039560  73.3149900  81.3523210  43.4109110  68.8008130  79.2629840
  43.7184090  68.2455020  78.5465340  42.4809810  68.9352590  79.0802830
  50.2569590  81.2391640  76.6427470  50.1465920  80.2965970  76.7676890
  50.2537840  81.6007280  77.5290230  45.7989870  76.8656960  75.9989960
  44.8719150  76.7994340  76.2278430  45.9514690  77.8037090  75.8845200
  45.7858950  73.1373960  72.9957120  44.8462620  73.2987920  73.0809580
  46.1042210  73.8559640  72.4493110  52.3071710  77.8192480  82.9736150
  51.4790340  77.8885570  82.4986280  52.9022190  78.4046790  82.5051980
  49.8287160  78.4277260  76.5025210  49.2099580  78.0896810  75.8551510
  49.8111610  77.7837020  77.2104400  49.2713720  74.6061800  83.9191020
  48.8584900  75.4315510  84.1731010  48.5389670  74.0206840  83.7267380
  41.4046510  77.3921700  78.7809690  41.0003510  76.6798950  78.2855590
  41.4909630  77.0474940  79.6697730  41.8728210  81.0789260  80.9448900
  41.5756500  80.4734730  80.2656680  42.8228030  81.1166570  80.8338260
  40.1175130  74.1664910  82.5608730  40.6689720  74.2760250  81.7861980
  40.6318640  74.5402510  83.2763960  40.9646640  80.8170950  87.5956700
  40.0675170  81.0410920  87.8430100  40.9899510  80.9405890  86.6468100
  48.0051860  77.6664070  73.5097960  48.4445140  76.8286500  73.3635780
  48.7180280  78.2993470  73.5962100  39.7917860  77.6884270  86.1714070
  39.6525630  78.5607070  86.5401470  38.9099220  77.3457080  86.0262010
  46.1147240  82.6060140  77.4779200  46.5543150  83.3484470  77.0634590
  46.0534130  82.8486710  78.4018160  41.5898210  83.6305970  88.3799220
  41.5613640  84.0348920  87.5127650  41.4263180  82.7016330  88.2170820
  51.5869000  68.9206880  71.8239000  51.2741660  69.0133710  72.7238070
  52.3481470  69.4987910  71.7736430  38.1051140  76.2866680  76.2816340
  37.9848740  77.0128770  75.6697610  37.7952030  75.5169590  75.8044250
  53.5413030  84.4133070  89.6763390  54.0172750  84.8915960  90.3552470
  54.1620190  84.3450560  88.9508890  35.7436510  79.4581820  82.0884980
  35.8216930  79.5930590  81.1440700  36.3578190  78.7497710  82.2813100
  36.9884140  81.1582010  78.4991160  36.5812220  81.2996600  77.6444760
  37.8797150  80.8742170  78.2962370  52.9446280  81.6045920  86.8363400
  53.0709340  81.3657800  85.9180580  52.9867660  80.7730460  87.3085480
  46.8063020  85.3073920  85.4058210  47.3207690  85.2181930  86.2080640
  45.9632100  85.6533620  85.6986120  48.7817420  85.5929260  74.8342210
  48.6218560  85.3032200  75.7324040  48.6164130  84.8169390  74.2987440
  41.2605800  85.3727790  76.6113830  41.0848280  84.4563330  76.3981630
  40.4061540  85.7315080  76.8511630  48.4843550  83.1016820  73.3940210
  47.7908710  83.0994110  72.7342490  49.2266410  82.6776140  72.9634380
  48.0493480  84.7279530  77.4688700  48.5050430  83.9468910  77.7827320
  48.3886000  85.4386350  78.0129880  52.7970290  73.6578380  87.8013140
  52.1814560  74.1658050  87.2728600  52.4766710  72.7576710  87.7439080
  35.7996030  80.4995990  84.6279440  35.9627070  80.0301350  83.8098810
  36.2648480  79.9919550  85.2928280  40.5714800  69.6301750  79.6640010
  40.1282950  70.4111290  79.3324530  41.1299790  69.9531640  80.3710950
  44.8584610  72.4970270  85.2675330  44.3963980  72.7053290  86.0795270
  44.4562720  71.6829620  84.9646000  49.8589120  73.7179220  86.3971990
  49.0082710  73.4184970  86.7181060  49.6990910  73.9621230  85.4855810
  46.9538830  75.2180970  88.4970780  47.2792240  74.3844720  88.1573010
  47.7419160  75.7409490  88.6449110  43.6873620  69.2512450  74.5445840
  43.0627800  69.2472320  75.2699150  43.6003740  68.3843410  74.1481810
  42.6090700  70.1749080  81.5229610  42.9063030  71.0811910  81.4421630
  43.1576260  69.6867860  80.9089180  40.3629020  74.7535320  77.3921260
  40.1369940  74.5372490  78.2967880  39.5821550  75.1863780  77.0467230
  47.5926780  74.7598690  75.9911910  46.9935670  75.4834490  75.8075530
  48.1406390  74.6975470  75.2088360  42.8028230  75.6520900  88.0581530
  42.7071830  74.7115630  87.9081930  43.6460210  75.8735970  87.6629600
  46.1991650  73.3962230  78.0215190  46.5921220  73.7134430  77.2083880
  46.5608500  72.5174110  78.1359710  37.9338770  72.0634570  86.2115310
  37.5402160  72.9109780  86.4188090  37.2457170  71.4260940  86.4023950
  44.5083820  72.1469540  89.2812050  43.8182140  71.9541740  89.9158140
  45.2516120  72.4304180  89.8136350  35.2355820  69.9863030  80.2445390
  34.9468870  70.5565890  80.9570370  35.9801580  69.5067480  80.6076620
  35.4226050  73.9283150  71.4548110  35.3400720  74.8713910  71.5963100
  35.0709110  73.7858060  70.5760460  46.7846790  75.9867980  82.1165970
  46.0527910  76.4954790  82.4656070  46.3871130  75.1697960  81.8154750
  43.2224180  72.6622180  80.5218460  43.2260240  72.2212130  79.6723000
  44.1175300  72.9839510  80.6290280  39.0726560  72.5448670  79.4812670
  38.7326610  73.0223900  80.2379720  38.3103880  72.0913790  79.1213770
  43.2844330  73.6634260  73.5125220  43.4057150  73.6220740  74.4611040
  42.8992840  74.5258410  73.3571950  47.2472700  71.4401660  81.5288910
  47.2645440  71.8910310  82.3730760  46.9988280  70.5407300  81.7422350
  42.2965830  75.9735400  72.9108520  41.7282730  75.5253650  72.2844430
  43.0054830  76.3328180  72.3773670  50.6743450  68.8533840  87.3675290
  50.9989220  68.1223500  87.8933270  50.7099960  68.5347480  86.4656280
  37.3735010  79.8747420  86.7875250  36.9889800  79.2341090  87.3858210
  37.6847200  80.5783540  87.3569980  43.5232150  76.7223960  82.2683870
  43.8902280  76.2482530  83.0145210  43.3337210  77.5965530  82.6092210
  36.3872640  71.4667650  78.3977340  36.1019560  71.1023320  79.2355960
  36.3251500  70.7348110  77.7840480  41.3131520  75.7632600  84.5868080
  41.0088590  76.6424580  84.8118440  42.2677980  75.8232390  84.6225520
  39.8413310  79.9693590  75.1834930  39.0675570  79.4291210  75.0233650
  40.5707940  79.4500200  74.8452690  46.0611230  70.3596910  75.1190710
  45.2475840  69.8610080  75.0436020  45.8673180  71.1995160  74.7027060
  45.9820090  79.0368010  86.8630320  45.9157400  78.1163680  86.6087910
  45.3525230  79.1343450  87.5774960  48.7759620  74.7316560  73.4152870
  49.6639240  75.0433790  73.2404210  48.7464710  73.8588810  73.0233450
  39.8850710  79.6373970  78.8213740  40.4029380  78.8342230  78.7670630
  39.4334730  79.5753110  79.6630570  44.7720210  80.9040250  74.0941040
  45.1135910  81.6482480  73.5984360  43.9432920  81.2171370  74.4565870
  37.3695250  76.6035340  85.7339440  37.0110190  77.2689190  86.3212780
  37.0749810  75.7718890  86.1052060  40.5708370  77.0619580  88.6178990
  40.2708510  77.2076760  87.7206810  41.3419610  76.5024870  88.5252380
  45.9136820  81.8588580  86.6134120  45.9281360  80.9269540  86.3953030
  45.2061920  81.9448340  87.2523890  51.0473890  76.0428400  72.8832730
  50.9637610  76.4742620  72.0329170  51.7668080  76.5026750  73.3159550
  52.1248030  78.4995920  85.9602700  51.3996220  79.0924700  85.7632090
  52.6523490  78.4919460  85.1616070  52.0761140  82.8970660  75.6114860
  51.4337300  82.2426280  75.8858580  51.6891800  83.3025750  74.8355530
  43.7410900  80.9853780  76.8656960  44.4282030  81.5322990  77.2464550
  42.9543320  81.5294510  76.9006570  35.8803300  76.6026600  72.3574040
  36.7498150  76.8851400  72.6409960  35.3893620  77.4162470  72.2422850
  43.0438110  77.9899810  76.4782320  43.5000890  78.8005060  76.7042510
  42.6926320  77.6722950  77.3100810  45.3470720  83.5006150  83.7074620
  45.9912940  83.7065530  84.3848040  45.7100160  82.7394550  83.2545470
  38.9449890  68.3337460  76.9504840  38.8164520  68.3255360  77.8989760
  38.1211910  68.6720550  76.5995850  50.4658520  81.7887120  72.1491210
  50.2396100  81.0717560  72.7415850  50.0754720  81.5399560  71.3112960
  36.2474550  85.8153980  72.9235670  36.6072190  86.4143320  72.2692940
  36.1066890  86.3613870  73.6970700  35.9443820  70.0928580  86.4111540
  35.2302340  70.2925500  87.0164150  36.3638860  69.3168150  86.7826340
  50.0474770  79.7059060  73.8105370  49.7596470  80.1671750  74.5983250
  50.8426940  79.2456830  74.0789590  36.2316410  84.0808840  87.3978070
  36.3407530  83.1403580  87.2573460  35.5796970  84.3463590  86.7491800
  44.2229000  82.3524730  88.7976190  43.9025870  81.6333970  89.3421880
  43.5487360  83.0279800  88.8712250  42.2643170  83.1985180  73.7409340
  42.2553270  83.9314870  73.1253850  41.3441530  82.9516760  73.8336300
  37.8649810  78.4200070  74.4856100  37.2577760  79.1598970  74.4951400
  38.3399160  78.5099430  73.6594300  47.4382600  72.5850890  84.1612990
  47.8063420  71.7646100  84.4892560  46.5780800  72.6452780  84.5768640
  50.8044630  71.5407830  74.9700550  50.1757790  71.6453500  74.2558780
  50.3096550  71.7604610  75.7594430  45.2502770  83.2613420  72.4034530
  45.3514750  83.0577410  71.4736510  44.3504510  83.0071700  72.6082310
  42.7728660  73.8193780  76.3858430  42.0644810  74.2880120  76.8272040
  43.0573140  73.1615790  77.0203620  44.3984590  75.2390480  84.3850960
  44.8969840  75.7136300  85.0502810  44.5407540  74.3154000  84.5920990
  46.8044090  70.5444440  77.8254220  46.6811870  70.5630570  76.8763730
  47.7528650  70.5923380  77.9452620  43.8920880  85.7799740  77.0982200
  44.1462380  85.7421130  76.1761570  42.9433360  85.6533070  77.0910450
  40.9763680  72.1278860  73.7609140  41.8254210  72.5649010  73.6949330
  40.6094950  72.4399120  74.5881200  51.6051450  71.4558440  85.2279350
  51.1025050  72.1963840  85.5673160  52.4208110  71.8442440  84.9116140
  49.8973460  76.6991620  78.6740710  48.9563600  76.7141850  78.8488400
  50.2117530  75.9127580  79.1201010  39.8755100  78.3811220  72.2344670
  40.6418370  78.2692580  72.7970100  39.9529790  77.6849190  71.5821440
  38.5701860  75.8136290  72.9177560  38.6505450  74.8663800  73.0294960
  39.4621610  76.1443170  73.0238220  39.3716570  85.9631680  80.0212100
  40.1079050  85.4147140  80.2920670  39.7557490  86.8287690  79.8818090
  36.2562050  82.0305250  75.8953610  35.3301830  82.2726390  75.8859020
  36.7218480  82.8579510  75.7738360  38.3774850  85.1477750  89.2097680
  39.1787580  85.4689800  89.6233080  37.8626670  84.7873330  89.9317590
  42.4818880  85.1361990  71.8437670  43.2747490  85.4250820  71.3919460
  41.9623230  84.7054160  71.1650150  47.2139480  81.2557620  89.1573090
  46.6077640  81.2789220  88.4168840  46.9093590  80.5240660  89.6940340
  48.6439850  84.9837910  87.7682500  49.5961600  84.8995930  87.7182740
  48.4968070  85.6479620  88.4416290  51.5349050  84.3632120  73.2674410
  51.2490560  83.9497260  72.4528590  51.3368600  85.2919830  73.1474930
  36.0972660  77.6351210  88.1533730  36.6011680  77.0558490  88.7249960
  35.3580080  77.9191440  88.6910100  42.9996280  80.3565400  71.7080020
  42.8946920  79.7417750  72.4341400  42.8320500  79.8331290  70.9243030
  43.1510600  79.0422200  87.6869250  42.3856270  79.6107200  87.6023920
  43.3326560  78.7498410  86.7937480  46.2399010  79.4185430  72.3122010
  45.6909110  79.8654730  72.9564750  46.8618270  78.9134680  72.8359680
  50.2933950  80.7727530  88.2444270  51.0343420  81.1103290  87.7411730
  49.5306630  80.9419590  87.6914040  38.1295740  75.7780800  89.0483800
  38.1701080  75.4794670  89.9569030  38.9841240  76.1788410  88.8891320
  41.9074130  78.3776350  74.2087310  42.3290550  78.2116220  75.0518700
  42.0324970  77.5676580  73.7142450  40.0701550  74.3572900  87.0158290
  39.5398010  73.8663850  86.3881630  40.7389620  74.7857100  86.4816220
  44.4201770  77.4013960  71.4564410  44.9407430  76.6862980  71.0905560
  45.0670170  78.0399830  71.7564920  48.9679610  78.8242360  86.7799480
  49.3820630  78.9787440  87.6289900  48.0330610  78.9497580  86.9425260
  49.4401780  76.1638520  88.7838630  50.0222550  75.4090840  88.6959110
  49.6163550  76.6945960  88.0070110  40.5573850  71.3235270  87.0955580
  40.4630720  70.7056020  86.3706450  39.9771240  72.0501560  86.8685490
  43.3235290  69.8808510  84.1282970  42.8752590  69.9032770  83.2828520
  42.6900490  69.4827530  84.7253270  43.7294840  78.7762840  84.7495410
  44.1482950  79.6195570  84.5771650  42.8103470  78.9134880  84.5202190
  46.0658740  76.5079020  86.1333250  46.1854950  75.9120160  86.8728090
  46.9252740  76.5448710  85.7134550  48.4046640  77.0616210  84.7095760
  47.8781860  77.5858830  84.1060900  48.7477980  77.6943600  85.3405490
  40.8033030  74.4509580  71.1545470  40.6022090  73.5876940  71.5158810
  40.6325080  74.3642940  70.2167070  41.5802260  85.0815850  85.8653140
  41.0423350  85.8061910  85.5461840  41.8336220  84.6046190  85.0750480
  42.8327510  73.0500370  87.3909070  43.4227200  72.7416220  88.0786890
  42.0147750  72.5780120  87.5468970  47.6520940  72.6666180  87.6242090
  46.9636460  72.0047720  87.5592080  48.3726960  72.2204450  88.0690550
  48.2821340  69.2617810  73.6832350  48.5623630  68.4185710  74.0391770
  47.5087070  69.4940920  74.1971100  39.6015830  71.5510200  71.1423350
  39.9041730  71.5577630  70.2342500  40.3410420  71.2008060  71.6391010
  44.4364470  86.3167060  86.1239790  44.3623170  87.2202200  86.4312160
  43.5343310  85.9978960  86.0961860  42.8200760  70.4944820  72.1279550
  42.4722760  69.8168810  71.5482000  43.0213530  70.0334330  72.9422940
  44.9849800  85.4825570  73.7466150  45.8800590  85.8210540  73.7684910
  45.0167430  84.7604980  73.1190430  38.6245960  80.8552620  71.9753150
  39.0620830  81.3982290  72.6310730  39.1093690  80.0299570  71.9849490
  35.8391760  83.6441650  79.4273410  36.1694770  82.7762710  79.1952050
  36.2682760  83.8500170  80.2578370  40.4353680  81.9750660  77.0875380
  40.1349220  81.8515630  77.9879290  40.3291170  81.1159250  76.6791110
  36.3281970  84.5112240  82.1655040  35.8912960  84.6913040  82.9979190
  36.8959650  85.2686860  82.0236760  51.9644150  84.0129240  86.4532350
  51.3646140  84.0721800  85.7096270  52.0938050  83.0734220  86.5829200
  53.2045600  81.7547060  71.7902060  52.3738560  81.8223710  72.2609290
  53.3817430  82.6451180  71.4868920  52.6602060  78.4994540  74.2936260
  53.4220970  79.0691190  74.3995950  52.6756430  77.9321740  75.0644570
  36.1606400  77.0232470  78.5243920  35.5055240  76.7544110  77.8803620
  36.9984350  76.9136950  78.0745900  53.6662030  79.3544640  79.1378190
  54.0370860  78.5711960  78.7314160  54.3063960  80.0433740  78.9595490
  52.7121230  78.7928910  71.4508780  52.9870070  79.7007790  71.3228000
  52.5231970  78.7291440  72.3870770  49.1096840  71.8173760  72.7462410
  49.5281720  71.6304740  71.9059070  48.8032900  70.9652810  73.0565340
  52.6086570  76.7297900  76.4438210  52.2330170  75.9625830  76.0119500
  51.8789690  77.1120600  76.9313140  37.1982330  77.4085040  83.0647260
  37.5655370  77.3212440  83.9443280  36.6293150  76.6451590  82.9654120
  51.9986190  75.8769420  86.0777730  51.7672280  75.6482170  85.1775680
  52.2590740  76.7968970  86.0322620  36.7498330  74.3194130  86.9705680
  35.8554380  74.2860890  87.3099390  37.2895880  74.5180920  87.7356930
  50.4374260  71.1025850  88.8557430  51.3144440  71.1109250  89.2391430
  50.4495100  70.3656690  88.2449780  35.3744480  74.2331400  74.4669250
  34.4708560  74.4961600  74.2920910  35.8585100  74.5042570  73.6869210
  51.8837530  74.9555390  79.7445450  52.4075010  74.4618040  79.1135620
  52.4696950  75.0905750  80.4893020  52.0627250  75.0395260  83.2665000
  51.1129960  75.0058800  83.3809990  52.2440260  75.9495370  83.0314770
  37.9171690  73.2896940  72.3763630  38.6263390  72.8680160  71.8910910
  37.2011630  73.3572170  71.7446980  37.5645850  69.3436270  71.4166280
  38.2873980  69.8845210  71.7347500  37.8370370  69.0699690  70.5407820
  51.3737500  74.2128740  75.6837860  51.8696620  73.9799610  76.4686740
  51.1753570  73.3740580  75.2675500  37.2538040  68.5942460  81.3188900
  37.9014230  68.0439840  80.8784060  37.6739880  68.8485610  82.1404710
  52.8024660  72.8489690  78.2175540  52.6923940  72.6945730  79.1557810
  53.5632250  72.3210630  77.9750950  51.1490380  68.7883820  84.6758540
  51.7862600  69.4017960  85.0417730  51.2965270  68.8244480  83.7307770
  53.6914930  70.6797610  71.4581680  54.6164240  70.5478790  71.2499970
  53.6690720  70.7590430  72.4118130  53.7653420  71.4508270  74.0838390
  52.9704920  71.3853390  74.6131300  53.9696700  72.3858910  74.0723740
  50.7071840  85.4899820  78.0776780  51.3030910  85.1684390  77.4011200
  50.9649990  85.0171640  78.8690050  37.0070040  68.7498130  84.0614220
  36.6584860  69.2061950  84.8272400  36.6757740  67.8555260  84.1436650
  38.6134410  81.9217730  88.2267410  38.5704040  81.5510640  89.1081870
  38.7445420  82.8595300  88.3669230  42.3140440  83.4777320  83.8277130
  42.0731800  83.7451880  82.9407650  43.2543080  83.6483050  83.8827990
  44.5194860  69.9410010  87.5833640  44.4583750  70.5331840  88.3329050
  45.4595240  69.8335970  87.4383900  47.1569420  69.5980070  87.2225930
  47.7709830  69.9159360  86.5607010  47.7018980  69.1128660  87.8421790
  53.5744600  85.4971700  84.6287770  53.0802880  85.8940570  83.9114900
  52.9657890  84.8720910  85.0225050  37.6790680  68.2774330  87.3364990
  38.2273670  68.0962380  86.5731100  37.7445990  67.4868440  87.8721300
  38.4522440  84.8679980  85.3465190  37.8582760  84.7364680  86.0855230
  38.4446280  84.0318120  84.8807290  47.8977460  68.1612210  83.5495220
  47.0237300  68.4947320  83.3468150  47.7888210  67.6885390  84.3747090
  48.8049440  70.3683080  84.9336940  48.4762800  69.5534840  84.5538670
  49.7531740  70.3252890  84.8102630  51.2584050  86.1395120  81.9074510
  50.7987020  86.8910930  81.5332530  50.6296510  85.4201590  81.8489310
  38.0834670  82.2338360  84.2973230  37.3568730  81.6143650  84.2299180
  38.1443820  82.6278970  83.4271310  41.6879770  84.4483360  81.0822640
  42.2044790  83.8370720  80.5570900  42.3377150  84.9512140  81.5733650
  44.4275270  85.3391850  81.9091620  44.7153080  85.0846150  81.0324630
  44.9398490  84.7869210  82.4997190  45.6452280  69.0782050  82.4888130
  44.8624070  69.5527550  82.7684890  45.3515210  68.1736880  82.3801310
  50.1973350  69.7805150  80.5337220  50.6381440  69.7250250  79.6858820
  49.9280940  70.6963160  80.6047400  52.0611920  69.4120390  78.5446040
  52.0000320  68.4681610  78.3977060  52.8403950  69.5200480  79.0899500
  36.3664670  85.5512750  77.5069990  36.1986710  84.9183430  78.2051880
  35.4999180  85.7572150  77.1564180  36.9892690  69.3829530  75.0101850
  37.7472050  69.4958410  74.4365880  36.5269860  70.2198730  74.9645280
  43.5306500  71.4968800  78.0004160  42.7181010  71.1225690  77.6600040
  44.0348140  70.7413880  78.3025350  48.0331480  68.1611250  79.2387230
  48.6360850  68.7331460  79.7135750  47.2924470  68.7250690  79.0161130
  51.1766080  68.5632810  74.5127510  51.3716710  69.4616260  74.7794940
  50.3895950  68.3319890  75.0060460  37.9727370  84.2445980  74.9520130
  37.4474990  84.6254010  74.2482090  37.8971950  84.8696750  75.6729840
  39.3617840  69.9093580  73.5503820  39.8910600  69.1223380  73.4211770
  39.9946160  70.5884770  73.7839350  41.5555680  69.6468720  76.6049210
  40.9258420  68.9456030  76.7719340  41.0160820  70.4072850  76.3882370
  44.4947630  86.2607950  89.2759820  45.4214940  86.0252220  89.3195780
  44.4798060  87.0879950  88.7945850  52.7292690  85.8033520  76.2734070
  52.9044880  85.1171260  75.6294990  52.0314260  86.3280570  75.8810740
  41.6811240  68.9252700  89.0401700  41.3995510  69.4286300  88.2762520
  42.0630940  68.1274450  88.6743830  40.5720340  86.1928360  73.8269380
  41.3039160  85.9087640  73.2793270  40.8314010  85.9541640  74.7168760
  39.7335130  82.3093090  73.8315710  39.1044010  82.7778190  74.3801540
  39.8482960  81.4642310  74.2661900  48.2826700  68.3406280  89.6182170
  48.1692150  68.6600890  90.5133690  49.0996440  68.7418790  89.3219450
  51.0625190  85.4877810  89.1000860  51.8550510  84.9927040  88.8926820
  51.3558340  86.1667950  89.7076470  47.1884850  76.3598750  59.9816910
  47.1078900  75.4453360  59.7108620  46.7749270  76.8565820  59.2756620
  45.3202890  78.1377770  61.8626180  44.5444990  77.6578210  62.1524750
  45.9715820  77.4583420  61.6882340  39.3368720  78.4497580  62.7401940
  38.5053600  78.1946290  63.1398450  39.9449700  78.5208350  63.4759860
  49.3410320  82.5437960  60.6425310  48.8791850  81.7725200  60.9712480
  50.1535870  82.5704030  61.1477760  39.3169980  82.4837670  62.9359960
  39.6198020  81.5935410  62.7570180  40.0613570  83.0407890  62.7082210
  35.7093680  76.0105120  62.4084030  36.2809790  75.2427320  62.4087670
  35.7095220  76.3093880  61.4990640  45.5673630  84.8295970  60.2629300
  44.9485070  85.2853470  59.6923740  46.4225410  84.9847430  59.8619000
  44.7611880  80.8134960  61.8696340  44.6920160  79.8724900  61.7085470
  45.5231740  80.9036370  62.4418910  36.9518550  71.4189480  64.1952960
  36.7721390  70.5215230  64.4755720  36.5498630  71.9661350  64.8699910
  45.7917050  73.6205340  62.0965270  46.1681870  72.7477220  61.9838940
  45.6936560  73.9564040  61.2055710  37.5705220  73.9149980  62.8035300
  38.2515330  74.1788350  63.4222700  37.2553270  73.0750850  63.1373310
  41.7629790  74.9617340  61.8907890  42.2708010  75.4598310  62.5312910
  42.2943030  74.1852540  61.7147250  53.8640720  73.1322530  65.5937240
  53.1592890  73.5204240  65.0752350  54.1298640  73.8272820  66.1958170
  40.0465890  69.6015900  66.1571310  40.0484330  70.1188290  65.3517210
  39.2170200  69.1246080  66.1341240  46.4336980  79.7135210  57.6561210
  45.8154250  80.1784660  57.0923930  46.9460230  80.4062690  58.0730720
  41.2968740  79.2411080  64.3344810  40.9638120  79.8680000  64.9765880
  41.4735420  79.7672960  63.5546480  49.8102650  73.0556160  61.8021150
  49.1058220  73.3441050  62.3824260  50.1714810  73.8656270  61.4420710
  39.7281220  71.3125860  64.1641760  40.0698030  72.1567910  63.8695630
  38.7897030  71.4609600  64.2807100  40.5087840  81.2091880  66.1493990
  41.1261840  81.8842960  65.8678440  39.6480960  81.6179860  66.0581490
  35.8020180  80.3991740  55.0300840  35.4248160  80.8878840  54.2985740
  36.0593250  81.0717020  55.6607370  51.4265430  82.6731290  64.0648630
  50.7428950  83.3430400  64.0565300  51.9659720  82.8711940  63.2993490
  43.4109110  68.8008130  60.4886350  43.7184090  68.2455020  59.7721850
  42.4809810  68.9352590  60.3059340  48.9624170  84.5175420  62.7793810
  48.9751330  84.1137710  61.9116070  48.4099390  85.2922710  62.6755240
  50.2569590  81.2391640  57.8683980  50.1465920  80.2965970  57.9933400
  50.2537840  81.6007280  58.7546740  48.3609610  79.4205260  64.1076420
  48.7778400  79.2065370  63.2729880  49.0849430  79.6778050  64.6785040
  45.7989870  76.8656960  57.2246470  44.8719150  76.7994340  57.4534940
  45.9514690  77.8037090  57.1101710  45.7858950  73.1373960  54.2213630
  44.8462620  73.2987920  54.3066090  46.1042210  73.8559640  53.6749620
  49.8287160  78.4277260  57.7281720  49.2099580  78.0896810  57.0808020
  49.8111610  77.7837020  58.4360910  49.2713720  74.6061800  65.1447530
  48.8584900  75.4315510  65.3987520  48.5389670  74.0206840  64.9523890
  41.4046510  77.3921700  60.0066200  41.0003510  76.6798950  59.5112100
  41.4909630  77.0474940  60.8954240  41.8728210  81.0789260  62.1705410
  41.5756500  80.4734730  61.4913190  42.8228030  81.1166570  62.0594770
  40.1175130  74.1664910  63.7865240  40.6689720  74.2760250  63.0118490
  40.6318640  74.5402510  64.5020470  49.9613820  84.6521130  65.8328510
  49.4844380  85.4593320  65.6401120  49.2775610  83.9999460  65.9854720
  40.9646640  80.8170950  68.8213210  40.0675170  81.0410920  69.0686610
  40.9899510  80.9405890  67.8724610  48.0051860  77.6664070  54.7354470
  48.4445140  76.8286500  54.5892290  48.7180280  78.2993470  54.8218610
  39.7917860  77.6884270  67.3970580  39.6525630  78.5607070  67.7657980
  38.9099220  77.3457080  67.2518520  46.1147240  82.6060140  58.7035710
  46.5543150  83.3484470  58.2891100  46.0534130  82.8486710  59.6274670
  41.5898210  83.6305970  69.6055730  41.5613640  84.0348920  68.7384160
  41.4263180  82.7016330  69.4427330  53.5413030  84.4133070  70.9019900
  54.0172750  84.8915960  71.5808980  54.1620190  84.3450560  70.1765400
  35.7436510  79.4581820  63.3141490  35.8216930  79.5930590  62.3697210
  36.3578190  78.7497710  63.5069610  36.9884140  81.1582010  59.7247670
  36.5812220  81.2996600  58.8701270  37.8797150  80.8742170  59.5218880
  46.8063020  85.3073920  66.6314720  47.3207690  85.2181930  67.4337150
  45.9632100  85.6533620  66.9242630  48.7817420  85.5929260  56.0598720
  48.6218560  85.3032200  56.9580550  48.6164130  84.8169390  55.5243950
  41.2605800  85.3727790  57.8370340  41.0848280  84.4563330  57.6238140
  40.4061540  85.7315080  58.0768140  48.4843550  83.1016820  54.6196720
  47.7908710  83.0994110  53.9599000  49.2266410  82.6776140  54.1890890
  48.0493480  84.7279530  58.6945210  48.5050430  83.9468910  59.0083830
  48.3886000  85.4386350  59.2386390  52.7970290  73.6578380  69.0269650
  52.1814560  74.1658050  68.4985110  52.4766710  72.7576710  68.9695590
  35.7996030  80.4995990  65.8535950  35.9627070  80.0301350  65.0355320
  36.2648480  79.9919550  66.5184790  40.5714800  69.6301750  60.8896520
  40.1282950  70.4111290  60.5581040  41.1299790  69.9531640  61.5967460
  44.8584610  72.4970270  66.4931840  44.3963980  72.7053290  67.3051780
  44.4562720  71.6829620  66.1902510  49.8589120  73.7179220  67.6228500
  49.0082710  73.4184970  67.9437570  49.6990910  73.9621230  66.7112320
  46.9538830  75.2180970  69.7227290  47.2792240  74.3844720  69.3829520
  47.7419160  75.7409490  69.8705620  42.6090700  70.1749080  62.7486120
  42.9063030  71.0811910  62.6678140  43.1576260  69.6867860  62.1345690
  47.5926780  74.7598690  57.2168420  46.9935670  75.4834490  57.0332040
  48.1406390  74.6975470  56.4344870  42.8028230  75.6520900  69.2838040
  42.7071830  74.7115630  69.1338440  43.6460210  75.8735970  68.8886110
  46.1991650  73.3962230  59.2471700  46.5921220  73.7134430  58.4340390
  46.5608500  72.5174110  59.3616220  37.9338770  72.0634570  67.4371820
  37.5402160  72.9109780  67.6444600  37.2457170  71.4260940  67.6280460
  44.5083820  72.1469540  70.5068560  43.8182140  71.9541740  71.1414650
  45.2516120  72.4304180  71.0392860  35.2355820  69.9863030  61.4701900
  34.9468870  70.5565890  62.1826880  35.9801580  69.5067480  61.8333130
  35.4226050  73.9283150  52.6804620  35.3400720  74.8713910  52.8219610
  35.0709110  73.7858060  51.8016970  46.7846790  75.9867980  63.3422480
  46.0527910  76.4954790  63.6912580  46.3871130  75.1697960  63.0411260
  43.2224180  72.6622180  61.7474970  43.2260240  72.2212130  60.8979510
  44.1175300  72.9839510  61.8546790  43.2844330  73.6634260  54.7381730
  43.4057150  73.6220740  55.6867550  42.8992840  74.5258410  54.5828460
  47.2472700  71.4401660  62.7545420  47.2645440  71.8910310  63.5987270
  46.9988280  70.5407300  62.9678860  42.2965830  75.9735400  54.1365030
  41.7282730  75.5253650  53.5100940  43.0054830  76.3328180  53.6030180
  50.6743450  68.8533840  68.5931800  50.9989220  68.1223500  69.1189780
  50.7099960  68.5347480  67.6912790  37.3735010  79.8747420  68.0131760
  36.9889800  79.2341090  68.6114720  37.6847200  80.5783540  68.5826490
  43.5232150  76.7223960  63.4940380  43.8902280  76.2482530  64.2401720
  43.3337210  77.5965530  63.8348720  36.3872640  71.4667650  59.6233850
  36.1019560  71.1023320  60.4612470  36.3251500  70.7348110  59.0096990
  41.3131520  75.7632600  65.8124590  41.0088590  76.6424580  66.0374950
  42.2677980  75.8232390  65.8482030  39.8413310  79.9693590  56.4091440
  39.0675570  79.4291210  56.2490160  40.5707940  79.4500200  56.0709200
  50.6001290  78.9658950  62.2017830  51.3200410  79.4614240  61.8113940
  50.3983110  78.2876840  61.5571700  46.0611230  70.3596910  56.3447220
  45.2475840  69.8610080  56.2692530  45.8673180  71.1995160  55.9283570
  45.9820090  79.0368010  68.0886830  45.9157400  78.1163680  67.8344420
  45.3525230  79.1343450  68.8031470  48.7759620  74.7316560  54.6409380
  49.6639240  75.0433790  54.4660720  48.7464710  73.8588810  54.2489960
  39.8850710  79.6373970  60.0470250  40.4029380  78.8342230  59.9927140
  39.4334730  79.5753110  60.8887080  44.7720210  80.9040250  55.3197550
  45.1135910  81.6482480  54.8240870  43.9432920  81.2171370  55.6822380
  37.3695250  76.6035340  66.9595950  37.0110190  77.2689190  67.5469290
  37.0749810  75.7718890  67.3308570  40.5708370  77.0619580  69.8435500
  40.2708510  77.2076760  68.9463320  41.3419610  76.5024870  69.7508890
  45.9136820  81.8588580  67.8390630  45.9281360  80.9269540  67.6209540
  45.2061920  81.9448340  68.4780400  51.0473890  76.0428400  54.1089240
  50.9637610  76.4742620  53.2585680  51.7668080  76.5026750  54.5416060
  52.0761140  82.8970660  56.8371370  51.4337300  82.2426280  57.1115090
  51.6891800  83.3025750  56.0612040  47.6547620  80.2256090  60.6843060
  48.0071440  79.6284220  60.0244430  46.7709950  79.9000320  60.8551310
  43.7410900  80.9853780  58.0913470  44.4282030  81.5322990  58.4721060
  42.9543320  81.5294510  58.1263080  35.8803300  76.6026600  53.5830550
  36.7498150  76.8851400  53.8666470  35.3893620  77.4162470  53.4679360
  43.0438110  77.9899810  57.7038830  43.5000890  78.8005060  57.9299020
  42.6926320  77.6722950  58.5357320  45.3470720  83.5006150  64.9331130
  45.9912940  83.7065530  65.6104550  45.7100160  82.7394550  64.4801980
  46.6202800  81.5038500  63.6508580  47.2625030  80.8031660  63.7640750
  47.1452150  82.2836940  63.4705470  50.4658520  81.7887120  53.3747720
  50.2396100  81.0717560  53.9672360  50.0754720  81.5399560  52.5369470
  48.3940420  82.3033400  66.8544640  48.7296660  82.8900090  67.5322560
  47.4740760  82.1726110  67.0842430  36.2474550  85.8153980  54.1492180
  36.6072190  86.4143320  53.4949450  36.1066890  86.3613870  54.9227210
  35.9443820  70.0928580  67.6368050  35.2302340  70.2925500  68.2420660
  36.3638860  69.3168150  68.0082850  50.0474770  79.7059060  55.0361880
  49.7596470  80.1671750  55.8239760  50.8426940  79.2456830  55.3046100
  36.2316410  84.0808840  68.6234580  36.3407530  83.1403580  68.4829970
  35.5796970  84.3463590  67.9748310  44.2229000  82.3524730  70.0232700
  43.9025870  81.6333970  70.5678390  43.5487360  83.0279800  70.0968760
  42.2643170  83.1985180  54.9665850  42.2553270  83.9314870  54.3510360
  41.3441530  82.9516760  55.0592810  37.8649810  78.4200070  55.7112610
  37.2577760  79.1598970  55.7207910  38.3399160  78.5099430  54.8850810
  45.2502770  83.2613420  53.6291040  45.3514750  83.0577410  52.6993020
  44.3504510  83.0071700  53.8338820  44.3984590  75.2390480  65.6107470
  44.8969840  75.7136300  66.2759320  44.5407540  74.3154000  65.8177500
  46.8044090  70.5444440  59.0510730  46.6811870  70.5630570  58.1020240
  47.7528650  70.5923380  59.1709130  43.8920880  85.7799740  58.3238710
  44.1462380  85.7421130  57.4018080  42.9433360  85.6533070  58.3166960
  49.8973460  76.6991620  59.8997220  48.9563600  76.7141850  60.0744910
  50.2117530  75.9127580  60.3457520  39.8755100  78.3811220  53.4601180
  40.6418370  78.2692580  54.0226610  39.9529790  77.6849190  52.8077950
  51.8999040  83.8700470  61.5751480  52.0246460  84.6931640  62.0475290
  52.7664600  83.6591200  61.2275630  39.3716570  85.9631680  61.2468610
  40.1079050  85.4147140  61.5177180  39.7557490  86.8287690  61.1074600
  36.2562050  82.0305250  57.1210120  35.3301830  82.2726390  57.1115530
  36.7218480  82.8579510  56.9994870  38.3774850  85.1477750  70.4354190
  39.1787580  85.4689800  70.8489590  37.8626670  84.7873330  71.1574100
  42.4818880  85.1361990  53.0694180  43.2747490  85.4250820  52.6175970
  41.9623230  84.7054160  52.3906660  47.2139480  81.2557620  70.3829600
  46.6077640  81.2789220  69.6425350  46.9093590  80.5240660  70.9196850
  48.6439850  84.9837910  68.9939010  49.5961600  84.8995930  68.9439250
  48.4968070  85.6479620  69.6672800  51.5349050  84.3632120  54.4930920
  51.2490560  83.9497260  53.6785100  51.3368600  85.2919830  54.3731440
  36.0972660  77.6351210  69.3790240  36.6011680  77.0558490  69.9506470
  35.3580080  77.9191440  69.9166610  42.9996280  80.3565400  52.9336530
  42.8946920  79.7417750  53.6597910  42.8320500  79.8331290  52.1499540
  43.1510600  79.0422200  68.9125760  42.3856270  79.6107200  68.8280430
  43.3326560  78.7498410  68.0193990  46.2399010  79.4185430  53.5378520
  45.6909110  79.8654730  54.1821260  46.8618270  78.9134680  54.0616190
  50.2933950  80.7727530  69.4700780  51.0343420  81.1103290  68.9668240
  49.5306630  80.9419590  68.9170550  38.1295740  75.7780800  70.2740310
  38.1701080  75.4794670  71.1825540  38.9841240  76.1788410  70.1147830
  41.9074130  78.3776350  55.4343820  42.3290550  78.2116220  56.2775210
  42.0324970  77.5676580  54.9398960  40.0701550  74.3572900  68.2414800
  39.5398010  73.8663850  67.6138140  40.7389620  74.7857100  67.7072730
  44.4201770  77.4013960  52.6820920  44.9407430  76.6862980  52.3162070
  45.0670170  78.0399830  52.9821430  48.9679610  78.8242360  68.0055990
  49.3820630  78.9787440  68.8546410  48.0330610  78.9497580  68.1681770
  49.4401780  76.1638520  70.0095140  50.0222550  75.4090840  69.9215620
  49.6163550  76.6945960  69.2326620  40.5573850  71.3235270  68.3212090
  40.4630720  70.7056020  67.5962960  39.9771240  72.0501560  68.0942000
  43.7294840  78.7762840  65.9751920  44.1482950  79.6195570  65.8028160
  42.8103470  78.9134880  65.7458700  46.0658740  76.5079020  67.3589760
  46.1854950  75.9120160  68.0984600  46.9252740  76.5448710  66.9391060
  48.4046640  77.0616210  65.9352270  47.8781860  77.5858830  65.3317410
  48.7477980  77.6943600  66.5662000  40.8033030  74.4509580  52.3801980
  40.6022090  73.5876940  52.7415320  40.6325080  74.3642940  51.4423580
  41.5802260  85.0815850  67.0909650  41.0423350  85.8061910  66.7718350
  41.8336220  84.6046190  66.3006990  42.8327510  73.0500370  68.6165580
  43.4227200  72.7416220  69.3043400  42.0147750  72.5780120  68.7725480
  47.6520940  72.6666180  68.8498600  46.9636460  72.0047720  68.7848590
  48.3726960  72.2204450  69.2947060  48.2821340  69.2617810  54.9088860
  48.5623630  68.4185710  55.2648280  47.5087070  69.4940920  55.4227610
  39.6015830  71.5510200  52.3679860  39.9041730  71.5577630  51.4599010
  40.3410420  71.2008060  52.8647520  44.4364470  86.3167060  67.3496300
  44.3623170  87.2202200  67.6568670  43.5343310  85.9978960  67.3218370
  44.9849800  85.4825570  54.9722660  45.8800590  85.8210540  54.9941420
  45.0167430  84.7604980  54.3446940  38.6245960  80.8552620  53.2009660
  39.0620830  81.3982290  53.8567240  39.1093690  80.0299570  53.2106000
  35.8391760  83.6441650  60.6529920  36.1694770  82.7762710  60.4208560
  36.2682760  83.8500170  61.4834880  40.4353680  81.9750660  58.3131890
  40.1349220  81.8515630  59.2135800  40.3291170  81.1159250  57.9047620
  36.3281970  84.5112240  63.3911550  35.8912960  84.6913040  64.2235700
  36.8959650  85.2686860  63.2493270  51.9644150  84.0129240  67.6788860
  51.3646140  84.0721800  66.9352780  52.0938050  83.0734220  67.8085710
  53.2045600  81.7547060  53.0158570  52.3738560  81.8223710  53.4865800
  53.3817430  82.6451180  52.7125430  52.6602060  78.4994540  55.5192770
  53.4220970  79.0691190  55.6252460  52.6756430  77.9321740  56.2901080
  36.1606400  77.0232470  59.7500430  35.5055240  76.7544110  59.1060130
  36.9984350  76.9136950  59.3002410  53.6662030  79.3544640  60.3634700
  54.0370860  78.5711960  59.9570670  54.3063960  80.0433740  60.1852000
  52.7121230  78.7928910  52.6765290  52.9870070  79.7007790  52.5484510
  52.5231970  78.7291440  53.6127280  49.1096840  71.8173760  53.9718920
  49.5281720  71.6304740  53.1315580  48.8032900  70.9652810  54.2821850
  52.6086570  76.7297900  57.6694720  52.2330170  75.9625830  57.2376010
  51.8789690  77.1120600  58.1569650  37.1982330  77.4085040  64.2903770
  37.5655370  77.3212440  65.1699790  36.6293150  76.6451590  64.1910630
  51.9986190  75.8769420  67.3034240  51.7672280  75.6482170  66.4032190
  52.2590740  76.7968970  67.2579130  36.7498330  74.3194130  68.1962190
  35.8554380  74.2860890  68.5355900  37.2895880  74.5180920  68.9613440
  50.4374260  71.1025850  70.0813940  51.3144440  71.1109250  70.4647940
  50.4495100  70.3656690  69.4706290  51.8837530  74.9555390  60.9701960
  52.4075010  74.4618040  60.3392130  52.4696950  75.0905750  61.7149530
  52.0627250  75.0395260  64.4921510  51.1129960  75.0058800  64.6066500
  52.2440260  75.9495370  64.2571280  51.3737500  74.2128740  56.9094370
  51.8696620  73.9799610  57.6943250  51.1753570  73.3740580  56.4932010
  37.2538040  68.5942460  62.5445410  37.9014230  68.0439840  62.1040570
  37.6739880  68.8485610  63.3661220  50.7071840  85.4899820  59.3033290
  51.3030910  85.1684390  58.6267710  50.9649990  85.0171640  60.0946560
  37.0070040  68.7498130  65.2870730  36.6584860  69.2061950  66.0528910
  36.6757740  67.8555260  65.3693160  38.6134410  81.9217730  69.4523920
  38.5704040  81.5510640  70.3338380  38.7445420  82.8595300  69.5925740
  42.3140440  83.4777320  65.0533640  42.0731800  83.7451880  64.1664160
  43.2543080  83.6483050  65.1084500  53.5744600  85.4971700  65.8544280
  53.0802880  85.8940570  65.1371410  52.9657890  84.8720910  66.2481560
  37.6790680  68.2774330  68.5621500  38.2273670  68.0962380  67.7987610
  37.7445990  67.4868440  69.0977810  38.4522440  84.8679980  66.5721700
  37.8582760  84.7364680  67.3111740  38.4446280  84.0318120  66.1063800
  51.2584050  86.1395120  63.1331020  50.7987020  86.8910930  62.7589040
  50.6296510  85.4201590  63.0745820  38.0834670  82.2338360  65.5229740
  37.3568730  81.6143650  65.4555690  38.1443820  82.6278970  64.6527820
  41.6879770  84.4483360  62.3079150  42.2044790  83.8370720  61.7827410
  42.3377150  84.9512140  62.7990160  44.4275270  85.3391850  63.1348130
  44.7153080  85.0846150  62.2581140  44.9398490  84.7869210  63.7253700
  36.3664670  85.5512750  58.7326500  36.1986710  84.9183430  59.4308390
  35.4999180  85.7572150  58.3820690  43.5306500  71.4968800  59.2260670
  42.7181010  71.1225690  58.8856550  44.0348140  70.7413880  59.5281860
  37.9727370  84.2445980  56.1776640  37.4474990  84.6254010  55.4738600
  37.8971950  84.8696750  56.8986350  44.4947630  86.2607950  70.5016330
  45.4214940  86.0252220  70.5452290  44.4798060  87.0879950  70.0202360
  52.7292690  85.8033520  57.4990580  52.9044880  85.1171260  56.8551500
  52.0314260  86.3280570  57.1067250  41.6811240  68.9252700  70.2658210
  41.3995510  69.4286300  69.5019030  42.0630940  68.1274450  69.9000340
  40.5720340  86.1928360  55.0525890  41.3039160  85.9087640  54.5049780
  40.8314010  85.9541640  55.9425270  39.7335130  82.3093090  55.0572220
  39.1044010  82.7778190  55.6058050  39.8482960  81.4642310  55.4918410
  48.2826700  68.3406280  70.8438680  48.1692150  68.6600890  71.7390200
  49.0996440  68.7418790  70.5475960  51.0625190  85.4877810  70.3257370
  51.8550510  84.9927040  70.1183330  51.3558340  86.1667950  70.9332980
  47.1884850  76.3598750  41.2073420  47.1078900  75.4453360  40.9365130
  46.7749270  76.8565820  40.5013130  45.3202890  78.1377770  43.0882690
  44.5444990  77.6578210  43.3781260  45.9715820  77.4583420  42.9138850
  39.3368720  78.4497580  43.9658450  38.5053600  78.1946290  44.3654960
  39.9449700  78.5208350  44.7016370  49.3410320  82.5437960  41.8681820
  48.8791850  81.7725200  42.1968990  50.1535870  82.5704030  42.3734270
  39.3169980  82.4837670  44.1616470  39.6198020  81.5935410  43.9826690
  40.0613570  83.0407890  43.9338720  37.7460670  73.4099470  37.7500840
  36.8577370  73.7515440  37.6480720  38.0301860  73.2099790  36.8581670
  35.7093680  76.0105120  43.6340540  36.2809790  75.2427320  43.6344180
  35.7095220  76.3093880  42.7247150  45.5673630  84.8295970  41.4885810
  44.9485070  85.2853470  40.9180250  46.4225410  84.9847430  41.0875510
  44.7611880  80.8134960  43.0952850  44.6920160  79.8724900  42.9341980
  45.5231740  80.9036370  43.6675420  36.9518550  71.4189480  45.4209470
  36.7721390  70.5215230  45.7012230  36.5498630  71.9661350  46.0956420
  45.7917050  73.6205340  43.3221780  46.1681870  72.7477220  43.2095450
  45.6936560  73.9564040  42.4312220  39.9222060  71.9930970  38.7839220
  40.0288810  72.8934700  39.0907980  39.0114420  71.9448940  38.4933870
  49.5741170  71.1155780  40.2550120  50.3950790  70.6252350  40.2975600
  49.6075250  71.7053440  41.0081960  37.5705220  73.9149980  44.0291810
  38.2515330  74.1788350  44.6479210  37.2553270  73.0750850  44.3629820
  41.7629790  74.9617340  43.1164400  42.2708010  75.4598310  43.7569420
  42.2943030  74.1852540  42.9403760  53.8640720  73.1322530  46.8193750
  53.1592890  73.5204240  46.3008860  54.1298640  73.8272820  47.4214680
  40.0465890  69.6015900  47.3827820  40.0484330  70.1188290  46.5773720
  39.2170200  69.1246080  47.3597750  46.4336980  79.7135210  38.8817720
  45.8154250  80.1784660  38.3180440  46.9460230  80.4062690  39.2987230
  41.2968740  79.2411080  45.5601320  40.9638120  79.8680000  46.2022390
  41.4735420  79.7672960  44.7802990  49.8102650  73.0556160  43.0277660
  49.1058220  73.3441050  43.6080770  50.1714810  73.8656270  42.6677220
  39.7281220  71.3125860  45.3898270  40.0698030  72.1567910  45.0952140
  38.7897030  71.4609600  45.5063610  40.5087840  81.2091880  47.3750500
  41.1261840  81.8842960  47.0934950  39.6480960  81.6179860  47.2838000
  35.8020180  80.3991740  36.2557350  35.4248160  80.8878840  35.5242250
  36.0593250  81.0717020  36.8863880  51.4265430  82.6731290  45.2905140
  50.7428950  83.3430400  45.2821810  51.9659720  82.8711940  44.5250000
  52.8789570  72.5010950  43.4186870  51.9314480  72.5349930  43.5502300
  53.2039560  73.3149900  43.8036230  43.4109110  68.8008130  41.7142860
  43.7184090  68.2455020  40.9978360  42.4809810  68.9352590  41.5315850
  48.9624170  84.5175420  44.0050320  48.9751330  84.1137710  43.1372580
  48.4099390  85.2922710  43.9011750  50.2569590  81.2391640  39.0940490
  50.1465920  80.2965970  39.2189910  50.2537840  81.6007280  39.9803250
  48.3609610  79.4205260  45.3332930  48.7778400  79.2065370  44.4986390
  49.0849430  79.6778050  45.9041550  45.7989870  76.8656960  38.4502980
  44.8719150  76.7994340  38.6791450  45.9514690  77.8037090  38.3358220
  45.7858950  73.1373960  35.4470140  44.8462620  73.2987920  35.5322600
  46.1042210  73.8559640  34.9006130  52.3071710  77.8192480  45.4249170
  51.4790340  77.8885570  44.9499300  52.9022190  78.4046790  44.9565000
  49.8287160  78.4277260  38.9538230  49.2099580  78.0896810  38.3064530
  49.8111610  77.7837020  39.6617420  49.2713720  74.6061800  46.3704040
  48.8584900  75.4315510  46.6244030  48.5389670  74.0206840  46.1780400
  41.4046510  77.3921700  41.2322710  41.0003510  76.6798950  40.7368610
  41.4909630  77.0474940  42.1210750  41.8728210  81.0789260  43.3961920
  41.5756500  80.4734730  42.7169700  42.8228030  81.1166570  43.2851280
  40.1175130  74.1664910  45.0121750  40.6689720  74.2760250  44.2375000
  40.6318640  74.5402510  45.7276980  49.9613820  84.6521130  47.0585020
  49.4844380  85.4593320  46.8657630  49.2775610  83.9999460  47.2111230
  40.9646640  80.8170950  50.0469720  40.0675170  81.0410920  50.2943120
  40.9899510  80.9405890  49.0981120  48.0051860  77.6664070  35.9610980
  48.4445140  76.8286500  35.8148800  48.7180280  78.2993470  36.0475120
  39.7917860  77.6884270  48.6227090  39.6525630  78.5607070  48.9914490
  38.9099220  77.3457080  48.4775030  46.1147240  82.6060140  39.9292220
  46.5543150  83.3484470  39.5147610  46.0534130  82.8486710  40.8531180
  41.5898210  83.6305970  50.8312240  41.5613640  84.0348920  49.9640670
  41.4263180  82.7016330  50.6683840  51.5869000  68.9206880  34.2752020
  51.2741660  69.0133710  35.1751090  52.3481470  69.4987910  34.2249450
  38.1051140  76.2866680  38.7329360  37.9848740  77.0128770  38.1210630
  37.7952030  75.5169590  38.2557270  53.5413030  84.4133070  52.1276410
  54.0172750  84.8915960  52.8065490  54.1620190  84.3450560  51.4021910
  35.7436510  79.4581820  44.5398000  35.8216930  79.5930590  43.5953720
  36.3578190  78.7497710  44.7326120  36.9884140  81.1582010  40.9504180
  36.5812220  81.2996600  40.0957780  37.8797150  80.8742170  40.7475390
  52.9446280  81.6045920  49.2876420  53.0709340  81.3657800  48.3693600
  52.9867660  80.7730460  49.7598500  46.8063020  85.3073920  47.8571230
  47.3207690  85.2181930  48.6593660  45.9632100  85.6533620  48.1499140
  48.7817420  85.5929260  37.2855230  48.6218560  85.3032200  38.1837060
  48.6164130  84.8169390  36.7500460  41.2605800  85.3727790  39.0626850
  41.0848280  84.4563330  38.8494650  40.4061540  85.7315080  39.3024650
  48.4843550  83.1016820  35.8453230  47.7908710  83.0994110  35.1855510
  49.2266410  82.6776140  35.4147400  48.0493480  84.7279530  39.9201720
  48.5050430  83.9468910  40.2340340  48.3886000  85.4386350  40.4642900
  52.7970290  73.6578380  50.2526160  52.1814560  74.1658050  49.7241620
  52.4766710  72.7576710  50.1952100  35.7996030  80.4995990  47.0792460
  35.9627070  80.0301350  46.2611830  36.2648480  79.9919550  47.7441300
  40.5714800  69.6301750  42.1153030  40.1282950  70.4111290  41.7837550
  41.1299790  69.9531640  42.8223970  44.8584610  72.4970270  47.7188350
  44.3963980  72.7053290  48.5308290  44.4562720  71.6829620  47.4159020
  49.8589120  73.7179220  48.8485010  49.0082710  73.4184970  49.1694080
  49.6990910  73.9621230  47.9368830  46.9538830  75.2180970  50.9483800
  47.2792240  74.3844720  50.6086030  47.7419160  75.7409490  51.0962130
  43.6873620  69.2512450  36.9958860  43.0627800  69.2472320  37.7212170
  43.6003740  68.3843410  36.5994830  42.6090700  70.1749080  43.9742630
  42.9063030  71.0811910  43.8934650  43.1576260  69.6867860  43.3602200
  40.3629020  74.7535320  39.8434280  40.1369940  74.5372490  40.7480900
  39.5821550  75.1863780  39.4980250  47.5926780  74.7598690  38.4424930
  46.9935670  75.4834490  38.2588550  48.1406390  74.6975470  37.6601380
  42.8028230  75.6520900  50.5094550  42.7071830  74.7115630  50.3594950
  43.6460210  75.8735970  50.1142620  46.1991650  73.3962230  40.4728210
  46.5921220  73.7134430  39.6596900  46.5608500  72.5174110  40.5872730
  37.9338770  72.0634570  48.6628330  37.5402160  72.9109780  48.8701110
  37.2457170  71.4260940  48.8536970  35.2355820  69.9863030  42.6958410
  34.9468870  70.5565890  43.4083390  35.9801580  69.5067480  43.0589640
  35.4226050  73.9283150  33.9061130  35.3400720  74.8713910  34.0476120
  35.0709110  73.7858060  33.0273480  46.7846790  75.9867980  44.5678990
  46.0527910  76.4954790  44.9169090  46.3871130  75.1697960  44.2667770
  43.2224180  72.6622180  42.9731480  43.2260240  72.2212130  42.1236020
  44.1175300  72.9839510  43.0803300  39.0726560  72.5448670  41.9325690
  38.7326610  73.0223900  42.6892740  38.3103880  72.0913790  41.5726790
  43.2844330  73.6634260  35.9638240  43.4057150  73.6220740  36.9124060
  42.8992840  74.5258410  35.8084970  47.2472700  71.4401660  43.9801930
  47.2645440  71.8910310  44.8243780  46.9988280  70.5407300  44.1935370
  42.2965830  75.9735400  35.3621540  41.7282730  75.5253650  34.7357450
  43.0054830  76.3328180  34.8286690  37.3735010  79.8747420  49.2388270
  36.9889800  79.2341090  49.8371230  37.6847200  80.5783540  49.8083000
  43.5232150  76.7223960  44.7196890  43.8902280  76.2482530  45.4658230
  43.3337210  77.5965530  45.0605230  36.3872640  71.4667650  40.8490360
  36.1019560  71.1023320  41.6868980  36.3251500  70.7348110  40.2353500
  41.3131520  75.7632600  47.0381100  41.0088590  76.6424580  47.2631460
  42.2677980  75.8232390  47.0738540  39.8413310  79.9693590  37.6347950
  39.0675570  79.4291210  37.4746670  40.5707940  79.4500200  37.2965710
  50.6001290  78.9658950  43.4274340  51.3200410  79.4614240  43.0370450
  50.3983110  78.2876840  42.7828210  46.0611230  70.3596910  37.5703730
  45.2475840  69.8610080  37.4949040  45.8673180  71.1995160  37.1540080
  45.9820090  79.0368010  49.3143340  45.9157400  78.1163680  49.0600930
  45.3525230  79.1343450  50.0287980  48.7759620  74.7316560  35.8665890
  49.6639240  75.0433790  35.6917230  48.7464710  73.8588810  35.4746470
  39.8850710  79.6373970  41.2726760  40.4029380  78.8342230  41.2183650
  39.4334730  79.5753110  42.1143590  44.7720210  80.9040250  36.5454060
  45.1135910  81.6482480  36.0497380  43.9432920  81.2171370  36.9078890
  37.3695250  76.6035340  48.1852460  37.0110190  77.2689190  48.7725800
  37.0749810  75.7718890  48.5565080  40.5708370  77.0619580  51.0692010
  40.2708510  77.2076760  50.1719830  41.3419610  76.5024870  50.9765400
  45.9136820  81.8588580  49.0647140  45.9281360  80.9269540  48.8466050
  45.2061920  81.9448340  49.7036910  51.0473890  76.0428400  35.3345750
  50.9637610  76.4742620  34.4842190  51.7668080  76.5026750  35.7672570
  52.1248030  78.4995920  48.4115720  51.3996220  79.0924700  48.2145110
  52.6523490  78.4919460  47.6129090  52.0761140  82.8970660  38.0627880
  51.4337300  82.2426280  38.3371600  51.6891800  83.3025750  37.2868550
  47.6547620  80.2256090  41.9099570  48.0071440  79.6284220  41.2500940
  46.7709950  79.9000320  42.0807820  43.7410900  80.9853780  39.3169980
  44.4282030  81.5322990  39.6977570  42.9543320  81.5294510  39.3519590
  35.8803300  76.6026600  34.8087060  36.7498150  76.8851400  35.0922980
  35.3893620  77.4162470  34.6935870  43.0438110  77.9899810  38.9295340
  43.5000890  78.8005060  39.1555530  42.6926320  77.6722950  39.7613830
  45.3470720  83.5006150  46.1587640  45.9912940  83.7065530  46.8361060
  45.7100160  82.7394550  45.7058490  38.9449890  68.3337460  39.4017860
  38.8164520  68.3255360  40.3502780  38.1211910  68.6720550  39.0508870
  46.6202800  81.5038500  44.8765090  47.2625030  80.8031660  44.9897260
  47.1452150  82.2836940  44.6961980  50.4658520  81.7887120  34.6004230
  50.2396100  81.0717560  35.1928870  50.0754720  81.5399560  33.7625980
  48.3940420  82.3033400  48.0801150  48.7296660  82.8900090  48.7579070
  47.4740760  82.1726110  48.3098940  36.2474550  85.8153980  35.3748690
  36.6072190  86.4143320  34.7205960  36.1066890  86.3613870  36.1483720
  35.9443820  70.0928580  48.8624560  35.2302340  70.2925500  49.4677170
  36.3638860  69.3168150  49.2339360  50.0474770  79.7059060  36.2618390
  49.7596470  80.1671750  37.0496270  50.8426940  79.2456830  36.5302610
  36.2316410  84.0808840  49.8491090  36.3407530  83.1403580  49.7086480
  35.5796970  84.3463590  49.2004820  44.2229000  82.3524730  51.2489210
  43.9025870  81.6333970  51.7934900  43.5487360  83.0279800  51.3225270
  42.2643170  83.1985180  36.1922360  42.2553270  83.9314870  35.5766870
  41.3441530  82.9516760  36.2849320  37.8649810  78.4200070  36.9369120
  37.2577760  79.1598970  36.9464420  38.3399160  78.5099430  36.1107320
  47.4382600  72.5850890  46.6126010  47.8063420  71.7646100  46.9405580
  46.5780800  72.6452780  47.0281660  50.8044630  71.5407830  37.4213570
  50.1757790  71.6453500  36.7071800  50.3096550  71.7604610  38.2107450
  45.2502770  83.2613420  34.8547550  45.3514750  83.0577410  33.9249530
  44.3504510  83.0071700  35.0595330  42.7728660  73.8193780  38.8371450
  42.0644810  74.2880120  39.2785060  43.0573140  73.1615790  39.4716640
  44.3984590  75.2390480  46.8363980  44.8969840  75.7136300  47.5015830
  44.5407540  74.3154000  47.0434010  46.8044090  70.5444440  40.2767240
  46.6811870  70.5630570  39.3276750  47.7528650  70.5923380  40.3965640
  43.8920880  85.7799740  39.5495220  44.1462380  85.7421130  38.6274590
  42.9433360  85.6533070  39.5423470  40.9763680  72.1278860  36.2122160
  41.8254210  72.5649010  36.1462350  40.6094950  72.4399120  37.0394220
  51.6051450  71.4558440  47.6792370  51.1025050  72.1963840  48.0186180
  52.4208110  71.8442440  47.3629160  49.8973460  76.6991620  41.1253730
  48.9563600  76.7141850  41.3001420  50.2117530  75.9127580  41.5714030
  39.8755100  78.3811220  34.6857690  40.6418370  78.2692580  35.2483120
  39.9529790  77.6849190  34.0334460  38.5701860  75.8136290  35.3690580
  38.6505450  74.8663800  35.4807980  39.4621610  76.1443170  35.4751240
  51.8999040  83.8700470  42.8007990  52.0246460  84.6931640  43.2731800
  52.7664600  83.6591200  42.4532140  39.3716570  85.9631680  42.4725120
  40.1079050  85.4147140  42.7433690  39.7557490  86.8287690  42.3331110
  36.2562050  82.0305250  38.3466630  35.3301830  82.2726390  38.3372040
  36.7218480  82.8579510  38.2251380  38.3774850  85.1477750  51.6610700
  39.1787580  85.4689800  52.0746100  37.8626670  84.7873330  52.3830610
  42.4818880  85.1361990  34.2950690  43.2747490  85.4250820  33.8432480
  41.9623230  84.7054160  33.6163170  47.2139480  81.2557620  51.6086110
  46.6077640  81.2789220  50.8681860  46.9093590  80.5240660  52.1453360
  48.6439850  84.9837910  50.2195520  49.5961600  84.8995930  50.1695760
  48.4968070  85.6479620  50.8929310  51.5349050  84.3632120  35.7187430
  51.2490560  83.9497260  34.9041610  51.3368600  85.2919830  35.5987950
  36.0972660  77.6351210  50.6046750  36.6011680  77.0558490  51.1762980
  35.3580080  77.9191440  51.1423120  42.9996280  80.3565400  34.1593040
  42.8946920  79.7417750  34.8854420  42.8320500  79.8331290  33.3756050
  43.1510600  79.0422200  50.1382270  42.3856270  79.6107200  50.0536940
  43.3326560  78.7498410  49.2450500  46.2399010  79.4185430  34.7635030
  45.6909110  79.8654730  35.4077770  46.8618270  78.9134680  35.2872700
  50.2933950  80.7727530  50.6957290  51.0343420  81.1103290  50.1924750
  49.5306630  80.9419590  50.1427060  38.1295740  75.7780800  51.4996820
  38.1701080  75.4794670  52.4082050  38.9841240  76.1788410  51.3404340
  41.9074130  78.3776350  36.6600330  42.3290550  78.2116220  37.5031720
  42.0324970  77.5676580  36.1655470  40.0701550  74.3572900  49.4671310
  39.5398010  73.8663850  48.8394650  40.7389620  74.7857100  48.9329240
  44.4201770  77.4013960  33.9077430  44.9407430  76.6862980  33.5418580
  45.0670170  78.0399830  34.2077940  48.9679610  78.8242360  49.2312500
  49.3820630  78.9787440  50.0802920  48.0330610  78.9497580  49.3938280
  49.4401780  76.1638520  51.2351650  50.0222550  75.4090840  51.1472130
  49.6163550  76.6945960  50.4583130  43.3235290  69.8808510  46.5795990
  42.8752590  69.9032770  45.7341540  42.6900490  69.4827530  47.1766290
  43.7294840  78.7762840  47.2008430  44.1482950  79.6195570  47.0284670
  42.8103470  78.9134880  46.9715210  46.0658740  76.5079020  48.5846270
  46.1854950  75.9120160  49.3241110  46.9252740  76.5448710  48.1647570
  48.4046640  77.0616210  47.1608780  47.8781860  77.5858830  46.5573920
  48.7477980  77.6943600  47.7918510  40.8033030  74.4509580  33.6058490
  40.6022090  73.5876940  33.9671830  40.6325080  74.3642940  32.6680090
  41.5802260  85.0815850  48.3166160  41.0423350  85.8061910  47.9974860
  41.8336220  84.6046190  47.5263500  42.8327510  73.0500370  49.8422090
  43.4227200  72.7416220  50.5299910  42.0147750  72.5780120  49.9981990
  47.6520940  72.6666180  50.0755110  46.9636460  72.0047720  50.0105100
  48.3726960  72.2204450  50.5203570  48.2821340  69.2617810  36.1345370
  48.5623630  68.4185710  36.4904790  47.5087070  69.4940920  36.6484120
  39.6015830  71.5510200  33.5936370  39.9041730  71.5577630  32.6855520
  40.3410420  71.2008060  34.0904030  44.4364470  86.3167060  48.5752810
  44.3623170  87.2202200  48.8825180  43.5343310  85.9978960  48.5474880
  42.8200760  70.4944820  34.5792570  42.4722760  69.8168810  33.9995020
  43.0213530  70.0334330  35.3935960  44.9849800  85.4825570  36.1979170
  45.8800590  85.8210540  36.2197930  45.0167430  84.7604980  35.5703450
  38.6245960  80.8552620  34.4266170  39.0620830  81.3982290  35.0823750
  39.1093690  80.0299570  34.4362510  35.8391760  83.6441650  41.8786430
  36.1694770  82.7762710  41.6465070  36.2682760  83.8500170  42.7091390
  40.4353680  81.9750660  39.5388400  40.1349220  81.8515630  40.4392310
  40.3291170  81.1159250  39.1304130  36.3281970  84.5112240  44.6168060
  35.8912960  84.6913040  45.4492210  36.8959650  85.2686860  44.4749780
  51.9644150  84.0129240  48.9045370  51.3646140  84.0721800  48.1609290
  52.0938050  83.0734220  49.0342220  53.2045600  81.7547060  34.2415080
  52.3738560  81.8223710  34.7122310  53.3817430  82.6451180  33.9381940
  52.6602060  78.4994540  36.7449280  53.4220970  79.0691190  36.8508970
  52.6756430  77.9321740  37.5157590  36.1606400  77.0232470  40.9756940
  35.5055240  76.7544110  40.3316640  36.9984350  76.9136950  40.5258920
  53.6662030  79.3544640  41.5891210  54.0370860  78.5711960  41.1827180
  54.3063960  80.0433740  41.4108510  50.6495790  80.7381220  47.0021530
  49.8355630  81.1678380  47.2647320  51.0569990  81.3499630  46.3890580
  52.7121230  78.7928910  33.9021800  52.9870070  79.7007790  33.7741020
  52.5231970  78.7291440  34.8383790  49.1096840  71.8173760  35.1975430
  49.5281720  71.6304740  34.3572090  48.8032900  70.9652810  35.5078360
  52.6086570  76.7297900  38.8951230  52.2330170  75.9625830  38.4632520
  51.8789690  77.1120600  39.3826160  37.1982330  77.4085040  45.5160280
  37.5655370  77.3212440  46.3956300  36.6293150  76.6451590  45.4167140
  51.9986190  75.8769420  48.5290750  51.7672280  75.6482170  47.6288700
  52.2590740  76.7968970  48.4835640  36.7498330  74.3194130  49.4218700
  35.8554380  74.2860890  49.7612410  37.2895880  74.5180920  50.1869950
  35.3744480  74.2331400  36.9182270  34.4708560  74.4961600  36.7433930
  35.8585100  74.5042570  36.1382230  51.8837530  74.9555390  42.1958470
  52.4075010  74.4618040  41.5648640  52.4696950  75.0905750  42.9406040
  52.0627250  75.0395260  45.7178020  51.1129960  75.0058800  45.8323010
  52.2440260  75.9495370  45.4827790  37.9171690  73.2896940  34.8276650
  38.6263390  72.8680160  34.3423930  37.2011630  73.3572170  34.1960000
  37.5645850  69.3436270  33.8679300  38.2873980  69.8845210  34.1860520
  37.8370370  69.0699690  32.9920840  51.3737500  74.2128740  38.1350880
  51.8696620  73.9799610  38.9199760  51.1753570  73.3740580  37.7188520
  37.2538040  68.5942460  43.7701920  37.9014230  68.0439840  43.3297080
  37.6739880  68.8485610  44.5917730  52.8024660  72.8489690  40.6688560
  52.6923940  72.6945730  41.6070830  53.5632250  72.3210630  40.4263970
  53.6914930  70.6797610  33.9094700  54.6164240  70.5478790  33.7012990
  53.6690720  70.7590430  34.8631150  53.7653420  71.4508270  36.5351410
  52.9704920  71.3853390  37.0644320  53.9696700  72.3858910  36.5236760
  50.7071840  85.4899820  40.5289800  51.3030910  85.1684390  39.8524220
  50.9649990  85.0171640  41.3203070  37.0070040  68.7498130  46.5127240
  36.6584860  69.2061950  47.2785420  36.6757740  67.8555260  46.5949670
  38.6134410  81.9217730  50.6780430  38.5704040  81.5510640  51.5594890
  38.7445420  82.8595300  50.8182250  42.3140440  83.4777320  46.2790150
  42.0731800  83.7451880  45.3920670  43.2543080  83.6483050  46.3341010
  53.5744600  85.4971700  47.0800790  53.0802880  85.8940570  46.3627920
  52.9657890  84.8720910  47.4738070  37.6790680  68.2774330  49.7878010
  38.2273670  68.0962380  49.0244120  37.7445990  67.4868440  50.3234320
  38.4522440  84.8679980  47.7978210  37.8582760  84.7364680  48.5368250
  38.4446280  84.0318120  47.3320310  51.2584050  86.1395120  44.3587530
  50.7987020  86.8910930  43.9845550  50.6296510  85.4201590  44.3002330
  38.0834670  82.2338360  46.7486250  37.3568730  81.6143650  46.6812200
  38.1443820  82.6278970  45.8784330  41.6879770  84.4483360  43.5335660
  42.2044790  83.8370720  43.0083920  42.3377150  84.9512140  44.0246670
  44.4275270  85.3391850  44.3604640  44.7153080  85.0846150  43.4837650
  44.9398490  84.7869210  44.9510210  45.6452280  69.0782050  44.9401150
  44.8624070  69.5527550  45.2197910  45.3515210  68.1736880  44.8314330
  36.3664670  85.5512750  39.9583010  36.1986710  84.9183430  40.6564900
  35.4999180  85.7572150  39.6077200  36.9892690  69.3829530  37.4614870
  37.7472050  69.4958410  36.8878900  36.5269860  70.2198730  37.4158300
  43.5306500  71.4968800  40.4517180  42.7181010  71.1225690  40.1113060
  44.0348140  70.7413880  40.7538370  51.1766080  68.5632810  36.9640530
  51.3716710  69.4616260  37.2307960  50.3895950  68.3319890  37.4573480
  37.9727370  84.2445980  37.4033150  37.4474990  84.6254010  36.6995110
  37.8971950  84.8696750  38.1242860  39.3617840  69.9093580  36.0016840
  39.8910600  69.1223380  35.8724790  39.9946160  70.5884770  36.2352370
  41.5555680  69.6468720  39.0562230  40.9258420  68.9456030  39.2232360
  41.0160820  70.4072850  38.8395390  44.4947630  86.2607950  51.7272840
  45.4214940  86.0252220  51.7708800  44.4798060  87.0879950  51.2458870
  52.7292690  85.8033520  38.7247090  52.9044880  85.1171260  38.0808010
  52.0314260  86.3280570  38.3323760  40.5720340  86.1928360  36.2782400
  41.3039160  85.9087640  35.7306290  40.8314010  85.9541640  37.1681780
  39.7335130  82.3093090  36.2828730  39.1044010  82.7778190  36.8314560
  39.8482960  81.4642310  36.7174920  51.0625190  85.4877810  51.5513880
  51.8550510  84.9927040  51.3439840  51.3558340  86.1667950  52.1589490
  47.1884850  76.3598750  22.4329930  47.1078900  75.4453360  22.1621640
  46.7749270  76.8565820  21.7269640  45.3202890  78.1377770  24.3139200
  44.5444990  77.6578210  24.6037770  45.9715820  77.4583420  24.1395360
  39.3368720  78.4497580  25.1914960  38.5053600  78.1946290  25.5911470
  39.9449700  78.5208350  25.9272880  49.3410320  82.5437960  23.0938330
  48.8791850  81.7725200  23.4225500  50.1535870  82.5704030  23.5990780
  39.3169980  82.4837670  25.3872980  39.6198020  81.5935410  25.2083200
  40.0613570  83.0407890  25.1595230  37.7460670  73.4099470  18.9757350
  36.8577370  73.7515440  18.8737230  38.0301860  73.2099790  18.0838180
  35.7093680  76.0105120  24.8597050  36.2809790  75.2427320  24.8600690
  35.7095220  76.3093880  23.9503660  45.5673630  84.8295970  22.7142320
  44.9485070  85.2853470  22.1436760  46.4225410  84.9847430  22.3132020
  44.7611880  80.8134960  24.3209360  44.6920160  79.8724900  24.1598490
  45.5231740  80.9036370  24.8931930  36.9518550  71.4189480  26.6465980
  36.7721390  70.5215230  26.9268740  36.5498630  71.9661350  27.3212930
  45.7917050  73.6205340  24.5478290  46.1681870  72.7477220  24.4351960
  45.6936560  73.9564040  23.6568730  39.9222060  71.9930970  20.0095730
  40.0288810  72.8934700  20.3164490  39.0114420  71.9448940  19.7190380
  49.5741170  71.1155780  21.4806630  50.3950790  70.6252350  21.5232110
  49.6075250  71.7053440  22.2338470  37.5705220  73.9149980  25.2548320
  38.2515330  74.1788350  25.8735720  37.2553270  73.0750850  25.5886330
  41.7629790  74.9617340  24.3420910  42.2708010  75.4598310  24.9825930
  42.2943030  74.1852540  24.1660270  40.0465890  69.6015900  28.6084330
  40.0484330  70.1188290  27.8030230  39.2170200  69.1246080  28.5854260
  46.4336980  79.7135210  20.1074230  45.8154250  80.1784660  19.5436950
  46.9460230  80.4062690  20.5243740  41.2968740  79.2411080  26.7857830
  40.9638120  79.8680000  27.4278900  41.4735420  79.7672960  26.0059500
  49.8102650  73.0556160  24.2534170  49.1058220  73.3441050  24.8337280
  50.1714810  73.8656270  23.8933730  39.7281220  71.3125860  26.6154780
  40.0698030  72.1567910  26.3208650  38.7897030  71.4609600  26.7320120
  40.5087840  81.2091880  28.6007010  41.1261840  81.8842960  28.3191460
  39.6480960  81.6179860  28.5094510  35.8020180  80.3991740  17.4813860
  35.4248160  80.8878840  16.7498760  36.0593250  81.0717020  18.1120390
  51.4265430  82.6731290  26.5161650  50.7428950  83.3430400  26.5078320
  51.9659720  82.8711940  25.7506510  43.4109110  68.8008130  22.9399370
  43.7184090  68.2455020  22.2234870  42.4809810  68.9352590  22.7572360
  48.9624170  84.5175420  25.2306830  48.9751330  84.1137710  24.3629090
  48.4099390  85.2922710  25.1268260  50.2569590  81.2391640  20.3197000
  50.1465920  80.2965970  20.4446420  50.2537840  81.6007280  21.2059760
  48.3609610  79.4205260  26.5589440  48.7778400  79.2065370  25.7242900
  49.0849430  79.6778050  27.1298060  45.7989870  76.8656960  19.6759490
  44.8719150  76.7994340  19.9047960  45.9514690  77.8037090  19.5614730
  45.7858950  73.1373960  16.6726650  44.8462620  73.2987920  16.7579110
  46.1042210  73.8559640  16.1262640  52.3071710  77.8192480  26.6505680
  51.4790340  77.8885570  26.1755810  52.9022190  78.4046790  26.1821510
  49.8287160  78.4277260  20.1794740  49.2099580  78.0896810  19.5321040
  49.8111610  77.7837020  20.8873930  41.4046510  77.3921700  22.4579220
  41.0003510  76.6798950  21.9625120  41.4909630  77.0474940  23.3467260
  41.8728210  81.0789260  24.6218430  41.5756500  80.4734730  23.9426210
  42.8228030  81.1166570  24.5107790  40.1175130  74.1664910  26.2378260
  40.6689720  74.2760250  25.4631510  40.6318640  74.5402510  26.9533490
  49.9613820  84.6521130  28.2841530  49.4844380  85.4593320  28.0914140
  49.2775610  83.9999460  28.4367740  40.9646640  80.8170950  31.2726230
  40.0675170  81.0410920  31.5199630  40.9899510  80.9405890  30.3237630
  48.0051860  77.6664070  17.1867490  48.4445140  76.8286500  17.0405310
  48.7180280  78.2993470  17.2731630  39.7917860  77.6884270  29.8483600
  39.6525630  78.5607070  30.2171000  38.9099220  77.3457080  29.7031540
  46.1147240  82.6060140  21.1548730  46.5543150  83.3484470  20.7404120
  46.0534130  82.8486710  22.0787690  41.5898210  83.6305970  32.0568750
  41.5613640  84.0348920  31.1897180  41.4263180  82.7016330  31.8940350
  51.5869000  68.9206880  15.5008530  51.2741660  69.0133710  16.4007600
  52.3481470  69.4987910  15.4505960  38.1051140  76.2866680  19.9585870
  37.9848740  77.0128770  19.3467140  37.7952030  75.5169590  19.4813780
  53.5413030  84.4133070  33.3532920  54.0172750  84.8915960  34.0322000
  54.1620190  84.3450560  32.6278420  35.7436510  79.4581820  25.7654510
  35.8216930  79.5930590  24.8210230  36.3578190  78.7497710  25.9582630
  36.9884140  81.1582010  22.1760690  36.5812220  81.2996600  21.3214290
  37.8797150  80.8742170  21.9731900  52.9446280  81.6045920  30.5132930
  53.0709340  81.3657800  29.5950110  52.9867660  80.7730460  30.9855010
  46.8063020  85.3073920  29.0827740  47.3207690  85.2181930  29.8850170
  45.9632100  85.6533620  29.3755650  48.7817420  85.5929260  18.5111740
  48.6218560  85.3032200  19.4093570  48.6164130  84.8169390  17.9756970
  41.2605800  85.3727790  20.2883360  41.0848280  84.4563330  20.0751160
  40.4061540  85.7315080  20.5281160  48.4843550  83.1016820  17.0709740
  47.7908710  83.0994110  16.4112020  49.2266410  82.6776140  16.6403910
  48.0493480  84.7279530  21.1458230  48.5050430  83.9468910  21.4596850
  48.3886000  85.4386350  21.6899410  35.7996030  80.4995990  28.3048970
  35.9627070  80.0301350  27.4868340  36.2648480  79.9919550  28.9697810
  40.5714800  69.6301750  23.3409540  40.1282950  70.4111290  23.0094060
  41.1299790  69.9531640  24.0480480  44.8584610  72.4970270  28.9444860
  44.3963980  72.7053290  29.7564800  44.4562720  71.6829620  28.6415530
  46.9538830  75.2180970  32.1740310  47.2792240  74.3844720  31.8342540
  47.7419160  75.7409490  32.3218640  43.6873620  69.2512450  18.2215370
  43.0627800  69.2472320  18.9468680  43.6003740  68.3843410  17.8251340
  42.6090700  70.1749080  25.1999140  42.9063030  71.0811910  25.1191160
  43.1576260  69.6867860  24.5858710  40.3629020  74.7535320  21.0690790
  40.1369940  74.5372490  21.9737410  39.5821550  75.1863780  20.7236760
  47.5926780  74.7598690  19.6681440  46.9935670  75.4834490  19.4845060
  48.1406390  74.6975470  18.8857890  42.8028230  75.6520900  31.7351060
  42.7071830  74.7115630  31.5851460  43.6460210  75.8735970  31.3399130
  46.1991650  73.3962230  21.6984720  46.5921220  73.7134430  20.8853410
  46.5608500  72.5174110  21.8129240  37.9338770  72.0634570  29.8884840
  37.5402160  72.9109780  30.0957620  37.2457170  71.4260940  30.0793480
  44.5083820  72.1469540  32.9581580  43.8182140  71.9541740  33.5927670
  45.2516120  72.4304180  33.4905880  35.2355820  69.9863030  23.9214920
  34.9468870  70.5565890  24.6339900  35.9801580  69.5067480  24.2846150
  35.4226050  73.9283150  15.1317640  35.3400720  74.8713910  15.2732630
  35.0709110  73.7858060  14.2529990  46.7846790  75.9867980  25.7935500
  46.0527910  76.4954790  26.1425600  46.3871130  75.1697960  25.4924280
  43.2224180  72.6622180  24.1987990  43.2260240  72.2212130  23.3492530
  44.1175300  72.9839510  24.3059810  39.0726560  72.5448670  23.1582200
  38.7326610  73.0223900  23.9149250  38.3103880  72.0913790  22.7983300
  43.2844330  73.6634260  17.1894750  43.4057150  73.6220740  18.1380570
  42.8992840  74.5258410  17.0341480  47.2472700  71.4401660  25.2058440
  47.2645440  71.8910310  26.0500290  46.9988280  70.5407300  25.4191880
  42.2965830  75.9735400  16.5878050  41.7282730  75.5253650  15.9613960
  43.0054830  76.3328180  16.0543200  50.6743450  68.8533840  31.0444820
  50.9989220  68.1223500  31.5702800  50.7099960  68.5347480  30.1425810
  37.3735010  79.8747420  30.4644780  36.9889800  79.2341090  31.0627740
  37.6847200  80.5783540  31.0339510  43.5232150  76.7223960  25.9453400
  43.8902280  76.2482530  26.6914740  43.3337210  77.5965530  26.2861740
  36.3872640  71.4667650  22.0746870  36.1019560  71.1023320  22.9125490
  36.3251500  70.7348110  21.4610010  41.3131520  75.7632600  28.2637610
  41.0088590  76.6424580  28.4887970  42.2677980  75.8232390  28.2995050
  39.8413310  79.9693590  18.8604460  39.0675570  79.4291210  18.7003180
  40.5707940  79.4500200  18.5222220  50.6001290  78.9658950  24.6530850
  51.3200410  79.4614240  24.2626960  50.3983110  78.2876840  24.0084720
  46.0611230  70.3596910  18.7960240  45.2475840  69.8610080  18.7205550
  45.8673180  71.1995160  18.3796590  45.9820090  79.0368010  30.5399850
  45.9157400  78.1163680  30.2857440  45.3525230  79.1343450  31.2544490
  48.7759620  74.7316560  17.0922400  49.6639240  75.0433790  16.9173740
  48.7464710  73.8588810  16.7002980  39.8850710  79.6373970  22.4983270
  40.4029380  78.8342230  22.4440160  39.4334730  79.5753110  23.3400100
  44.7720210  80.9040250  17.7710570  45.1135910  81.6482480  17.2753890
  43.9432920  81.2171370  18.1335400  37.3695250  76.6035340  29.4108970
  37.0110190  77.2689190  29.9982310  37.0749810  75.7718890  29.7821590
  40.5708370  77.0619580  32.2948520  40.2708510  77.2076760  31.3976340
  41.3419610  76.5024870  32.2021910  45.9136820  81.8588580  30.2903650
  45.9281360  80.9269540  30.0722560  45.2061920  81.9448340  30.9293420
  51.0473890  76.0428400  16.5602260  50.9637610  76.4742620  15.7098700
  51.7668080  76.5026750  16.9929080  52.1248030  78.4995920  29.6372230
  51.3996220  79.0924700  29.4401620  52.6523490  78.4919460  28.8385600
  52.0761140  82.8970660  19.2884390  51.4337300  82.2426280  19.5628110
  51.6891800  83.3025750  18.5125060  47.6547620  80.2256090  23.1356080
  48.0071440  79.6284220  22.4757450  46.7709950  79.9000320  23.3064330
  43.7410900  80.9853780  20.5426490  44.4282030  81.5322990  20.9234080
  42.9543320  81.5294510  20.5776100  35.8803300  76.6026600  16.0343570
  36.7498150  76.8851400  16.3179490  35.3893620  77.4162470  15.9192380
  43.0438110  77.9899810  20.1551850  43.5000890  78.8005060  20.3812040
  42.6926320  77.6722950  20.9870340  45.3470720  83.5006150  27.3844150
  45.9912940  83.7065530  28.0617570  45.7100160  82.7394550  26.9315000
  38.9449890  68.3337460  20.6274370  38.8164520  68.3255360  21.5759290
  38.1211910  68.6720550  20.2765380  46.6202800  81.5038500  26.1021600
  47.2625030  80.8031660  26.2153770  47.1452150  82.2836940  25.9218490
  50.4658520  81.7887120  15.8260740  50.2396100  81.0717560  16.4185380
  50.0754720  81.5399560  14.9882490  48.3940420  82.3033400  29.3057660
  48.7296660  82.8900090  29.9835580  47.4740760  82.1726110  29.5355450
  36.2474550  85.8153980  16.6005200  36.6072190  86.4143320  15.9462470
  36.1066890  86.3613870  17.3740230  35.9443820  70.0928580  30.0881070
  35.2302340  70.2925500  30.6933680  36.3638860  69.3168150  30.4595870
  50.0474770  79.7059060  17.4874900  49.7596470  80.1671750  18.2752780
  50.8426940  79.2456830  17.7559120  36.2316410  84.0808840  31.0747600
  36.3407530  83.1403580  30.9342990  35.5796970  84.3463590  30.4261330
  44.2229000  82.3524730  32.4745720  43.9025870  81.6333970  33.0191410
  43.5487360  83.0279800  32.5481780  42.2643170  83.1985180  17.4178870
  42.2553270  83.9314870  16.8023380  41.3441530  82.9516760  17.5105830
  37.8649810  78.4200070  18.1625630  37.2577760  79.1598970  18.1720930
  38.3399160  78.5099430  17.3363830  47.4382600  72.5850890  27.8382520
  47.8063420  71.7646100  28.1662090  46.5780800  72.6452780  28.2538170
  50.8044630  71.5407830  18.6470080  50.1757790  71.6453500  17.9328310
  50.3096550  71.7604610  19.4363960  45.2502770  83.2613420  16.0804060
  45.3514750  83.0577410  15.1506040  44.3504510  83.0071700  16.2851840
  42.7728660  73.8193780  20.0627960  42.0644810  74.2880120  20.5041570
  43.0573140  73.1615790  20.6973150  44.3984590  75.2390480  28.0620490
  44.8969840  75.7136300  28.7272340  44.5407540  74.3154000  28.2690520
  46.8044090  70.5444440  21.5023750  46.6811870  70.5630570  20.5533260
  47.7528650  70.5923380  21.6222150  43.8920880  85.7799740  20.7751730
  44.1462380  85.7421130  19.8531100  42.9433360  85.6533070  20.7679980
  40.9763680  72.1278860  17.4378670  41.8254210  72.5649010  17.3718860
  40.6094950  72.4399120  18.2650730  49.8973460  76.6991620  22.3510240
  48.9563600  76.7141850  22.5257930  50.2117530  75.9127580  22.7970540
  39.8755100  78.3811220  15.9114200  40.6418370  78.2692580  16.4739630
  39.9529790  77.6849190  15.2590970  38.5701860  75.8136290  16.5947090
  38.6505450  74.8663800  16.7064490  39.4621610  76.1443170  16.7007750
  51.8999040  83.8700470  24.0264500  52.0246460  84.6931640  24.4988310
  52.7664600  83.6591200  23.6788650  39.3716570  85.9631680  23.6981630
  40.1079050  85.4147140  23.9690200  39.7557490  86.8287690  23.5587620
  36.2562050  82.0305250  19.5723140  35.3301830  82.2726390  19.5628550
  36.7218480  82.8579510  19.4507890  38.3774850  85.1477750  32.8867210
  39.1787580  85.4689800  33.3002610  37.8626670  84.7873330  33.6087120
  42.4818880  85.1361990  15.5207200  43.2747490  85.4250820  15.0688990
  41.9623230  84.7054160  14.8419680  47.2139480  81.2557620  32.8342620
  46.6077640  81.2789220  32.0938370  46.9093590  80.5240660  33.3709870
  48.6439850  84.9837910  31.4452030  49.5961600  84.8995930  31.3952270
  48.4968070  85.6479620  32.1185820  51.5349050  84.3632120  16.9443940
  51.2490560  83.9497260  16.1298120  51.3368600  85.2919830  16.8244460
  36.0972660  77.6351210  31.8303260  36.6011680  77.0558490  32.4019490
  35.3580080  77.9191440  32.3679630  42.9996280  80.3565400  15.3849550
  42.8946920  79.7417750  16.1110930  42.8320500  79.8331290  14.6012560
  43.1510600  79.0422200  31.3638780  42.3856270  79.6107200  31.2793450
  43.3326560  78.7498410  30.4707010  46.2399010  79.4185430  15.9891540
  45.6909110  79.8654730  16.6334280  46.8618270  78.9134680  16.5129210
  50.2933950  80.7727530  31.9213800  51.0343420  81.1103290  31.4181260
  49.5306630  80.9419590  31.3683570  38.1295740  75.7780800  32.7253330
  38.1701080  75.4794670  33.6338560  38.9841240  76.1788410  32.5660850
  41.9074130  78.3776350  17.8856840  42.3290550  78.2116220  18.7288230
  42.0324970  77.5676580  17.3911980  40.0701550  74.3572900  30.6927820
  39.5398010  73.8663850  30.0651160  40.7389620  74.7857100  30.1585750
  44.4201770  77.4013960  15.1333940  44.9407430  76.6862980  14.7675090
  45.0670170  78.0399830  15.4334450  48.9679610  78.8242360  30.4569010
  49.3820630  78.9787440  31.3059430  48.0330610  78.9497580  30.6194790
  49.4401780  76.1638520  32.4608160  50.0222550  75.4090840  32.3728640
  49.6163550  76.6945960  31.6839640  40.5573850  71.3235270  30.7725110
  40.4630720  70.7056020  30.0475980  39.9771240  72.0501560  30.5455020
  43.3235290  69.8808510  27.8052500  42.8752590  69.9032770  26.9598050
  42.6900490  69.4827530  28.4022800  43.7294840  78.7762840  28.4264940
  44.1482950  79.6195570  28.2541180  42.8103470  78.9134880  28.1971720
  46.0658740  76.5079020  29.8102780  46.1854950  75.9120160  30.5497620
  46.9252740  76.5448710  29.3904080  48.4046640  77.0616210  28.3865290
  47.8781860  77.5858830  27.7830430  48.7477980  77.6943600  29.0175020
  40.8033030  74.4509580  14.8315000  40.6022090  73.5876940  15.1928340
  40.6325080  74.3642940  13.8936600  41.5802260  85.0815850  29.5422670
  41.0423350  85.8061910  29.2231370  41.8336220  84.6046190  28.7520010
  42.8327510  73.0500370  31.0678600  43.4227200  72.7416220  31.7556420
  42.0147750  72.5780120  31.2238500  47.6520940  72.6666180  31.3011620
  46.9636460  72.0047720  31.2361610  48.3726960  72.2204450  31.7460080
  48.2821340  69.2617810  17.3601880  48.5623630  68.4185710  17.7161300
  47.5087070  69.4940920  17.8740630  39.6015830  71.5510200  14.8192880
  39.9041730  71.5577630  13.9112030  40.3410420  71.2008060  15.3160540
  44.4364470  86.3167060  29.8009320  44.3623170  87.2202200  30.1081690
  43.5343310  85.9978960  29.7731390  42.8200760  70.4944820  15.8049080
  42.4722760  69.8168810  15.2251530  43.0213530  70.0334330  16.6192470
  44.9849800  85.4825570  17.4235680  45.8800590  85.8210540  17.4454440
  45.0167430  84.7604980  16.7959960  38.6245960  80.8552620  15.6522680
  39.0620830  81.3982290  16.3080260  39.1093690  80.0299570  15.6619020
  35.8391760  83.6441650  23.1042940  36.1694770  82.7762710  22.8721580
  36.2682760  83.8500170  23.9347900  40.4353680  81.9750660  20.7644910
  40.1349220  81.8515630  21.6648820  40.3291170  81.1159250  20.3560640
  36.3281970  84.5112240  25.8424570  35.8912960  84.6913040  26.6748720
  36.8959650  85.2686860  25.7006290  51.9644150  84.0129240  30.1301880
  51.3646140  84.0721800  29.3865800  52.0938050  83.0734220  30.2598730
  53.2045600  81.7547060  15.4671590  52.3738560  81.8223710  15.9378820
  53.3817430  82.6451180  15.1638450  52.6602060  78.4994540  17.9705790
  53.4220970  79.0691190  18.0765480  52.6756430  77.9321740  18.7414100
  36.1606400  77.0232470  22.2013450  35.5055240  76.7544110  21.5573150
  36.9984350  76.9136950  21.7515430  53.6662030  79.3544640  22.8147720
  54.0370860  78.5711960  22.4083690  54.3063960  80.0433740  22.6365020
  50.6495790  80.7381220  28.2278040  49.8355630  81.1678380  28.4903830
  51.0569990  81.3499630  27.6147090  52.7121230  78.7928910  15.1278310
  52.9870070  79.7007790  14.9997530  52.5231970  78.7291440  16.0640300
  49.1096840  71.8173760  16.4231940  49.5281720  71.6304740  15.5828600
  48.8032900  70.9652810  16.7334870  52.6086570  76.7297900  20.1207740
  52.2330170  75.9625830  19.6889030  51.8789690  77.1120600  20.6082670
  37.1982330  77.4085040  26.7416790  37.5655370  77.3212440  27.6212810
  36.6293150  76.6451590  26.6423650  36.7498330  74.3194130  30.6475210
  35.8554380  74.2860890  30.9868920  37.2895880  74.5180920  31.4126460
  50.4374260  71.1025850  32.5326960  51.3144440  71.1109250  32.9160960
  50.4495100  70.3656690  31.9219310  35.3744480  74.2331400  18.1438780
  34.4708560  74.4961600  17.9690440  35.8585100  74.5042570  17.3638740
  51.8837530  74.9555390  23.4214980  52.4075010  74.4618040  22.7905150
  52.4696950  75.0905750  24.1662550  37.9171690  73.2896940  16.0533160
  38.6263390  72.8680160  15.5680440  37.2011630  73.3572170  15.4216510
  37.5645850  69.3436270  15.0935810  38.2873980  69.8845210  15.4117030
  37.8370370  69.0699690  14.2177350  51.3737500  74.2128740  19.3607390
  51.8696620  73.9799610  20.1456270  51.1753570  73.3740580  18.9445030
  37.2538040  68.5942460  24.9958430  37.9014230  68.0439840  24.5553590
  37.6739880  68.8485610  25.8174240  52.8024660  72.8489690  21.8945070
  52.6923940  72.6945730  22.8327340  53.5632250  72.3210630  21.6520480
  51.1490380  68.7883820  28.3528070  51.7862600  69.4017960  28.7187260
  51.2965270  68.8244480  27.4077300  53.6914930  70.6797610  15.1351210
  54.6164240  70.5478790  14.9269500  53.6690720  70.7590430  16.0887660
  53.7653420  71.4508270  17.7607920  52.9704920  71.3853390  18.2900830
  53.9696700  72.3858910  17.7493270  50.7071840  85.4899820  21.7546310
  51.3030910  85.1684390  21.0780730  50.9649990  85.0171640  22.5459580
  37.0070040  68.7498130  27.7383750  36.6584860  69.2061950  28.5041930
  36.6757740  67.8555260  27.8206180  38.6134410  81.9217730  31.9036940
  38.5704040  81.5510640  32.7851400  38.7445420  82.8595300  32.0438760
  42.3140440  83.4777320  27.5046660  42.0731800  83.7451880  26.6177180
  43.2543080  83.6483050  27.5597520  44.5194860  69.9410010  31.2603170
  44.4583750  70.5331840  32.0098580  45.4595240  69.8335970  31.1153430
  47.1569420  69.5980070  30.8995460  47.7709830  69.9159360  30.2376540
  47.7018980  69.1128660  31.5191320  53.5744600  85.4971700  28.3057300
  53.0802880  85.8940570  27.5884430  52.9657890  84.8720910  28.6994580
  37.6790680  68.2774330  31.0134520  38.2273670  68.0962380  30.2500630
  37.7445990  67.4868440  31.5490830  38.4522440  84.8679980  29.0234720
  37.8582760  84.7364680  29.7624760  38.4446280  84.0318120  28.5576820
  47.8977460  68.1612210  27.2264750  47.0237300  68.4947320  27.0237680
  47.7888210  67.6885390  28.0516620  48.8049440  70.3683080  28.6106470
  48.4762800  69.5534840  28.2308200  49.7531740  70.3252890  28.4872160
  51.2584050  86.1395120  25.5844040  50.7987020  86.8910930  25.2102060
  50.6296510  85.4201590  25.5258840  38.0834670  82.2338360  27.9742760
  37.3568730  81.6143650  27.9068710  38.1443820  82.6278970  27.1040840
  41.6879770  84.4483360  24.7592170  42.2044790  83.8370720  24.2340430
  42.3377150  84.9512140  25.2503180  44.4275270  85.3391850  25.5861150
  44.7153080  85.0846150  24.7094160  44.9398490  84.7869210  26.1766720
  45.6452280  69.0782050  26.1657660  44.8624070  69.5527550  26.4454420
  45.3515210  68.1736880  26.0570840  50.1973350  69.7805150  24.2106750
  50.6381440  69.7250250  23.3628350  49.9280940  70.6963160  24.2816930
  52.0611920  69.4120390  22.2215570  52.0000320  68.4681610  22.0746590
  52.8403950  69.5200480  22.7669030  36.3664670  85.5512750  21.1839520
  36.1986710  84.9183430  21.8821410  35.4999180  85.7572150  20.8333710
  36.9892690  69.3829530  18.6871380  37.7472050  69.4958410  18.1135410
  36.5269860  70.2198730  18.6414810  43.5306500  71.4968800  21.6773690
  42.7181010  71.1225690  21.3369570  44.0348140  70.7413880  21.9794880
  48.0331480  68.1611250  22.9156760  48.6360850  68.7331460  23.3905280
  47.2924470  68.7250690  22.6930660  51.1766080  68.5632810  18.1897040
  51.3716710  69.4616260  18.4564470  50.3895950  68.3319890  18.6829990
  37.9727370  84.2445980  18.6289660  37.4474990  84.6254010  17.9251620
  37.8971950  84.8696750  19.3499370  39.3617840  69.9093580  17.2273350
  39.8910600  69.1223380  17.0981300  39.9946160  70.5884770  17.4608880
  41.5555680  69.6468720  20.2818740  40.9258420  68.9456030  20.4488870
  41.0160820  70.4072850  20.0651900  44.4947630  86.2607950  32.9529350
  45.4214940  86.0252220  32.9965310  44.4798060  87.0879950  32.4715380
  52.7292690  85.8033520  19.9503600  52.9044880  85.1171260  19.3064520
  52.0314260  86.3280570  19.5580270  41.6811240  68.9252700  32.7171230
  41.3995510  69.4286300  31.9532050  42.0630940  68.1274450  32.3513360
  40.5720340  86.1928360  17.5038910  41.3039160  85.9087640  16.9562800
  40.8314010  85.9541640  18.3938290  39.7335130  82.3093090  17.5085240
  39.1044010  82.7778190  18.0571070  39.8482960  81.4642310  17.9431430
  48.2826700  68.3406280  33.2951700  48.1692150  68.6600890  34.1903220
  49.0996440  68.7418790  32.9988980  51.0625190  85.4877810  32.7770390
  51.8550510  84.9927040  32.5696350  51.3558340  86.1667950  33.3846000
  47.1884850  76.3598750   3.6586440  47.1078900  75.4453360   3.3878150
  46.7749270  76.8565820   2.9526150  45.3202890  78.1377770   5.5395710
  44.5444990  77.6578210   5.8294280  45.9715820  77.4583420   5.3651870
  39.3368720  78.4497580   6.4171470  38.5053600  78.1946290   6.8167980
  39.9449700  78.5208350   7.1529390  49.3410320  82.5437960   4.3194840
  48.8791850  81.7725200   4.6482010  50.1535870  82.5704030   4.8247290
  39.3169980  82.4837670   6.6129490  39.6198020  81.5935410   6.4339710
  40.0613570  83.0407890   6.3851740  35.7093680  76.0105120   6.0853560
  36.2809790  75.2427320   6.0857200  35.7095220  76.3093880   5.1760170
  45.5673630  84.8295970   3.9398830  44.9485070  85.2853470   3.3693270
  46.4225410  84.9847430   3.5388530  44.7611880  80.8134960   5.5465870
  44.6920160  79.8724900   5.3855000  45.5231740  80.9036370   6.1188440
  36.9518550  71.4189480   7.8722490  36.7721390  70.5215230   8.1525250
  36.5498630  71.9661350   8.5469440  45.7917050  73.6205340   5.7734800
  46.1681870  72.7477220   5.6608470  45.6936560  73.9564040   4.8825240
  49.5741170  71.1155780   2.7063140  50.3950790  70.6252350   2.7488620
  49.6075250  71.7053440   3.4594980  37.5705220  73.9149980   6.4804830
  38.2515330  74.1788350   7.0992230  37.2553270  73.0750850   6.8142840
  41.7629790  74.9617340   5.5677420  42.2708010  75.4598310   6.2082440
  42.2943030  74.1852540   5.3916780  53.8640720  73.1322530   9.2706770
  53.1592890  73.5204240   8.7521880  54.1298640  73.8272820   9.8727700
  40.0465890  69.6015900   9.8340840  40.0484330  70.1188290   9.0286740
  39.2170200  69.1246080   9.8110770  41.2968740  79.2411080   8.0114340
  40.9638120  79.8680000   8.6535410  41.4735420  79.7672960   7.2316010
  49.8102650  73.0556160   5.4790680  49.1058220  73.3441050   6.0593790
  50.1714810  73.8656270   5.1190240  39.7281220  71.3125860   7.8411290
  40.0698030  72.1567910   7.5465160  38.7897030  71.4609600   7.9576630
  40.5087840  81.2091880   9.8263520  41.1261840  81.8842960   9.5447970
  39.6480960  81.6179860   9.7351020  51.4265430  82.6731290   7.7418160
  50.7428950  83.3430400   7.7334830  51.9659720  82.8711940   6.9763020
  52.8789570  72.5010950   5.8699890  51.9314480  72.5349930   6.0015320
  53.2039560  73.3149900   6.2549250  43.4109110  68.8008130   4.1655880
  43.7184090  68.2455020   3.4491380  42.4809810  68.9352590   3.9828870
  48.9624170  84.5175420   6.4563340  48.9751330  84.1137710   5.5885600
  48.4099390  85.2922710   6.3524770  48.3609610  79.4205260   7.7845950
  48.7778400  79.2065370   6.9499410  49.0849430  79.6778050   8.3554570
  52.3071710  77.8192480   7.8762190  51.4790340  77.8885570   7.4012320
  52.9022190  78.4046790   7.4078020  49.2713720  74.6061800   8.8217060
  48.8584900  75.4315510   9.0757050  48.5389670  74.0206840   8.6293420
  41.4046510  77.3921700   3.6835730  41.0003510  76.6798950   3.1881630
  41.4909630  77.0474940   4.5723770  41.8728210  81.0789260   5.8474940
  41.5756500  80.4734730   5.1682720  42.8228030  81.1166570   5.7364300
  40.1175130  74.1664910   7.4634770  40.6689720  74.2760250   6.6888020
  40.6318640  74.5402510   8.1790000  49.9613820  84.6521130   9.5098040
  49.4844380  85.4593320   9.3170650  49.2775610  83.9999460   9.6624250
  40.9646640  80.8170950  12.4982740  40.0675170  81.0410920  12.7456140
  40.9899510  80.9405890  11.5494140  39.7917860  77.6884270  11.0740110
  39.6525630  78.5607070  11.4427510  38.9099220  77.3457080  10.9288050
  46.1147240  82.6060140   2.3805240  46.5543150  83.3484470   1.9660630
  46.0534130  82.8486710   3.3044200  41.5898210  83.6305970  13.2825260
  41.5613640  84.0348920  12.4153690  41.4263180  82.7016330  13.1196860
  53.5413030  84.4133070  14.5789430  54.0172750  84.8915960  15.2578510
  54.1620190  84.3450560  13.8534930  35.7436510  79.4581820   6.9911020
  35.8216930  79.5930590   6.0466740  36.3578190  78.7497710   7.1839140
  36.9884140  81.1582010   3.4017200  36.5812220  81.2996600   2.5470800
  37.8797150  80.8742170   3.1988410  52.9446280  81.6045920  11.7389440
  53.0709340  81.3657800  10.8206620  52.9867660  80.7730460  12.2111520
  46.8063020  85.3073920  10.3084250  47.3207690  85.2181930  11.1106680
  45.9632100  85.6533620  10.6012160  48.0493480  84.7279530   2.3714740
  48.5050430  83.9468910   2.6853360  48.3886000  85.4386350   2.9155920
  52.7970290  73.6578380  12.7039180  52.1814560  74.1658050  12.1754640
  52.4766710  72.7576710  12.6465120  35.7996030  80.4995990   9.5305480
  35.9627070  80.0301350   8.7124850  36.2648480  79.9919550  10.1954320
  40.5714800  69.6301750   4.5666050  40.1282950  70.4111290   4.2350570
  41.1299790  69.9531640   5.2736990  44.8584610  72.4970270  10.1701370
  44.3963980  72.7053290  10.9821310  44.4562720  71.6829620   9.8672040
  49.8589120  73.7179220  11.2998030  49.0082710  73.4184970  11.6207100
  49.6990910  73.9621230  10.3881850  46.9538830  75.2180970  13.3996820
  47.2792240  74.3844720  13.0599050  47.7419160  75.7409490  13.5475150
  42.6090700  70.1749080   6.4255650  42.9063030  71.0811910   6.3447670
  43.1576260  69.6867860   5.8115220  40.3629020  74.7535320   2.2947300
  40.1369940  74.5372490   3.1993920  39.5821550  75.1863780   1.9493270
  42.8028230  75.6520900  12.9607570  42.7071830  74.7115630  12.8107970
  43.6460210  75.8735970  12.5655640  46.1991650  73.3962230   2.9241230
  46.5921220  73.7134430   2.1109920  46.5608500  72.5174110   3.0385750
  37.9338770  72.0634570  11.1141350  37.5402160  72.9109780  11.3214130
  37.2457170  71.4260940  11.3049990  44.5083820  72.1469540  14.1838090
  43.8182140  71.9541740  14.8184180  45.2516120  72.4304180  14.7162390
  35.2355820  69.9863030   5.1471430  34.9468870  70.5565890   5.8596410
  35.9801580  69.5067480   5.5102660  46.7846790  75.9867980   7.0192010
  46.0527910  76.4954790   7.3682110  46.3871130  75.1697960   6.7180790
  43.2224180  72.6622180   5.4244500  43.2260240  72.2212130   4.5749040
  44.1175300  72.9839510   5.5316320  39.0726560  72.5448670   4.3838710
  38.7326610  73.0223900   5.1405760  38.3103880  72.0913790   4.0239810
  47.2472700  71.4401660   6.4314950  47.2645440  71.8910310   7.2756800
  46.9988280  70.5407300   6.6448390  50.6743450  68.8533840  12.2701330
  50.9989220  68.1223500  12.7959310  50.7099960  68.5347480  11.3682320
  37.3735010  79.8747420  11.6901290  36.9889800  79.2341090  12.2884250
  37.6847200  80.5783540  12.2596020  43.5232150  76.7223960   7.1709910
  43.8902280  76.2482530   7.9171250  43.3337210  77.5965530   7.5118250
  36.3872640  71.4667650   3.3003380  36.1019560  71.1023320   4.1382000
  36.3251500  70.7348110   2.6866520  41.3131520  75.7632600   9.4894120
  41.0088590  76.6424580   9.7144480  42.2677980  75.8232390   9.5251560
  50.6001290  78.9658950   5.8787360  51.3200410  79.4614240   5.4883470
  50.3983110  78.2876840   5.2341230  45.9820090  79.0368010  11.7656360
  45.9157400  78.1163680  11.5113950  45.3525230  79.1343450  12.4801000
  39.8850710  79.6373970   3.7239780  40.4029380  78.8342230   3.6696670
  39.4334730  79.5753110   4.5656610  37.3695250  76.6035340  10.6365480
  37.0110190  77.2689190  11.2238820  37.0749810  75.7718890  11.0078100
  40.5708370  77.0619580  13.5205030  40.2708510  77.2076760  12.6232850
  41.3419610  76.5024870  13.4278420  45.9136820  81.8588580  11.5160160
  45.9281360  80.9269540  11.2979070  45.2061920  81.9448340  12.1549930
  52.1248030  78.4995920  10.8628740  51.3996220  79.0924700  10.6658130
  52.6523490  78.4919460  10.0642110  47.6547620  80.2256090   4.3612590
  48.0071440  79.6284220   3.7013960  46.7709950  79.9000320   4.5320840
  43.7410900  80.9853780   1.7683000  44.4282030  81.5322990   2.1490590
  42.9543320  81.5294510   1.8032610  45.3470720  83.5006150   8.6100660
  45.9912940  83.7065530   9.2874080  45.7100160  82.7394550   8.1571510
  46.6202800  81.5038500   7.3278110  47.2625030  80.8031660   7.4410280
  47.1452150  82.2836940   7.1475000  48.3940420  82.3033400  10.5314170
  48.7296660  82.8900090  11.2092090  47.4740760  82.1726110  10.7611960
  35.9443820  70.0928580  11.3137580  35.2302340  70.2925500  11.9190190
  36.3638860  69.3168150  11.6852380  36.2316410  84.0808840  12.3004110
  36.3407530  83.1403580  12.1599500  35.5796970  84.3463590  11.6517840
  44.2229000  82.3524730  13.7002230  43.9025870  81.6333970  14.2447920
  43.5487360  83.0279800  13.7738290  47.4382600  72.5850890   9.0639030
  47.8063420  71.7646100   9.3918600  46.5780800  72.6452780   9.4794680
  44.3984590  75.2390480   9.2877000  44.8969840  75.7136300   9.9528850
  44.5407540  74.3154000   9.4947030  46.8044090  70.5444440   2.7280260
  46.6811870  70.5630570   1.7789770  47.7528650  70.5923380   2.8478660
  51.6051450  71.4558440  10.1305390  51.1025050  72.1963840  10.4699200
  52.4208110  71.8442440   9.8142180  49.8973460  76.6991620   3.5766750
  48.9563600  76.7141850   3.7514440  50.2117530  75.9127580   4.0227050
  51.8999040  83.8700470   5.2521010  52.0246460  84.6931640   5.7244820
  52.7664600  83.6591200   4.9045160  39.3716570  85.9631680   4.9238140
  40.1079050  85.4147140   5.1946710  39.7557490  86.8287690   4.7844130
  38.3774850  85.1477750  14.1123720  39.1787580  85.4689800  14.5259120
  37.8626670  84.7873330  14.8343630  47.2139480  81.2557620  14.0599130
  46.6077640  81.2789220  13.3194880  46.9093590  80.5240660  14.5966380
  48.6439850  84.9837910  12.6708540  49.5961600  84.8995930  12.6208780
  48.4968070  85.6479620  13.3442330  36.0972660  77.6351210  13.0559770
  36.6011680  77.0558490  13.6276000  35.3580080  77.9191440  13.5936140
  43.1510600  79.0422200  12.5895290  42.3856270  79.6107200  12.5049960
  43.3326560  78.7498410  11.6963520  50.2933950  80.7727530  13.1470310
  51.0343420  81.1103290  12.6437770  49.5306630  80.9419590  12.5940080
  38.1295740  75.7780800  13.9509840  38.1701080  75.4794670  14.8595070
  38.9841240  76.1788410  13.7917360  40.0701550  74.3572900  11.9184330
  39.5398010  73.8663850  11.2907670  40.7389620  74.7857100  11.3842260
  48.9679610  78.8242360  11.6825520  49.3820630  78.9787440  12.5315940
  48.0330610  78.9497580  11.8451300  49.4401780  76.1638520  13.6864670
  50.0222550  75.4090840  13.5985150  49.6163550  76.6945960  12.9096150
  40.5573850  71.3235270  11.9981620  40.4630720  70.7056020  11.2732490
  39.9771240  72.0501560  11.7711530  43.3235290  69.8808510   9.0309010
  42.8752590  69.9032770   8.1854560  42.6900490  69.4827530   9.6279310
  43.7294840  78.7762840   9.6521450  44.1482950  79.6195570   9.4797690
  42.8103470  78.9134880   9.4228230  46.0658740  76.5079020  11.0359290
  46.1854950  75.9120160  11.7754130  46.9252740  76.5448710  10.6160590
  48.4046640  77.0616210   9.6121800  47.8781860  77.5858830   9.0086940
  48.7477980  77.6943600  10.2431530  41.5802260  85.0815850  10.7679180
  41.0423350  85.8061910  10.4487880  41.8336220  84.6046190   9.9776520
  42.8327510  73.0500370  12.2935110  43.4227200  72.7416220  12.9812930
  42.0147750  72.5780120  12.4495010  47.6520940  72.6666180  12.5268130
  46.9636460  72.0047720  12.4618120  48.3726960  72.2204450  12.9716590
  44.4364470  86.3167060  11.0265830  44.3623170  87.2202200  11.3338200
  43.5343310  85.9978960  10.9987900  35.8391760  83.6441650   4.3299450
  36.1694770  82.7762710   4.0978090  36.2682760  83.8500170   5.1604410
  36.3281970  84.5112240   7.0681080  35.8912960  84.6913040   7.9005230
  36.8959650  85.2686860   6.9262800  51.9644150  84.0129240  11.3558390
  51.3646140  84.0721800  10.6122310  52.0938050  83.0734220  11.4855240
  36.1606400  77.0232470   3.4269960  35.5055240  76.7544110   2.7829660
  36.9984350  76.9136950   2.9771940  53.6662030  79.3544640   4.0404230
  54.0370860  78.5711960   3.6340200  54.3063960  80.0433740   3.8621530
  50.6495790  80.7381220   9.4534550  49.8355630  81.1678380   9.7160340
  51.0569990  81.3499630   8.8403600  37.1982330  77.4085040   7.9673300
  37.5655370  77.3212440   8.8469320  36.6293150  76.6451590   7.8680160
  51.9986190  75.8769420  10.9803770  51.7672280  75.6482170  10.0801720
  52.2590740  76.7968970  10.9348660  36.7498330  74.3194130  11.8731720
  35.8554380  74.2860890  12.2125430  37.2895880  74.5180920  12.6382970
  50.4374260  71.1025850  13.7583470  51.3144440  71.1109250  14.1417470
  50.4495100  70.3656690  13.1475820  51.8837530  74.9555390   4.6471490
  52.4075010  74.4618040   4.0161660  52.4696950  75.0905750   5.3919060
  52.0627250  75.0395260   8.1691040  51.1129960  75.0058800   8.2836030
  52.2440260  75.9495370   7.9340810  37.2538040  68.5942460   6.2214940
  37.9014230  68.0439840   5.7810100  37.6739880  68.8485610   7.0430750
  52.8024660  72.8489690   3.1201580  52.6923940  72.6945730   4.0583850
  53.5632250  72.3210630   2.8776990  51.1490380  68.7883820   9.5784580
  51.7862600  69.4017960   9.9443770  51.2965270  68.8244480   8.6333810
  50.7071840  85.4899820   2.9802820  51.3030910  85.1684390   2.3037240
  50.9649990  85.0171640   3.7716090  37.0070040  68.7498130   8.9640260
  36.6584860  69.2061950   9.7298440  36.6757740  67.8555260   9.0462690
  38.6134410  81.9217730  13.1293450  38.5704040  81.5510640  14.0107910
  38.7445420  82.8595300  13.2695270  42.3140440  83.4777320   8.7303170
  42.0731800  83.7451880   7.8433690  43.2543080  83.6483050   8.7854030
  44.5194860  69.9410010  12.4859680  44.4583750  70.5331840  13.2355090
  45.4595240  69.8335970  12.3409940  47.1569420  69.5980070  12.1251970
  47.7709830  69.9159360  11.4633050  47.7018980  69.1128660  12.7447830
  53.5744600  85.4971700   9.5313810  53.0802880  85.8940570   8.8140940
  52.9657890  84.8720910   9.9251090  37.6790680  68.2774330  12.2391030
  38.2273670  68.0962380  11.4757140  37.7445990  67.4868440  12.7747340
  38.4522440  84.8679980  10.2491230  37.8582760  84.7364680  10.9881270
  38.4446280  84.0318120   9.7833330  47.8977460  68.1612210   8.4521260
  47.0237300  68.4947320   8.2494190  47.7888210  67.6885390   9.2773130
  48.8049440  70.3683080   9.8362980  48.4762800  69.5534840   9.4564710
  49.7531740  70.3252890   9.7128670  51.2584050  86.1395120   6.8100550
  50.7987020  86.8910930   6.4358570  50.6296510  85.4201590   6.7515350
  38.0834670  82.2338360   9.1999270  37.3568730  81.6143650   9.1325220
  38.1443820  82.6278970   8.3297350  41.6879770  84.4483360   5.9848680
  42.2044790  83.8370720   5.4596940  42.3377150  84.9512140   6.4759690
  44.4275270  85.3391850   6.8117660  44.7153080  85.0846150   5.9350670
  44.9398490  84.7869210   7.4023230  45.6452280  69.0782050   7.3914170
  44.8624070  69.5527550   7.6710930  45.3515210  68.1736880   7.2827350
  50.1973350  69.7805150   5.4363260  50.6381440  69.7250250   4.5884860
  49.9280940  70.6963160   5.5073440  52.0611920  69.4120390   3.4472080
  52.0000320  68.4681610   3.3003100  52.8403950  69.5200480   3.9925540
  36.3664670  85.5512750   2.4096030  36.1986710  84.9183430   3.1077920
  35.4999180  85.7572150   2.0590220  43.5306500  71.4968800   2.9030200
  42.7181010  71.1225690   2.5626080  44.0348140  70.7413880   3.2051390
  48.0331480  68.1611250   4.1413270  48.6360850  68.7331460   4.6161790
  47.2924470  68.7250690   3.9187170  44.4947630  86.2607950  14.1785860
  45.4214940  86.0252220  14.2221820  44.4798060  87.0879950  13.6971890
  41.6811240  68.9252700  13.9427740  41.3995510  69.4286300  13.1788560
  42.0630940  68.1274450  13.5769870  48.2826700  68.3406280  14.5208210
  48.1692150  68.6600890  15.4159730  49.0996440  68.7418790  14.2245490
  51.0625190  85.4877810  14.0026900  51.8550510  84.9927040  13.7952860
  51.3558340  86.1667950  14.6102510  47.1884850  57.5855260  97.5303890
  47.1078900  56.6709870  97.2595600  46.7749270  58.0822330  96.8243600
  45.3202890  59.3634280  99.4113160  44.5444990  58.8834720  99.7011730
  45.9715820  58.6839930  99.2369320  39.3368720  59.6754090 100.2888920
  38.5053600  59.4202800 100.6885430  39.9449700  59.7464860 101.0246840
  49.3410320  63.7694470  98.1912290  48.8791850  62.9981710  98.5199460
  50.1535870  63.7960540  98.6964740  39.3169980  63.7094180 100.4846940
  39.6198020  62.8191920 100.3057160  40.0613570  64.2664400 100.2569190
  37.7460670  54.6355980  94.0731310  36.8577370  54.9771950  93.9711190
  38.0301860  54.4356300  93.1812140  35.7093680  57.2361630  99.9571010
  36.2809790  56.4683830  99.9574650  35.7095220  57.5350390  99.0477620
  45.5673630  66.0552480  97.8116280  44.9485070  66.5109980  97.2410720
  46.4225410  66.2103940  97.4105980  44.7611880  62.0391470  99.4183320
  44.6920160  61.0981410  99.2572450  45.5231740  62.1292880  99.9905890
  36.9518550  52.6445990 101.7439940  36.7721390  51.7471740 102.0242700
  36.5498630  53.1917860 102.4186890  45.7917050  54.8461850  99.6452250
  46.1681870  53.9733730  99.5325920  45.6936560  55.1820550  98.7542690
  39.9222060  53.2187480  95.1069690  40.0288810  54.1191210  95.4138450
  39.0114420  53.1705450  94.8164340  49.5741170  52.3412290  96.5780590
  50.3950790  51.8508860  96.6206070  49.6075250  52.9309950  97.3312430
  37.5705220  55.1406490 100.3522280  38.2515330  55.4044860 100.9709680
  37.2553270  54.3007360 100.6860290  41.7629790  56.1873850  99.4394870
  42.2708010  56.6854820 100.0799890  42.2943030  55.4109050  99.2634230
  46.4336980  60.9391720  95.2048190  45.8154250  61.4041170  94.6410910
  46.9460230  61.6319200  95.6217700  41.2968740  60.4667590 101.8831790
  40.9638120  61.0936510 102.5252860  41.4735420  60.9929470 101.1033460
  49.8102650  54.2812670  99.3508130  49.1058220  54.5697560  99.9311240
  50.1714810  55.0912780  98.9907690  39.7281220  52.5382370 101.7128740
  40.0698030  53.3824420 101.4182610  38.7897030  52.6866110 101.8294080
  35.8020180  61.6248250  92.5787820  35.4248160  62.1135350  91.8472720
  36.0593250  62.2973530  93.2094350  51.4265430  63.8987800 101.6135610
  50.7428950  64.5686910 101.6052280  51.9659720  64.0968450 100.8480470
  52.8789570  53.7267460  99.7417340  51.9314480  53.7606440  99.8732770
  53.2039560  54.5406410 100.1266700  43.4109110  50.0264640  98.0373330
  43.7184090  49.4711530  97.3208830  42.4809810  50.1609100  97.8546320
  48.9624170  65.7431930 100.3280790  48.9751330  65.3394220  99.4603050
  48.4099390  66.5179220 100.2242220  50.2569590  62.4648150  95.4170960
  50.1465920  61.5222480  95.5420380  50.2537840  62.8263790  96.3033720
  48.3609610  60.6461770 101.6563400  48.7778400  60.4321880 100.8216860
  49.0849430  60.9034560 102.2272020  45.7989870  58.0913470  94.7733450
  44.8719150  58.0250850  95.0021920  45.9514690  59.0293600  94.6588690
  45.7858950  54.3630470  91.7700610  44.8462620  54.5244430  91.8553070
  46.1042210  55.0816150  91.2236600  52.3071710  59.0448990 101.7479640
  51.4790340  59.1142080 101.2729770  52.9022190  59.6303300 101.2795470
  49.8287160  59.6533770  95.2768700  49.2099580  59.3153320  94.6295000
  49.8111610  59.0093530  95.9847890  41.4046510  58.6178210  97.5553180
  41.0003510  57.9055460  97.0599080  41.4909630  58.2731450  98.4441220
  41.8728210  62.3045770  99.7192390  41.5756500  61.6991240  99.0400170
  42.8228030  62.3423080  99.6081750  40.1175130  55.3921420 101.3352220
  40.6689720  55.5016760 100.5605470  40.6318640  55.7659020 102.0507450
  48.0051860  58.8920580  92.2841450  48.4445140  58.0543010  92.1379270
  48.7180280  59.5249980  92.3705590  46.1147240  63.8316650  96.2522690
  46.5543150  64.5740980  95.8378080  46.0534130  64.0743220  97.1761650
  51.5869000  50.1463390  90.5982490  51.2741660  50.2390220  91.4981560
  52.3481470  50.7244420  90.5479920  38.1051140  57.5123190  95.0559830
  37.9848740  58.2385280  94.4441100  37.7952030  56.7426100  94.5787740
  35.7436510  60.6838330 100.8628470  35.8216930  60.8187100  99.9184190
  36.3578190  59.9754220 101.0556590  36.9884140  62.3838520  97.2734650
  36.5812220  62.5253110  96.4188250  37.8797150  62.0998680  97.0705860
  48.7817420  66.8185770  93.6085700  48.6218560  66.5288710  94.5067530
  48.6164130  66.0425900  93.0730930  41.2605800  66.5984300  95.3857320
  41.0848280  65.6819840  95.1725120  40.4061540  66.9571590  95.6255120
  48.4843550  64.3273330  92.1683700  47.7908710  64.3250620  91.5085980
  49.2266410  63.9032650  91.7377870  48.0493480  65.9536040  96.2432190
  48.5050430  65.1725420  96.5570810  48.3886000  66.6642860  96.7873370
  40.5714800  50.8558260  98.4383500  40.1282950  51.6367800  98.1068020
  41.1299790  51.1788150  99.1454440  43.6873620  50.4768960  93.3189330
  43.0627800  50.4728830  94.0442640  43.6003740  49.6099920  92.9225300
  42.6090700  51.4005590 100.2973100  42.9063030  52.3068420 100.2165120
  43.1576260  50.9124370  99.6832670  40.3629020  55.9791830  96.1664750
  40.1369940  55.7629000  97.0711370  39.5821550  56.4120290  95.8210720
  47.5926780  55.9855200  94.7655400  46.9935670  56.7091000  94.5819020
  48.1406390  55.9231980  93.9831850  46.1991650  54.6218740  96.7958680
  46.5921220  54.9390940  95.9827370  46.5608500  53.7430620  96.9103200
  35.2355820  51.2119540  99.0188880  34.9468870  51.7822400  99.7313860
  35.9801580  50.7323990  99.3820110  35.4226050  55.1539660  90.2291600
  35.3400720  56.0970420  90.3706590  35.0709110  55.0114570  89.3503950
  46.7846790  57.2124490 100.8909460  46.0527910  57.7211300 101.2399560
  46.3871130  56.3954470 100.5898240  43.2224180  53.8878690  99.2961950
  43.2260240  53.4468640  98.4466490  44.1175300  54.2096020  99.4033770
  39.0726560  53.7705180  98.2556160  38.7326610  54.2480410  99.0123210
  38.3103880  53.3170300  97.8957260  43.2844330  54.8890770  92.2868710
  43.4057150  54.8477250  93.2354530  42.8992840  55.7514920  92.1315440
  47.2472700  52.6658170 100.3032400  47.2645440  53.1166820 101.1474250
  46.9988280  51.7663810 100.5165840  42.2965830  57.1991910  91.6852010
  41.7282730  56.7510160  91.0587920  43.0054830  57.5584690  91.1517160
  43.5232150  57.9480470 101.0427360  43.8902280  57.4739040 101.7888700
  43.3337210  58.8222040 101.3835700  36.3872640  52.6924160  97.1720830
  36.1019560  52.3279830  98.0099450  36.3251500  51.9604620  96.5583970
  39.8413310  61.1950100  93.9578420  39.0675570  60.6547720  93.7977140
  40.5707940  60.6756710  93.6196180  50.6001290  60.1915460  99.7504810
  51.3200410  60.6870750  99.3600920  50.3983110  59.5133350  99.1058680
  46.0611230  51.5853420  93.8934200  45.2475840  51.0866590  93.8179510
  45.8673180  52.4251670  93.4770550  48.7759620  55.9573070  92.1896360
  49.6639240  56.2690300  92.0147700  48.7464710  55.0845320  91.7976940
  39.8850710  60.8630480  97.5957230  40.4029380  60.0598740  97.5414120
  39.4334730  60.8009620  98.4374060  44.7720210  62.1296760  92.8684530
  45.1135910  62.8738990  92.3727850  43.9432920  62.4427880  93.2309360
  51.0473890  57.2684910  91.6576220  50.9637610  57.6999130  90.8072660
  51.7668080  57.7283260  92.0903040  52.0761140  64.1227170  94.3858350
  51.4337300  63.4682790  94.6602070  51.6891800  64.5282260  93.6099020
  47.6547620  61.4512600  98.2330040  48.0071440  60.8540730  97.5731410
  46.7709950  61.1256830  98.4038290  43.7410900  62.2110290  95.6400450
  44.4282030  62.7579500  96.0208040  42.9543320  62.7551020  95.6750060
  35.8803300  57.8283110  91.1317530  36.7498150  58.1107910  91.4153450
  35.3893620  58.6418980  91.0166340  43.0438110  59.2156320  95.2525810
  43.5000890  60.0261570  95.4786000  42.6926320  58.8979460  96.0844300
  38.9449890  49.5593970  95.7248330  38.8164520  49.5511870  96.6733250
  38.1211910  49.8977060  95.3739340  46.6202800  62.7295010 101.1995560
  47.2625030  62.0288170 101.3127730  47.1452150  63.5093450 101.0192450
  50.4658520  63.0143630  90.9234700  50.2396100  62.2974070  91.5159340
  50.0754720  62.7656070  90.0856450  36.2474550  67.0410490  91.6979160
  36.6072190  67.6399830  91.0436430  36.1066890  67.5870380  92.4714190
  50.0474770  60.9315570  92.5848860  49.7596470  61.3928260  93.3726740
  50.8426940  60.4713340  92.8533080  42.2643170  64.4241690  92.5152830
  42.2553270  65.1571380  91.8997340  41.3441530  64.1773270  92.6079790
  37.8649810  59.6456580  93.2599590  37.2577760  60.3855480  93.2694890
  38.3399160  59.7355940  92.4337790  50.8044630  52.7664340  93.7444040
  50.1757790  52.8710010  93.0302270  50.3096550  52.9861120  94.5337920
  45.2502770  64.4869930  91.1778020  45.3514750  64.2833920  90.2480000
  44.3504510  64.2328210  91.3825800  42.7728660  55.0450290  95.1601920
  42.0644810  55.5136630  95.6015530  43.0573140  54.3872300  95.7947110
  46.8044090  51.7700950  96.5997710  46.6811870  51.7887080  95.6507220
  47.7528650  51.8179890  96.7196110  43.8920880  67.0056250  95.8725690
  44.1462380  66.9677640  94.9505060  42.9433360  66.8789580  95.8653940
  40.9763680  53.3535370  92.5352630  41.8254210  53.7905520  92.4692820
  40.6094950  53.6655630  93.3624690  49.8973460  57.9248130  97.4484200
  48.9563600  57.9398360  97.6231890  50.2117530  57.1384090  97.8944500
  39.8755100  59.6067730  91.0088160  40.6418370  59.4949090  91.5713590
  39.9529790  58.9105700  90.3564930  38.5701860  57.0392800  91.6921050
  38.6505450  56.0920310  91.8038450  39.4621610  57.3699680  91.7981710
  51.8999040  65.0956980  99.1238460  52.0246460  65.9188150  99.5962270
  52.7664600  64.8847710  98.7762610  39.3716570  67.1888190  98.7955590
  40.1079050  66.6403650  99.0664160  39.7557490  68.0544200  98.6561580
  36.2562050  63.2561760  94.6697100  35.3301830  63.4982900  94.6602510
  36.7218480  64.0836020  94.5481850  42.4818880  66.3618500  90.6181160
  43.2747490  66.6507330  90.1662950  41.9623230  65.9310670  89.9393640
  51.5349050  65.5888630  92.0417900  51.2490560  65.1753770  91.2272080
  51.3368600  66.5176340  91.9218420  42.9996280  61.5821910  90.4823510
  42.8946920  60.9674260  91.2084890  42.8320500  61.0587800  89.6986520
  46.2399010  60.6441940  91.0865500  45.6909110  61.0911240  91.7308240
  46.8618270  60.1391190  91.6103170  41.9074130  59.6032860  92.9830800
  42.3290550  59.4372730  93.8262190  42.0324970  58.7933090  92.4885940
  44.4201770  58.6270470  90.2307900  44.9407430  57.9119490  89.8649050
  45.0670170  59.2656340  90.5308410  40.8033030  55.6766090  89.9288960
  40.6022090  54.8133450  90.2902300  40.6325080  55.5899450  88.9910560
  48.2821340  50.4874320  92.4575840  48.5623630  49.6442220  92.8135260
  47.5087070  50.7197430  92.9714590  39.6015830  52.7766710  89.9166840
  39.9041730  52.7834140  89.0085990  40.3410420  52.4264570  90.4134500
  42.8200760  51.7201330  90.9023040  42.4722760  51.0425320  90.3225490
  43.0213530  51.2590840  91.7166430  44.9849800  66.7082080  92.5209640
  45.8800590  67.0467050  92.5428400  45.0167430  65.9861490  91.8933920
  38.6245960  62.0809130  90.7496640  39.0620830  62.6238800  91.4054220
  39.1093690  61.2556080  90.7592980  35.8391760  64.8698160  98.2016900
  36.1694770  64.0019220  97.9695540  36.2682760  65.0756680  99.0321860
  40.4353680  63.2007170  95.8618870  40.1349220  63.0772140  96.7622780
  40.3291170  62.3415760  95.4534600  36.3281970  65.7368750 100.9398530
  35.8912960  65.9169550 101.7722680  36.8959650  66.4943370 100.7980250
  53.2045600  62.9803570  90.5645550  52.3738560  63.0480220  91.0352780
  53.3817430  63.8707690  90.2612410  52.6602060  59.7251050  93.0679750
  53.4220970  60.2947700  93.1739440  52.6756430  59.1578250  93.8388060
  36.1606400  58.2488980  97.2987410  35.5055240  57.9800620  96.6547110
  36.9984350  58.1393460  96.8489390  53.6662030  60.5801150  97.9121680
  54.0370860  59.7968470  97.5057650  54.3063960  61.2690250  97.7338980
  52.7121230  60.0185420  90.2252270  52.9870070  60.9264300  90.0971490
  52.5231970  59.9547950  91.1614260  49.1096840  53.0430270  91.5205900
  49.5281720  52.8561250  90.6802560  48.8032900  52.1909320  91.8308830
  52.6086570  57.9554410  95.2181700  52.2330170  57.1882340  94.7862990
  51.8789690  58.3377110  95.7056630  37.1982330  58.6341550 101.8390750
  37.5655370  58.5468950 102.7186770  36.6293150  57.8708100 101.7397610
  35.3744480  55.4587910  93.2412740  34.4708560  55.7218110  93.0664400
  35.8585100  55.7299080  92.4612700  51.8837530  56.1811900  98.5188940
  52.4075010  55.6874550  97.8879110  52.4696950  56.3162260  99.2636510
  52.0627250  56.2651770 102.0408490  51.1129960  56.2315310 102.1553480
  52.2440260  57.1751880 101.8058260  37.9171690  54.5153450  91.1507120
  38.6263390  54.0936670  90.6654400  37.2011630  54.5828680  90.5190470
  37.5645850  50.5692780  90.1909770  38.2873980  51.1101720  90.5090990
  37.8370370  50.2956200  89.3151310  51.3737500  55.4385250  94.4581350
  51.8696620  55.2056120  95.2430230  51.1753570  54.5997090  94.0418990
  37.2538040  49.8198970 100.0932390  37.9014230  49.2696350  99.6527550
  37.6739880  50.0742120 100.9148200  52.8024660  54.0746200  96.9919030
  52.6923940  53.9202240  97.9301300  53.5632250  53.5467140  96.7494440
  53.6914930  51.9054120  90.2325170  54.6164240  51.7735300  90.0243460
  53.6690720  51.9846940  91.1861620  53.7653420  52.6764780  92.8581880
  52.9704920  52.6109900  93.3874790  53.9696700  53.6115420  92.8467230
  50.7071840  66.7156330  96.8520270  51.3030910  66.3940900  96.1754690
  50.9649990  66.2428150  97.6433540  42.3140440  64.7033830 102.6020620
  42.0731800  64.9708390 101.7151140  43.2543080  64.8739560 102.6571480
  51.2584050  67.3651630 100.6818000  50.7987020  68.1167440 100.3076020
  50.6296510  66.6458100 100.6232800  41.6879770  65.6739870  99.8566130
  42.2044790  65.0627230  99.3314390  42.3377150  66.1768650 100.3477140
  44.4275270  66.5648360 100.6835110  44.7153080  66.3102660  99.8068120
  44.9398490  66.0125720 101.2740680  45.6452280  50.3038560 101.2631620
  44.8624070  50.7784060 101.5428380  45.3515210  49.3993390 101.1544800
  50.1973350  51.0061660  99.3080710  50.6381440  50.9506760  98.4602310
  49.9280940  51.9219670  99.3790890  52.0611920  50.6376900  97.3189530
  52.0000320  49.6938120  97.1720550  52.8403950  50.7456990  97.8642990
  36.3664670  66.7769260  96.2813480  36.1986710  66.1439940  96.9795370
  35.4999180  66.9828660  95.9307670  36.9892690  50.6086040  93.7845340
  37.7472050  50.7214920  93.2109370  36.5269860  51.4455240  93.7388770
  43.5306500  52.7225310  96.7747650  42.7181010  52.3482200  96.4343530
  44.0348140  51.9670390  97.0768840  48.0331480  49.3867760  98.0130720
  48.6360850  49.9587970  98.4879240  47.2924470  49.9507200  97.7904620
  51.1766080  49.7889320  93.2871000  51.3716710  50.6872770  93.5538430
  50.3895950  49.5576400  93.7803950  37.9727370  65.4702490  93.7263620
  37.4474990  65.8510520  93.0225580  37.8971950  66.0953260  94.4473330
  39.3617840  51.1350090  92.3247310  39.8910600  50.3479890  92.1955260
  39.9946160  51.8141280  92.5582840  41.5555680  50.8725230  95.3792700
  40.9258420  50.1712540  95.5462830  41.0160820  51.6329360  95.1625860
  52.7292690  67.0290030  95.0477560  52.9044880  66.3427770  94.4038480
  52.0314260  67.5537080  94.6554230  40.5720340  67.4184870  92.6012870
  41.3039160  67.1344150  92.0536760  40.8314010  67.1798150  93.4912250
  39.7335130  63.5349600  92.6059200  39.1044010  64.0034700  93.1545030
  39.8482960  62.6898820  93.0405390  47.1884850  57.5855260  78.7560400
  47.1078900  56.6709870  78.4852110  46.7749270  58.0822330  78.0500110
  45.3202890  59.3634280  80.6369670  44.5444990  58.8834720  80.9268240
  45.9715820  58.6839930  80.4625830  39.3368720  59.6754090  81.5145430
  38.5053600  59.4202800  81.9141940  39.9449700  59.7464860  82.2503350
  49.3410320  63.7694470  79.4168800  48.8791850  62.9981710  79.7455970
  50.1535870  63.7960540  79.9221250  39.3169980  63.7094180  81.7103450
  39.6198020  62.8191920  81.5313670  40.0613570  64.2664400  81.4825700
  37.7460670  54.6355980  75.2987820  36.8577370  54.9771950  75.1967700
  38.0301860  54.4356300  74.4068650  35.7093680  57.2361630  81.1827520
  36.2809790  56.4683830  81.1831160  35.7095220  57.5350390  80.2734130
  45.5673630  66.0552480  79.0372790  44.9485070  66.5109980  78.4667230
  46.4225410  66.2103940  78.6362490  44.7611880  62.0391470  80.6439830
  44.6920160  61.0981410  80.4828960  45.5231740  62.1292880  81.2162400
  36.9518550  52.6445990  82.9696450  36.7721390  51.7471740  83.2499210
  36.5498630  53.1917860  83.6443400  45.7917050  54.8461850  80.8708760
  46.1681870  53.9733730  80.7582430  45.6936560  55.1820550  79.9799200
  39.9222060  53.2187480  76.3326200  40.0288810  54.1191210  76.6394960
  39.0114420  53.1705450  76.0420850  49.5741170  52.3412290  77.8037100
  50.3950790  51.8508860  77.8462580  49.6075250  52.9309950  78.5568940
  37.5705220  55.1406490  81.5778790  38.2515330  55.4044860  82.1966190
  37.2553270  54.3007360  81.9116800  41.7629790  56.1873850  80.6651380
  42.2708010  56.6854820  81.3056400  42.2943030  55.4109050  80.4890740
  53.8640720  54.3579040  84.3680730  53.1592890  54.7460750  83.8495840
  54.1298640  55.0529330  84.9701660  40.0465890  50.8272410  84.9314800
  40.0484330  51.3444800  84.1260700  39.2170200  50.3502590  84.9084730
  46.4336980  60.9391720  76.4304700  45.8154250  61.4041170  75.8667420
  46.9460230  61.6319200  76.8474210  41.2968740  60.4667590  83.1088300
  40.9638120  61.0936510  83.7509370  41.4735420  60.9929470  82.3289970
  49.8102650  54.2812670  80.5764640  49.1058220  54.5697560  81.1567750
  50.1714810  55.0912780  80.2164200  39.7281220  52.5382370  82.9385250
  40.0698030  53.3824420  82.6439120  38.7897030  52.6866110  83.0550590
  40.5087840  62.4348390  84.9237480  41.1261840  63.1099470  84.6421930
  39.6480960  62.8436370  84.8324980  35.8020180  61.6248250  73.8044330
  35.4248160  62.1135350  73.0729230  36.0593250  62.2973530  74.4350860
  51.4265430  63.8987800  82.8392120  50.7428950  64.5686910  82.8308790
  51.9659720  64.0968450  82.0736980  52.8789570  53.7267460  80.9673850
  51.9314480  53.7606440  81.0989280  53.2039560  54.5406410  81.3523210
  43.4109110  50.0264640  79.2629840  43.7184090  49.4711530  78.5465340
  42.4809810  50.1609100  79.0802830  48.9624170  65.7431930  81.5537300
  48.9751330  65.3394220  80.6859560  48.4099390  66.5179220  81.4498730
  50.2569590  62.4648150  76.6427470  50.1465920  61.5222480  76.7676890
  50.2537840  62.8263790  77.5290230  48.3609610  60.6461770  82.8819910
  48.7778400  60.4321880  82.0473370  49.0849430  60.9034560  83.4528530
  45.7989870  58.0913470  75.9989960  44.8719150  58.0250850  76.2278430
  45.9514690  59.0293600  75.8845200  45.7858950  54.3630470  72.9957120
  44.8462620  54.5244430  73.0809580  46.1042210  55.0816150  72.4493110
  52.3071710  59.0448990  82.9736150  51.4790340  59.1142080  82.4986280
  52.9022190  59.6303300  82.5051980  49.8287160  59.6533770  76.5025210
  49.2099580  59.3153320  75.8551510  49.8111610  59.0093530  77.2104400
  49.2713720  55.8318310  83.9191020  48.8584900  56.6572020  84.1731010
  48.5389670  55.2463350  83.7267380  41.4046510  58.6178210  78.7809690
  41.0003510  57.9055460  78.2855590  41.4909630  58.2731450  79.6697730
  41.8728210  62.3045770  80.9448900  41.5756500  61.6991240  80.2656680
  42.8228030  62.3423080  80.8338260  40.1175130  55.3921420  82.5608730
  40.6689720  55.5016760  81.7861980  40.6318640  55.7659020  83.2763960
  49.9613820  65.8777640  84.6072000  49.4844380  66.6849830  84.4144610
  49.2775610  65.2255970  84.7598210  40.9646640  62.0427460  87.5956700
  40.0675170  62.2667430  87.8430100  40.9899510  62.1662400  86.6468100
  48.0051860  58.8920580  73.5097960  48.4445140  58.0543010  73.3635780
  48.7180280  59.5249980  73.5962100  39.7917860  58.9140780  86.1714070
  39.6525630  59.7863580  86.5401470  38.9099220  58.5713590  86.0262010
  46.1147240  63.8316650  77.4779200  46.5543150  64.5740980  77.0634590
  46.0534130  64.0743220  78.4018160  41.5898210  64.8562480  88.3799220
  41.5613640  65.2605430  87.5127650  41.4263180  63.9272840  88.2170820
  51.5869000  50.1463390  71.8239000  51.2741660  50.2390220  72.7238070
  52.3481470  50.7244420  71.7736430  38.1051140  57.5123190  76.2816340
  37.9848740  58.2385280  75.6697610  37.7952030  56.7426100  75.8044250
  53.5413030  65.6389580  89.6763390  54.0172750  66.1172470  90.3552470
  54.1620190  65.5707070  88.9508890  35.7436510  60.6838330  82.0884980
  35.8216930  60.8187100  81.1440700  36.3578190  59.9754220  82.2813100
  36.9884140  62.3838520  78.4991160  36.5812220  62.5253110  77.6444760
  37.8797150  62.0998680  78.2962370  52.9446280  62.8302430  86.8363400
  53.0709340  62.5914310  85.9180580  52.9867660  61.9986970  87.3085480
  46.8063020  66.5330430  85.4058210  47.3207690  66.4438440  86.2080640
  45.9632100  66.8790130  85.6986120  48.7817420  66.8185770  74.8342210
  48.6218560  66.5288710  75.7324040  48.6164130  66.0425900  74.2987440
  41.2605800  66.5984300  76.6113830  41.0848280  65.6819840  76.3981630
  40.4061540  66.9571590  76.8511630  48.4843550  64.3273330  73.3940210
  47.7908710  64.3250620  72.7342490  49.2266410  63.9032650  72.9634380
  48.0493480  65.9536040  77.4688700  48.5050430  65.1725420  77.7827320
  48.3886000  66.6642860  78.0129880  52.7970290  54.8834890  87.8013140
  52.1814560  55.3914560  87.2728600  52.4766710  53.9833220  87.7439080
  35.7996030  61.7252500  84.6279440  35.9627070  61.2557860  83.8098810
  36.2648480  61.2176060  85.2928280  40.5714800  50.8558260  79.6640010
  40.1282950  51.6367800  79.3324530  41.1299790  51.1788150  80.3710950
  44.8584610  53.7226780  85.2675330  44.3963980  53.9309800  86.0795270
  44.4562720  52.9086130  84.9646000  49.8589120  54.9435730  86.3971990
  49.0082710  54.6441480  86.7181060  49.6990910  55.1877740  85.4855810
  46.9538830  56.4437480  88.4970780  47.2792240  55.6101230  88.1573010
  47.7419160  56.9666000  88.6449110  43.6873620  50.4768960  74.5445840
  43.0627800  50.4728830  75.2699150  43.6003740  49.6099920  74.1481810
  42.6090700  51.4005590  81.5229610  42.9063030  52.3068420  81.4421630
  43.1576260  50.9124370  80.9089180  40.3629020  55.9791830  77.3921260
  40.1369940  55.7629000  78.2967880  39.5821550  56.4120290  77.0467230
  47.5926780  55.9855200  75.9911910  46.9935670  56.7091000  75.8075530
  48.1406390  55.9231980  75.2088360  42.8028230  56.8777410  88.0581530
  42.7071830  55.9372140  87.9081930  43.6460210  57.0992480  87.6629600
  46.1991650  54.6218740  78.0215190  46.5921220  54.9390940  77.2083880
  46.5608500  53.7430620  78.1359710  37.9338770  53.2891080  86.2115310
  37.5402160  54.1366290  86.4188090  37.2457170  52.6517450  86.4023950
  44.5083820  53.3726050  89.2812050  43.8182140  53.1798250  89.9158140
  45.2516120  53.6560690  89.8136350  35.2355820  51.2119540  80.2445390
  34.9468870  51.7822400  80.9570370  35.9801580  50.7323990  80.6076620
  35.4226050  55.1539660  71.4548110  35.3400720  56.0970420  71.5963100
  35.0709110  55.0114570  70.5760460  46.7846790  57.2124490  82.1165970
  46.0527910  57.7211300  82.4656070  46.3871130  56.3954470  81.8154750
  43.2224180  53.8878690  80.5218460  43.2260240  53.4468640  79.6723000
  44.1175300  54.2096020  80.6290280  39.0726560  53.7705180  79.4812670
  38.7326610  54.2480410  80.2379720  38.3103880  53.3170300  79.1213770
  43.2844330  54.8890770  73.5125220  43.4057150  54.8477250  74.4611040
  42.8992840  55.7514920  73.3571950  47.2472700  52.6658170  81.5288910
  47.2645440  53.1166820  82.3730760  46.9988280  51.7663810  81.7422350
  42.2965830  57.1991910  72.9108520  41.7282730  56.7510160  72.2844430
  43.0054830  57.5584690  72.3773670  50.6743450  50.0790350  87.3675290
  50.9989220  49.3480010  87.8933270  50.7099960  49.7603990  86.4656280
  37.3735010  61.1003930  86.7875250  36.9889800  60.4597600  87.3858210
  37.6847200  61.8040050  87.3569980  43.5232150  57.9480470  82.2683870
  43.8902280  57.4739040  83.0145210  43.3337210  58.8222040  82.6092210
  36.3872640  52.6924160  78.3977340  36.1019560  52.3279830  79.2355960
  36.3251500  51.9604620  77.7840480  41.3131520  56.9889110  84.5868080
  41.0088590  57.8681090  84.8118440  42.2677980  57.0488900  84.6225520
  39.8413310  61.1950100  75.1834930  39.0675570  60.6547720  75.0233650
  40.5707940  60.6756710  74.8452690  50.6001290  60.1915460  80.9761320
  51.3200410  60.6870750  80.5857430  50.3983110  59.5133350  80.3315190
  46.0611230  51.5853420  75.1190710  45.2475840  51.0866590  75.0436020
  45.8673180  52.4251670  74.7027060  45.9820090  60.2624520  86.8630320
  45.9157400  59.3420190  86.6087910  45.3525230  60.3599960  87.5774960
  48.7759620  55.9573070  73.4152870  49.6639240  56.2690300  73.2404210
  48.7464710  55.0845320  73.0233450  39.8850710  60.8630480  78.8213740
  40.4029380  60.0598740  78.7670630  39.4334730  60.8009620  79.6630570
  44.7720210  62.1296760  74.0941040  45.1135910  62.8738990  73.5984360
  43.9432920  62.4427880  74.4565870  37.3695250  57.8291850  85.7339440
  37.0110190  58.4945700  86.3212780  37.0749810  56.9975400  86.1052060
  40.5708370  58.2876090  88.6178990  40.2708510  58.4333270  87.7206810
  41.3419610  57.7281380  88.5252380  45.9136820  63.0845090  86.6134120
  45.9281360  62.1526050  86.3953030  45.2061920  63.1704850  87.2523890
  51.0473890  57.2684910  72.8832730  50.9637610  57.6999130  72.0329170
  51.7668080  57.7283260  73.3159550  52.1248030  59.7252430  85.9602700
  51.3996220  60.3181210  85.7632090  52.6523490  59.7175970  85.1616070
  52.0761140  64.1227170  75.6114860  51.4337300  63.4682790  75.8858580
  51.6891800  64.5282260  74.8355530  47.6547620  61.4512600  79.4586550
  48.0071440  60.8540730  78.7987920  46.7709950  61.1256830  79.6294800
  43.7410900  62.2110290  76.8656960  44.4282030  62.7579500  77.2464550
  42.9543320  62.7551020  76.9006570  35.8803300  57.8283110  72.3574040
  36.7498150  58.1107910  72.6409960  35.3893620  58.6418980  72.2422850
  43.0438110  59.2156320  76.4782320  43.5000890  60.0261570  76.7042510
  42.6926320  58.8979460  77.3100810  45.3470720  64.7262660  83.7074620
  45.9912940  64.9322040  84.3848040  45.7100160  63.9651060  83.2545470
  38.9449890  49.5593970  76.9504840  38.8164520  49.5511870  77.8989760
  38.1211910  49.8977060  76.5995850  46.6202800  62.7295010  82.4252070
  47.2625030  62.0288170  82.5384240  47.1452150  63.5093450  82.2448960
  50.4658520  63.0143630  72.1491210  50.2396100  62.2974070  72.7415850
  50.0754720  62.7656070  71.3112960  48.3940420  63.5289910  85.6288130
  48.7296660  64.1156600  86.3066050  47.4740760  63.3982620  85.8585920
  36.2474550  67.0410490  72.9235670  36.6072190  67.6399830  72.2692940
  36.1066890  67.5870380  73.6970700  35.9443820  51.3185090  86.4111540
  35.2302340  51.5182010  87.0164150  36.3638860  50.5424660  86.7826340
  50.0474770  60.9315570  73.8105370  49.7596470  61.3928260  74.5983250
  50.8426940  60.4713340  74.0789590  36.2316410  65.3065350  87.3978070
  36.3407530  64.3660090  87.2573460  35.5796970  65.5720100  86.7491800
  44.2229000  63.5781240  88.7976190  43.9025870  62.8590480  89.3421880
  43.5487360  64.2536310  88.8712250  42.2643170  64.4241690  73.7409340
  42.2553270  65.1571380  73.1253850  41.3441530  64.1773270  73.8336300
  37.8649810  59.6456580  74.4856100  37.2577760  60.3855480  74.4951400
  38.3399160  59.7355940  73.6594300  47.4382600  53.8107400  84.1612990
  47.8063420  52.9902610  84.4892560  46.5780800  53.8709290  84.5768640
  50.8044630  52.7664340  74.9700550  50.1757790  52.8710010  74.2558780
  50.3096550  52.9861120  75.7594430  45.2502770  64.4869930  72.4034530
  45.3514750  64.2833920  71.4736510  44.3504510  64.2328210  72.6082310
  42.7728660  55.0450290  76.3858430  42.0644810  55.5136630  76.8272040
  43.0573140  54.3872300  77.0203620  44.3984590  56.4646990  84.3850960
  44.8969840  56.9392810  85.0502810  44.5407540  55.5410510  84.5920990
  46.8044090  51.7700950  77.8254220  46.6811870  51.7887080  76.8763730
  47.7528650  51.8179890  77.9452620  43.8920880  67.0056250  77.0982200
  44.1462380  66.9677640  76.1761570  42.9433360  66.8789580  77.0910450
  40.9763680  53.3535370  73.7609140  41.8254210  53.7905520  73.6949330
  40.6094950  53.6655630  74.5881200  51.6051450  52.6814950  85.2279350
  51.1025050  53.4220350  85.5673160  52.4208110  53.0698950  84.9116140
  49.8973460  57.9248130  78.6740710  48.9563600  57.9398360  78.8488400
  50.2117530  57.1384090  79.1201010  39.8755100  59.6067730  72.2344670
  40.6418370  59.4949090  72.7970100  39.9529790  58.9105700  71.5821440
  38.5701860  57.0392800  72.9177560  38.6505450  56.0920310  73.0294960
  39.4621610  57.3699680  73.0238220  51.8999040  65.0956980  80.3494970
  52.0246460  65.9188150  80.8218780  52.7664600  64.8847710  80.0019120
  39.3716570  67.1888190  80.0212100  40.1079050  66.6403650  80.2920670
  39.7557490  68.0544200  79.8818090  36.2562050  63.2561760  75.8953610
  35.3301830  63.4982900  75.8859020  36.7218480  64.0836020  75.7738360
  38.3774850  66.3734260  89.2097680  39.1787580  66.6946310  89.6233080
  37.8626670  66.0129840  89.9317590  42.4818880  66.3618500  71.8437670
  43.2747490  66.6507330  71.3919460  41.9623230  65.9310670  71.1650150
  47.2139480  62.4814130  89.1573090  46.6077640  62.5045730  88.4168840
  46.9093590  61.7497170  89.6940340  48.6439850  66.2094420  87.7682500
  49.5961600  66.1252440  87.7182740  48.4968070  66.8736130  88.4416290
  51.5349050  65.5888630  73.2674410  51.2490560  65.1753770  72.4528590
  51.3368600  66.5176340  73.1474930  36.0972660  58.8607720  88.1533730
  36.6011680  58.2815000  88.7249960  35.3580080  59.1447950  88.6910100
  42.9996280  61.5821910  71.7080020  42.8946920  60.9674260  72.4341400
  42.8320500  61.0587800  70.9243030  43.1510600  60.2678710  87.6869250
  42.3856270  60.8363710  87.6023920  43.3326560  59.9754920  86.7937480
  46.2399010  60.6441940  72.3122010  45.6909110  61.0911240  72.9564750
  46.8618270  60.1391190  72.8359680  50.2933950  61.9984040  88.2444270
  51.0343420  62.3359800  87.7411730  49.5306630  62.1676100  87.6914040
  38.1295740  57.0037310  89.0483800  38.1701080  56.7051180  89.9569030
  38.9841240  57.4044920  88.8891320  41.9074130  59.6032860  74.2087310
  42.3290550  59.4372730  75.0518700  42.0324970  58.7933090  73.7142450
  40.0701550  55.5829410  87.0158290  39.5398010  55.0920360  86.3881630
  40.7389620  56.0113610  86.4816220  44.4201770  58.6270470  71.4564410
  44.9407430  57.9119490  71.0905560  45.0670170  59.2656340  71.7564920
  48.9679610  60.0498870  86.7799480  49.3820630  60.2043950  87.6289900
  48.0330610  60.1754090  86.9425260  49.4401780  57.3895030  88.7838630
  50.0222550  56.6347350  88.6959110  49.6163550  57.9202470  88.0070110
  40.5573850  52.5491780  87.0955580  40.4630720  51.9312530  86.3706450
  39.9771240  53.2758070  86.8685490  43.3235290  51.1065020  84.1282970
  42.8752590  51.1289280  83.2828520  42.6900490  50.7084040  84.7253270
  43.7294840  60.0019350  84.7495410  44.1482950  60.8452080  84.5771650
  42.8103470  60.1391390  84.5202190  46.0658740  57.7335530  86.1333250
  46.1854950  57.1376670  86.8728090  46.9252740  57.7705220  85.7134550
  48.4046640  58.2872720  84.7095760  47.8781860  58.8115340  84.1060900
  48.7477980  58.9200110  85.3405490  40.8033030  55.6766090  71.1545470
  40.6022090  54.8133450  71.5158810  40.6325080  55.5899450  70.2167070
  41.5802260  66.3072360  85.8653140  41.0423350  67.0318420  85.5461840
  41.8336220  65.8302700  85.0750480  42.8327510  54.2756880  87.3909070
  43.4227200  53.9672730  88.0786890  42.0147750  53.8036630  87.5468970
  47.6520940  53.8922690  87.6242090  46.9636460  53.2304230  87.5592080
  48.3726960  53.4460960  88.0690550  48.2821340  50.4874320  73.6832350
  48.5623630  49.6442220  74.0391770  47.5087070  50.7197430  74.1971100
  39.6015830  52.7766710  71.1423350  39.9041730  52.7834140  70.2342500
  40.3410420  52.4264570  71.6391010  44.4364470  67.5423570  86.1239790
  44.3623170  68.4458710  86.4312160  43.5343310  67.2235470  86.0961860
  42.8200760  51.7201330  72.1279550  42.4722760  51.0425320  71.5482000
  43.0213530  51.2590840  72.9422940  44.9849800  66.7082080  73.7466150
  45.8800590  67.0467050  73.7684910  45.0167430  65.9861490  73.1190430
  38.6245960  62.0809130  71.9753150  39.0620830  62.6238800  72.6310730
  39.1093690  61.2556080  71.9849490  35.8391760  64.8698160  79.4273410
  36.1694770  64.0019220  79.1952050  36.2682760  65.0756680  80.2578370
  40.4353680  63.2007170  77.0875380  40.1349220  63.0772140  77.9879290
  40.3291170  62.3415760  76.6791110  36.3281970  65.7368750  82.1655040
  35.8912960  65.9169550  82.9979190  36.8959650  66.4943370  82.0236760
  51.9644150  65.2385750  86.4532350  51.3646140  65.2978310  85.7096270
  52.0938050  64.2990730  86.5829200  53.2045600  62.9803570  71.7902060
  52.3738560  63.0480220  72.2609290  53.3817430  63.8707690  71.4868920
  52.6602060  59.7251050  74.2936260  53.4220970  60.2947700  74.3995950
  52.6756430  59.1578250  75.0644570  36.1606400  58.2488980  78.5243920
  35.5055240  57.9800620  77.8803620  36.9984350  58.1393460  78.0745900
  53.6662030  60.5801150  79.1378190  54.0370860  59.7968470  78.7314160
  54.3063960  61.2690250  78.9595490  50.6495790  61.9637730  84.5508510
  49.8355630  62.3934890  84.8134300  51.0569990  62.5756140  83.9377560
  52.7121230  60.0185420  71.4508780  52.9870070  60.9264300  71.3228000
  52.5231970  59.9547950  72.3870770  49.1096840  53.0430270  72.7462410
  49.5281720  52.8561250  71.9059070  48.8032900  52.1909320  73.0565340
  52.6086570  57.9554410  76.4438210  52.2330170  57.1882340  76.0119500
  51.8789690  58.3377110  76.9313140  37.1982330  58.6341550  83.0647260
  37.5655370  58.5468950  83.9443280  36.6293150  57.8708100  82.9654120
  51.9986190  57.1025930  86.0777730  51.7672280  56.8738680  85.1775680
  52.2590740  58.0225480  86.0322620  36.7498330  55.5450640  86.9705680
  35.8554380  55.5117400  87.3099390  37.2895880  55.7437430  87.7356930
  50.4374260  52.3282360  88.8557430  51.3144440  52.3365760  89.2391430
  50.4495100  51.5913200  88.2449780  35.3744480  55.4587910  74.4669250
  34.4708560  55.7218110  74.2920910  35.8585100  55.7299080  73.6869210
  51.8837530  56.1811900  79.7445450  52.4075010  55.6874550  79.1135620
  52.4696950  56.3162260  80.4893020  52.0627250  56.2651770  83.2665000
  51.1129960  56.2315310  83.3809990  52.2440260  57.1751880  83.0314770
  37.9171690  54.5153450  72.3763630  38.6263390  54.0936670  71.8910910
  37.2011630  54.5828680  71.7446980  37.5645850  50.5692780  71.4166280
  38.2873980  51.1101720  71.7347500  37.8370370  50.2956200  70.5407820
  51.3737500  55.4385250  75.6837860  51.8696620  55.2056120  76.4686740
  51.1753570  54.5997090  75.2675500  37.2538040  49.8198970  81.3188900
  37.9014230  49.2696350  80.8784060  37.6739880  50.0742120  82.1404710
  52.8024660  54.0746200  78.2175540  52.6923940  53.9202240  79.1557810
  53.5632250  53.5467140  77.9750950  51.1490380  50.0140330  84.6758540
  51.7862600  50.6274470  85.0417730  51.2965270  50.0500990  83.7307770
  53.6914930  51.9054120  71.4581680  54.6164240  51.7735300  71.2499970
  53.6690720  51.9846940  72.4118130  53.7653420  52.6764780  74.0838390
  52.9704920  52.6109900  74.6131300  53.9696700  53.6115420  74.0723740
  50.7071840  66.7156330  78.0776780  51.3030910  66.3940900  77.4011200
  50.9649990  66.2428150  78.8690050  37.0070040  49.9754640  84.0614220
  36.6584860  50.4318460  84.8272400  36.6757740  49.0811770  84.1436650
  38.6134410  63.1474240  88.2267410  38.5704040  62.7767150  89.1081870
  38.7445420  64.0851810  88.3669230  42.3140440  64.7033830  83.8277130
  42.0731800  64.9708390  82.9407650  43.2543080  64.8739560  83.8827990
  44.5194860  51.1666520  87.5833640  44.4583750  51.7588350  88.3329050
  45.4595240  51.0592480  87.4383900  47.1569420  50.8236580  87.2225930
  47.7709830  51.1415870  86.5607010  47.7018980  50.3385170  87.8421790
  37.6790680  49.5030840  87.3364990  38.2273670  49.3218890  86.5731100
  37.7445990  48.7124950  87.8721300  38.4522440  66.0936490  85.3465190
  37.8582760  65.9621190  86.0855230  38.4446280  65.2574630  84.8807290
  47.8977460  49.3868720  83.5495220  47.0237300  49.7203830  83.3468150
  47.7888210  48.9141900  84.3747090  48.8049440  51.5939590  84.9336940
  48.4762800  50.7791350  84.5538670  49.7531740  51.5509400  84.8102630
  51.2584050  67.3651630  81.9074510  50.7987020  68.1167440  81.5332530
  50.6296510  66.6458100  81.8489310  38.0834670  63.4594870  84.2973230
  37.3568730  62.8400160  84.2299180  38.1443820  63.8535480  83.4271310
  41.6879770  65.6739870  81.0822640  42.2044790  65.0627230  80.5570900
  42.3377150  66.1768650  81.5733650  44.4275270  66.5648360  81.9091620
  44.7153080  66.3102660  81.0324630  44.9398490  66.0125720  82.4997190
  45.6452280  50.3038560  82.4888130  44.8624070  50.7784060  82.7684890
  45.3515210  49.3993390  82.3801310  50.1973350  51.0061660  80.5337220
  50.6381440  50.9506760  79.6858820  49.9280940  51.9219670  80.6047400
  52.0611920  50.6376900  78.5446040  52.0000320  49.6938120  78.3977060
  52.8403950  50.7456990  79.0899500  36.3664670  66.7769260  77.5069990
  36.1986710  66.1439940  78.2051880  35.4999180  66.9828660  77.1564180
  36.9892690  50.6086040  75.0101850  37.7472050  50.7214920  74.4365880
  36.5269860  51.4455240  74.9645280  43.5306500  52.7225310  78.0004160
  42.7181010  52.3482200  77.6600040  44.0348140  51.9670390  78.3025350
  48.0331480  49.3867760  79.2387230  48.6360850  49.9587970  79.7135750
  47.2924470  49.9507200  79.0161130  51.1766080  49.7889320  74.5127510
  51.3716710  50.6872770  74.7794940  50.3895950  49.5576400  75.0060460
  37.9727370  65.4702490  74.9520130  37.4474990  65.8510520  74.2482090
  37.8971950  66.0953260  75.6729840  39.3617840  51.1350090  73.5503820
  39.8910600  50.3479890  73.4211770  39.9946160  51.8141280  73.7839350
  41.5555680  50.8725230  76.6049210  40.9258420  50.1712540  76.7719340
  41.0160820  51.6329360  76.3882370  44.4947630  67.4864460  89.2759820
  45.4214940  67.2508730  89.3195780  44.4798060  68.3136460  88.7945850
  52.7292690  67.0290030  76.2734070  52.9044880  66.3427770  75.6294990
  52.0314260  67.5537080  75.8810740  41.6811240  50.1509210  89.0401700
  41.3995510  50.6542810  88.2762520  42.0630940  49.3530960  88.6743830
  40.5720340  67.4184870  73.8269380  41.3039160  67.1344150  73.2793270
  40.8314010  67.1798150  74.7168760  39.7335130  63.5349600  73.8315710
  39.1044010  64.0034700  74.3801540  39.8482960  62.6898820  74.2661900
  48.2826700  49.5662790  89.6182170  48.1692150  49.8857400  90.5133690
  49.0996440  49.9675300  89.3219450  51.0625190  66.7134320  89.1000860
  51.8550510  66.2183550  88.8926820  51.3558340  67.3924460  89.7076470
  47.1884850  57.5855260  59.9816910  47.1078900  56.6709870  59.7108620
  46.7749270  58.0822330  59.2756620  36.9518550  52.6445990  64.1952960
  36.7721390  51.7471740  64.4755720  36.5498630  53.1917860  64.8699910
  45.7917050  54.8461850  62.0965270  46.1681870  53.9733730  61.9838940
  45.6936560  55.1820550  61.2055710  53.8640720  54.3579040  65.5937240
  53.1592890  54.7460750  65.0752350  54.1298640  55.0529330  66.1958170
  40.0465890  50.8272410  66.1571310  40.0484330  51.3444800  65.3517210
  39.2170200  50.3502590  66.1341240  51.4265430  63.8987800  64.0648630
  50.7428950  64.5686910  64.0565300  51.9659720  64.0968450  63.2993490
  43.4109110  50.0264640  60.4886350  43.7184090  49.4711530  59.7721850
  42.4809810  50.1609100  60.3059340  45.7858950  54.3630470  54.2213630
  44.8462620  54.5244430  54.3066090  46.1042210  55.0816150  53.6749620
  52.3071710  59.0448990  64.1992660  51.4790340  59.1142080  63.7242790
  52.9022190  59.6303300  63.7308490  49.2713720  55.8318310  65.1447530
  48.8584900  56.6572020  65.3987520  48.5389670  55.2463350  64.9523890
  39.7917860  58.9140780  67.3970580  39.6525630  59.7863580  67.7657980
  38.9099220  58.5713590  67.2518520  41.5898210  64.8562480  69.6055730
  41.5613640  65.2605430  68.7384160  41.4263180  63.9272840  69.4427330
  53.5413030  65.6389580  70.9019900  54.0172750  66.1172470  71.5808980
  54.1620190  65.5707070  70.1765400  35.7436510  60.6838330  63.3141490
  35.8216930  60.8187100  62.3697210  36.3578190  59.9754220  63.5069610
  52.9446280  62.8302430  68.0619910  53.0709340  62.5914310  67.1437090
  52.9867660  61.9986970  68.5341990  52.7970290  54.8834890  69.0269650
  52.1814560  55.3914560  68.4985110  52.4766710  53.9833220  68.9695590
  35.7996030  61.7252500  65.8535950  35.9627070  61.2557860  65.0355320
  36.2648480  61.2176060  66.5184790  40.5714800  50.8558260  60.8896520
  40.1282950  51.6367800  60.5581040  41.1299790  51.1788150  61.5967460
  44.8584610  53.7226780  66.4931840  44.3963980  53.9309800  67.3051780
  44.4562720  52.9086130  66.1902510  49.8589120  54.9435730  67.6228500
  49.0082710  54.6441480  67.9437570  49.6990910  55.1877740  66.7112320
  46.9538830  56.4437480  69.7227290  47.2792240  55.6101230  69.3829520
  47.7419160  56.9666000  69.8705620  43.6873620  50.4768960  55.7702350
  43.0627800  50.4728830  56.4955660  43.6003740  49.6099920  55.3738320
  42.6090700  51.4005590  62.7486120  42.9063030  52.3068420  62.6678140
  43.1576260  50.9124370  62.1345690  47.5926780  55.9855200  57.2168420
  46.9935670  56.7091000  57.0332040  48.1406390  55.9231980  56.4344870
  42.8028230  56.8777410  69.2838040  42.7071830  55.9372140  69.1338440
  43.6460210  57.0992480  68.8886110  46.1991650  54.6218740  59.2471700
  46.5921220  54.9390940  58.4340390  46.5608500  53.7430620  59.3616220
  37.9338770  53.2891080  67.4371820  37.5402160  54.1366290  67.6444600
  37.2457170  52.6517450  67.6280460  44.5083820  53.3726050  70.5068560
  43.8182140  53.1798250  71.1414650  45.2516120  53.6560690  71.0392860
  35.2355820  51.2119540  61.4701900  34.9468870  51.7822400  62.1826880
  35.9801580  50.7323990  61.8333130  43.2224180  53.8878690  61.7474970
  43.2260240  53.4468640  60.8979510  44.1175300  54.2096020  61.8546790
  43.2844330  54.8890770  54.7381730  43.4057150  54.8477250  55.6867550
  42.8992840  55.7514920  54.5828460  50.6743450  50.0790350  68.5931800
  50.9989220  49.3480010  69.1189780  50.7099960  49.7603990  67.6912790
  37.3735010  61.1003930  68.0131760  36.9889800  60.4597600  68.6114720
  37.6847200  61.8040050  68.5826490  46.0611230  51.5853420  56.3447220
  45.2475840  51.0866590  56.2692530  45.8673180  52.4251670  55.9283570
  37.3695250  57.8291850  66.9595950  37.0110190  58.4945700  67.5469290
  37.0749810  56.9975400  67.3308570  40.5708370  58.2876090  69.8435500
  40.2708510  58.4333270  68.9463320  41.3419610  57.7281380  69.7508890
  45.9136820  63.0845090  67.8390630  45.9281360  62.1526050  67.6209540
  45.2061920  63.1704850  68.4780400  52.1248030  59.7252430  67.1859210
  51.3996220  60.3181210  66.9888600  52.6523490  59.7175970  66.3872580
  52.0761140  64.1227170  56.8371370  51.4337300  63.4682790  57.1115090
  51.6891800  64.5282260  56.0612040  38.9449890  49.5593970  58.1761350
  38.8164520  49.5511870  59.1246270  38.1211910  49.8977060  57.8252360
  48.3940420  63.5289910  66.8544640  48.7296660  64.1156600  67.5322560
  47.4740760  63.3982620  67.0842430  35.9443820  51.3185090  67.6368050
  35.2302340  51.5182010  68.2420660  36.3638860  50.5424660  68.0082850
  36.2316410  65.3065350  68.6234580  36.3407530  64.3660090  68.4829970
  35.5796970  65.5720100  67.9748310  44.2229000  63.5781240  70.0232700
  43.9025870  62.8590480  70.5678390  43.5487360  64.2536310  70.0968760
  47.4382600  53.8107400  65.3869500  47.8063420  52.9902610  65.7149070
  46.5780800  53.8709290  65.8025150  40.9763680  53.3535370  54.9865650
  41.8254210  53.7905520  54.9205840  40.6094950  53.6655630  55.8137710
  51.6051450  52.6814950  66.4535860  51.1025050  53.4220350  66.7929670
  52.4208110  53.0698950  66.1372650  39.3716570  67.1888190  61.2468610
  40.1079050  66.6403650  61.5177180  39.7557490  68.0544200  61.1074600
  38.3774850  66.3734260  70.4354190  39.1787580  66.6946310  70.8489590
  37.8626670  66.0129840  71.1574100  47.2139480  62.4814130  70.3829600
  46.6077640  62.5045730  69.6425350  46.9093590  61.7497170  70.9196850
  36.0972660  58.8607720  69.3790240  36.6011680  58.2815000  69.9506470
  35.3580080  59.1447950  69.9166610  50.2933950  61.9984040  69.4700780
  51.0343420  62.3359800  68.9668240  49.5306630  62.1676100  68.9170550
  38.1295740  57.0037310  70.2740310  38.1701080  56.7051180  71.1825540
  38.9841240  57.4044920  70.1147830  40.0701550  55.5829410  68.2414800
  39.5398010  55.0920360  67.6138140  40.7389620  56.0113610  67.7072730
  48.9679610  60.0498870  68.0055990  49.3820630  60.2043950  68.8546410
  48.0330610  60.1754090  68.1681770  49.4401780  57.3895030  70.0095140
  50.0222550  56.6347350  69.9215620  49.6163550  57.9202470  69.2326620
  40.5573850  52.5491780  68.3212090  40.4630720  51.9312530  67.5962960
  39.9771240  53.2758070  68.0942000  43.3235290  51.1065020  65.3539480
  42.8752590  51.1289280  64.5085030  42.6900490  50.7084040  65.9509780
  48.4046640  58.2872720  65.9352270  47.8781860  58.8115340  65.3317410
  48.7477980  58.9200110  66.5662000  40.8033030  55.6766090  52.3801980
  40.6022090  54.8133450  52.7415320  40.6325080  55.5899450  51.4423580
  41.5802260  66.3072360  67.0909650  41.0423350  67.0318420  66.7718350
  41.8336220  65.8302700  66.3006990  42.8327510  54.2756880  68.6165580
  43.4227200  53.9672730  69.3043400  42.0147750  53.8036630  68.7725480
  47.6520940  53.8922690  68.8498600  46.9636460  53.2304230  68.7848590
  48.3726960  53.4460960  69.2947060  39.6015830  52.7766710  52.3679860
  39.9041730  52.7834140  51.4599010  40.3410420  52.4264570  52.8647520
  42.8200760  51.7201330  53.3536060  42.4722760  51.0425320  52.7738510
  43.0213530  51.2590840  54.1679450  36.3281970  65.7368750  63.3911550
  35.8912960  65.9169550  64.2235700  36.8959650  66.4943370  63.2493270
  50.6495790  61.9637730  65.7765020  49.8355630  62.3934890  66.0390810
  51.0569990  62.5756140  65.1634070  51.9986190  57.1025930  67.3034240
  51.7672280  56.8738680  66.4032190  52.2590740  58.0225480  67.2579130
  36.7498330  55.5450640  68.1962190  35.8554380  55.5117400  68.5355900
  37.2895880  55.7437430  68.9613440  50.4374260  52.3282360  70.0813940
  51.3144440  52.3365760  70.4647940  50.4495100  51.5913200  69.4706290
  51.8837530  56.1811900  60.9701960  52.4075010  55.6874550  60.3392130
  52.4696950  56.3162260  61.7149530  52.0627250  56.2651770  64.4921510
  51.1129960  56.2315310  64.6066500  52.2440260  57.1751880  64.2571280
  37.5645850  50.5692780  52.6422790  38.2873980  51.1101720  52.9604010
  37.8370370  50.2956200  51.7664330  37.2538040  49.8198970  62.5445410
  37.9014230  49.2696350  62.1040570  37.6739880  50.0742120  63.3661220
  37.0070040  49.9754640  65.2870730  36.6584860  50.4318460  66.0528910
  36.6757740  49.0811770  65.3693160  38.6134410  63.1474240  69.4523920
  38.5704040  62.7767150  70.3338380  38.7445420  64.0851810  69.5925740
  44.5194860  51.1666520  68.8090150  44.4583750  51.7588350  69.5585560
  45.4595240  51.0592480  68.6640410  47.1569420  50.8236580  68.4482440
  47.7709830  51.1415870  67.7863520  47.7018980  50.3385170  69.0678300
  37.6790680  49.5030840  68.5621500  38.2273670  49.3218890  67.7987610
  37.7445990  48.7124950  69.0977810  38.4522440  66.0936490  66.5721700
  37.8582760  65.9621190  67.3111740  38.4446280  65.2574630  66.1063800
  47.8977460  49.3868720  64.7751730  47.0237300  49.7203830  64.5724660
  47.7888210  48.9141900  65.6003600  48.8049440  51.5939590  66.1593450
  48.4762800  50.7791350  65.7795180  49.7531740  51.5509400  66.0359140
  38.0834670  63.4594870  65.5229740  37.3568730  62.8400160  65.4555690
  38.1443820  63.8535480  64.6527820  41.6879770  65.6739870  62.3079150
  42.2044790  65.0627230  61.7827410  42.3377150  66.1768650  62.7990160
  45.6452280  50.3038560  63.7144640  44.8624070  50.7784060  63.9941400
  45.3515210  49.3993390  63.6057820  36.9892690  50.6086040  56.2358360
  37.7472050  50.7214920  55.6622390  36.5269860  51.4455240  56.1901790
  43.5306500  52.7225310  59.2260670  42.7181010  52.3482200  58.8856550
  44.0348140  51.9670390  59.5281860  39.3617840  51.1350090  54.7760330
  39.8910600  50.3479890  54.6468280  39.9946160  51.8141280  55.0095860
  41.5555680  50.8725230  57.8305720  40.9258420  50.1712540  57.9975850
  41.0160820  51.6329360  57.6138880  44.4947630  67.4864460  70.5016330
  45.4214940  67.2508730  70.5452290  44.4798060  68.3136460  70.0202360
  41.6811240  50.1509210  70.2658210  41.3995510  50.6542810  69.5019030
  42.0630940  49.3530960  69.9000340  48.2826700  49.5662790  70.8438680
  48.1692150  49.8857400  71.7390200  49.0996440  49.9675300  70.5475960
  51.0625190  66.7134320  70.3257370  51.8550510  66.2183550  70.1183330
  51.3558340  67.3924460  70.9332980  47.1884850  57.5855260  41.2073420
  47.1078900  56.6709870  40.9365130  46.7749270  58.0822330  40.5013130
  39.3368720  59.6754090  43.9658450  38.5053600  59.4202800  44.3654960
  39.9449700  59.7464860  44.7016370  49.3410320  63.7694470  41.8681820
  48.8791850  62.9981710  42.1968990  50.1535870  63.7960540  42.3734270
  39.3169980  63.7094180  44.1616470  39.6198020  62.8191920  43.9826690
  40.0613570  64.2664400  43.9338720  35.7093680  57.2361630  43.6340540
  36.2809790  56.4683830  43.6344180  35.7095220  57.5350390  42.7247150
  45.5673630  66.0552480  41.4885810  44.9485070  66.5109980  40.9180250
  46.4225410  66.2103940  41.0875510  36.9518550  52.6445990  45.4209470
  36.7721390  51.7471740  45.7012230  36.5498630  53.1917860  46.0956420
  45.7917050  54.8461850  43.3221780  46.1681870  53.9733730  43.2095450
  45.6936560  55.1820550  42.4312220  49.5741170  52.3412290  40.2550120
  50.3950790  51.8508860  40.2975600  49.6075250  52.9309950  41.0081960
  37.5705220  55.1406490  44.0291810  38.2515330  55.4044860  44.6479210
  37.2553270  54.3007360  44.3629820  41.7629790  56.1873850  43.1164400
  42.2708010  56.6854820  43.7569420  42.2943030  55.4109050  42.9403760
  53.8640720  54.3579040  46.8193750  53.1592890  54.7460750  46.3008860
  54.1298640  55.0529330  47.4214680  40.0465890  50.8272410  47.3827820
  40.0484330  51.3444800  46.5773720  39.2170200  50.3502590  47.3597750
  46.4336980  60.9391720  38.8817720  45.8154250  61.4041170  38.3180440
  46.9460230  61.6319200  39.2987230  49.8102650  54.2812670  43.0277660
  49.1058220  54.5697560  43.6080770  50.1714810  55.0912780  42.6677220
  39.7281220  52.5382370  45.3898270  40.0698030  53.3824420  45.0952140
  38.7897030  52.6866110  45.5063610  40.5087840  62.4348390  47.3750500
  41.1261840  63.1099470  47.0934950  39.6480960  62.8436370  47.2838000
  35.8020180  61.6248250  36.2557350  35.4248160  62.1135350  35.5242250
  36.0593250  62.2973530  36.8863880  52.8789570  53.7267460  43.4186870
  51.9314480  53.7606440  43.5502300  53.2039560  54.5406410  43.8036230
  43.4109110  50.0264640  41.7142860  43.7184090  49.4711530  40.9978360
  42.4809810  50.1609100  41.5315850  50.2569590  62.4648150  39.0940490
  50.1465920  61.5222480  39.2189910  50.2537840  62.8263790  39.9803250
  45.7989870  58.0913470  38.4502980  44.8719150  58.0250850  38.6791450
  45.9514690  59.0293600  38.3358220  45.7858950  54.3630470  35.4470140
  44.8462620  54.5244430  35.5322600  46.1042210  55.0816150  34.9006130
  49.8287160  59.6533770  38.9538230  49.2099580  59.3153320  38.3064530
  49.8111610  59.0093530  39.6617420  49.2713720  55.8318310  46.3704040
  48.8584900  56.6572020  46.6244030  48.5389670  55.2463350  46.1780400
  41.4046510  58.6178210  41.2322710  41.0003510  57.9055460  40.7368610
  41.4909630  58.2731450  42.1210750  40.9646640  62.0427460  50.0469720
  40.0675170  62.2667430  50.2943120  40.9899510  62.1662400  49.0981120
  48.0051860  58.8920580  35.9610980  48.4445140  58.0543010  35.8148800
  48.7180280  59.5249980  36.0475120  46.1147240  63.8316650  39.9292220
  46.5543150  64.5740980  39.5147610  46.0534130  64.0743220  40.8531180
  51.5869000  50.1463390  34.2752020  51.2741660  50.2390220  35.1751090
  52.3481470  50.7244420  34.2249450  38.1051140  57.5123190  38.7329360
  37.9848740  58.2385280  38.1210630  37.7952030  56.7426100  38.2557270
  35.7436510  60.6838330  44.5398000  35.8216930  60.8187100  43.5953720
  36.3578190  59.9754220  44.7326120  36.9884140  62.3838520  40.9504180
  36.5812220  62.5253110  40.0957780  37.8797150  62.0998680  40.7475390
  46.8063020  66.5330430  47.8571230  47.3207690  66.4438440  48.6593660
  45.9632100  66.8790130  48.1499140  48.7817420  66.8185770  37.2855230
  48.6218560  66.5288710  38.1837060  48.6164130  66.0425900  36.7500460
  41.2605800  66.5984300  39.0626850  41.0848280  65.6819840  38.8494650
  40.4061540  66.9571590  39.3024650  48.4843550  64.3273330  35.8453230
  47.7908710  64.3250620  35.1855510  49.2266410  63.9032650  35.4147400
  48.0493480  65.9536040  39.9201720  48.5050430  65.1725420  40.2340340
  48.3886000  66.6642860  40.4642900  35.7996030  61.7252500  47.0792460
  35.9627070  61.2557860  46.2611830  36.2648480  61.2176060  47.7441300
  40.5714800  50.8558260  42.1153030  40.1282950  51.6367800  41.7837550
  41.1299790  51.1788150  42.8223970  44.8584610  53.7226780  47.7188350
  44.3963980  53.9309800  48.5308290  44.4562720  52.9086130  47.4159020
  49.8589120  54.9435730  48.8485010  49.0082710  54.6441480  49.1694080
  49.6990910  55.1877740  47.9368830  43.6873620  50.4768960  36.9958860
  43.0627800  50.4728830  37.7212170  43.6003740  49.6099920  36.5994830
  42.6090700  51.4005590  43.9742630  42.9063030  52.3068420  43.8934650
  43.1576260  50.9124370  43.3602200  40.3629020  55.9791830  39.8434280
  40.1369940  55.7629000  40.7480900  39.5821550  56.4120290  39.4980250
  47.5926780  55.9855200  38.4424930  46.9935670  56.7091000  38.2588550
  48.1406390  55.9231980  37.6601380  46.1991650  54.6218740  40.4728210
  46.5921220  54.9390940  39.6596900  46.5608500  53.7430620  40.5872730
  37.9338770  53.2891080  48.6628330  37.5402160  54.1366290  48.8701110
  37.2457170  52.6517450  48.8536970  44.5083820  53.3726050  51.7325070
  43.8182140  53.1798250  52.3671160  45.2516120  53.6560690  52.2649370
  35.4226050  55.1539660  33.9061130  35.3400720  56.0970420  34.0476120
  35.0709110  55.0114570  33.0273480  43.2224180  53.8878690  42.9731480
  43.2260240  53.4468640  42.1236020  44.1175300  54.2096020  43.0803300
  43.2844330  54.8890770  35.9638240  43.4057150  54.8477250  36.9124060
  42.8992840  55.7514920  35.8084970  47.2472700  52.6658170  43.9801930
  47.2645440  53.1166820  44.8243780  46.9988280  51.7663810  44.1935370
  42.2965830  57.1991910  35.3621540  41.7282730  56.7510160  34.7357450
  43.0054830  57.5584690  34.8286690  39.8413310  61.1950100  37.6347950
  39.0675570  60.6547720  37.4746670  40.5707940  60.6756710  37.2965710
  50.6001290  60.1915460  43.4274340  51.3200410  60.6870750  43.0370450
  50.3983110  59.5133350  42.7828210  46.0611230  51.5853420  37.5703730
  45.2475840  51.0866590  37.4949040  45.8673180  52.4251670  37.1540080
  48.7759620  55.9573070  35.8665890  49.6639240  56.2690300  35.6917230
  48.7464710  55.0845320  35.4746470  39.8850710  60.8630480  41.2726760
  40.4029380  60.0598740  41.2183650  39.4334730  60.8009620  42.1143590
  44.7720210  62.1296760  36.5454060  45.1135910  62.8738990  36.0497380
  43.9432920  62.4427880  36.9078890  51.0473890  57.2684910  35.3345750
  50.9637610  57.6999130  34.4842190  51.7668080  57.7283260  35.7672570
  52.0761140  64.1227170  38.0627880  51.4337300  63.4682790  38.3371600
  51.6891800  64.5282260  37.2868550  43.7410900  62.2110290  39.3169980
  44.4282030  62.7579500  39.6977570  42.9543320  62.7551020  39.3519590
  35.8803300  57.8283110  34.8087060  36.7498150  58.1107910  35.0922980
  35.3893620  58.6418980  34.6935870  43.0438110  59.2156320  38.9295340
  43.5000890  60.0261570  39.1555530  42.6926320  58.8979460  39.7613830
  38.9449890  49.5593970  39.4017860  38.8164520  49.5511870  40.3502780
  38.1211910  49.8977060  39.0508870  50.4658520  63.0143630  34.6004230
  50.2396100  62.2974070  35.1928870  50.0754720  62.7656070  33.7625980
  36.2474550  67.0410490  35.3748690  36.6072190  67.6399830  34.7205960
  36.1066890  67.5870380  36.1483720  35.9443820  51.3185090  48.8624560
  35.2302340  51.5182010  49.4677170  36.3638860  50.5424660  49.2339360
  50.0474770  60.9315570  36.2618390  49.7596470  61.3928260  37.0496270
  50.8426940  60.4713340  36.5302610  42.2643170  64.4241690  36.1922360
  42.2553270  65.1571380  35.5766870  41.3441530  64.1773270  36.2849320
  37.8649810  59.6456580  36.9369120  37.2577760  60.3855480  36.9464420
  38.3399160  59.7355940  36.1107320  47.4382600  53.8107400  46.6126010
  47.8063420  52.9902610  46.9405580  46.5780800  53.8709290  47.0281660
  50.8044630  52.7664340  37.4213570  50.1757790  52.8710010  36.7071800
  50.3096550  52.9861120  38.2107450  45.2502770  64.4869930  34.8547550
  45.3514750  64.2833920  33.9249530  44.3504510  64.2328210  35.0595330
  42.7728660  55.0450290  38.8371450  42.0644810  55.5136630  39.2785060
  43.0573140  54.3872300  39.4716640  46.8044090  51.7700950  40.2767240
  46.6811870  51.7887080  39.3276750  47.7528650  51.8179890  40.3965640
  43.8920880  67.0056250  39.5495220  44.1462380  66.9677640  38.6274590
  42.9433360  66.8789580  39.5423470  40.9763680  53.3535370  36.2122160
  41.8254210  53.7905520  36.1462350  40.6094950  53.6655630  37.0394220
  51.6051450  52.6814950  47.6792370  51.1025050  53.4220350  48.0186180
  52.4208110  53.0698950  47.3629160  49.8973460  57.9248130  41.1253730
  48.9563600  57.9398360  41.3001420  50.2117530  57.1384090  41.5714030
  39.8755100  59.6067730  34.6857690  40.6418370  59.4949090  35.2483120
  39.9529790  58.9105700  34.0334460  38.5701860  57.0392800  35.3690580
  38.6505450  56.0920310  35.4807980  39.4621610  57.3699680  35.4751240
  39.3716570  67.1888190  42.4725120  40.1079050  66.6403650  42.7433690
  39.7557490  68.0544200  42.3331110  36.2562050  63.2561760  38.3466630
  35.3301830  63.4982900  38.3372040  36.7218480  64.0836020  38.2251380
  42.4818880  66.3618500  34.2950690  43.2747490  66.6507330  33.8432480
  41.9623230  65.9310670  33.6163170  51.5349050  65.5888630  35.7187430
  51.2490560  65.1753770  34.9041610  51.3368600  66.5176340  35.5987950
  42.9996280  61.5821910  34.1593040  42.8946920  60.9674260  34.8854420
  42.8320500  61.0587800  33.3756050  46.2399010  60.6441940  34.7635030
  45.6909110  61.0911240  35.4077770  46.8618270  60.1391190  35.2872700
  41.9074130  59.6032860  36.6600330  42.3290550  59.4372730  37.5031720
  42.0324970  58.7933090  36.1655470  44.4201770  58.6270470  33.9077430
  44.9407430  57.9119490  33.5418580  45.0670170  59.2656340  34.2077940
  40.5573850  52.5491780  49.5468600  40.4630720  51.9312530  48.8219470
  39.9771240  53.2758070  49.3198510  43.3235290  51.1065020  46.5795990
  42.8752590  51.1289280  45.7341540  42.6900490  50.7084040  47.1766290
  40.8033030  55.6766090  33.6058490  40.6022090  54.8133450  33.9671830
  40.6325080  55.5899450  32.6680090  42.8327510  54.2756880  49.8422090
  43.4227200  53.9672730  50.5299910  42.0147750  53.8036630  49.9981990
  47.6520940  53.8922690  50.0755110  46.9636460  53.2304230  50.0105100
  48.3726960  53.4460960  50.5203570  39.6015830  52.7766710  33.5936370
  39.9041730  52.7834140  32.6855520  40.3410420  52.4264570  34.0904030
  42.8200760  51.7201330  34.5792570  42.4722760  51.0425320  33.9995020
  43.0213530  51.2590840  35.3935960  44.9849800  66.7082080  36.1979170
  45.8800590  67.0467050  36.2197930  45.0167430  65.9861490  35.5703450
  38.6245960  62.0809130  34.4266170  39.0620830  62.6238800  35.0823750
  39.1093690  61.2556080  34.4362510  35.8391760  64.8698160  41.8786430
  36.1694770  64.0019220  41.6465070  36.2682760  65.0756680  42.7091390
  40.4353680  63.2007170  39.5388400  40.1349220  63.0772140  40.4392310
  40.3291170  62.3415760  39.1304130  36.3281970  65.7368750  44.6168060
  35.8912960  65.9169550  45.4492210  36.8959650  66.4943370  44.4749780
  53.2045600  62.9803570  34.2415080  52.3738560  63.0480220  34.7122310
  53.3817430  63.8707690  33.9381940  52.6602060  59.7251050  36.7449280
  53.4220970  60.2947700  36.8508970  52.6756430  59.1578250  37.5157590
  36.1606400  58.2488980  40.9756940  35.5055240  57.9800620  40.3316640
  36.9984350  58.1393460  40.5258920  52.7121230  60.0185420  33.9021800
  52.9870070  60.9264300  33.7741020  52.5231970  59.9547950  34.8383790
  52.6086570  57.9554410  38.8951230  52.2330170  57.1882340  38.4632520
  51.8789690  58.3377110  39.3826160  37.1982330  58.6341550  45.5160280
  37.5655370  58.5468950  46.3956300  36.6293150  57.8708100  45.4167140
  50.4374260  52.3282360  51.3070450  51.3144440  52.3365760  51.6904450
  50.4495100  51.5913200  50.6962800  51.8837530  56.1811900  42.1958470
  52.4075010  55.6874550  41.5648640  52.4696950  56.3162260  42.9406040
  37.9171690  54.5153450  34.8276650  38.6263390  54.0936670  34.3423930
  37.2011630  54.5828680  34.1960000  37.5645850  50.5692780  33.8679300
  38.2873980  51.1101720  34.1860520  37.8370370  50.2956200  32.9920840
  51.3737500  55.4385250  38.1350880  51.8696620  55.2056120  38.9199760
  51.1753570  54.5997090  37.7188520  37.2538040  49.8198970  43.7701920
  37.9014230  49.2696350  43.3297080  37.6739880  50.0742120  44.5917730
  52.8024660  54.0746200  40.6688560  52.6923940  53.9202240  41.6070830
  53.5632250  53.5467140  40.4263970  53.6914930  51.9054120  33.9094700
  54.6164240  51.7735300  33.7012990  53.6690720  51.9846940  34.8631150
  53.7653420  52.6764780  36.5351410  52.9704920  52.6109900  37.0644320
  53.9696700  53.6115420  36.5236760  50.7071840  66.7156330  40.5289800
  51.3030910  66.3940900  39.8524220  50.9649990  66.2428150  41.3203070
  37.0070040  49.9754640  46.5127240  36.6584860  50.4318460  47.2785420
  36.6757740  49.0811770  46.5949670  42.3140440  64.7033830  46.2790150
  42.0731800  64.9708390  45.3920670  43.2543080  64.8739560  46.3341010
  44.5194860  51.1666520  50.0346660  44.4583750  51.7588350  50.7842070
  45.4595240  51.0592480  49.8896920  47.1569420  50.8236580  49.6738950
  47.7709830  51.1415870  49.0120030  47.7018980  50.3385170  50.2934810
  37.6790680  49.5030840  49.7878010  38.2273670  49.3218890  49.0244120
  37.7445990  48.7124950  50.3234320  38.4522440  66.0936490  47.7978210
  37.8582760  65.9621190  48.5368250  38.4446280  65.2574630  47.3320310
  47.8977460  49.3868720  46.0008240  47.0237300  49.7203830  45.7981170
  47.7888210  48.9141900  46.8260110  48.8049440  51.5939590  47.3849960
  48.4762800  50.7791350  47.0051690  49.7531740  51.5509400  47.2615650
  38.0834670  63.4594870  46.7486250  37.3568730  62.8400160  46.6812200
  38.1443820  63.8535480  45.8784330  41.6879770  65.6739870  43.5335660
  42.2044790  65.0627230  43.0083920  42.3377150  66.1768650  44.0246670
  44.4275270  66.5648360  44.3604640  44.7153080  66.3102660  43.4837650
  44.9398490  66.0125720  44.9510210  45.6452280  50.3038560  44.9401150
  44.8624070  50.7784060  45.2197910  45.3515210  49.3993390  44.8314330
  50.1973350  51.0061660  42.9850240  50.6381440  50.9506760  42.1371840
  49.9280940  51.9219670  43.0560420  52.0611920  50.6376900  40.9959060
  52.0000320  49.6938120  40.8490080  52.8403950  50.7456990  41.5412520
  36.3664670  66.7769260  39.9583010  36.1986710  66.1439940  40.6564900
  35.4999180  66.9828660  39.6077200  43.5306500  52.7225310  40.4517180
  42.7181010  52.3482200  40.1113060  44.0348140  51.9670390  40.7538370
  48.0331480  49.3867760  41.6900250  48.6360850  49.9587970  42.1648770
  47.2924470  49.9507200  41.4674150  51.1766080  49.7889320  36.9640530
  51.3716710  50.6872770  37.2307960  50.3895950  49.5576400  37.4573480
  37.9727370  65.4702490  37.4033150  37.4474990  65.8510520  36.6995110
  37.8971950  66.0953260  38.1242860  39.3617840  51.1350090  36.0016840
  39.8910600  50.3479890  35.8724790  39.9946160  51.8141280  36.2352370
  41.5555680  50.8725230  39.0562230  40.9258420  50.1712540  39.2232360
  41.0160820  51.6329360  38.8395390  52.7292690  67.0290030  38.7247090
  52.9044880  66.3427770  38.0808010  52.0314260  67.5537080  38.3323760
  41.6811240  50.1509210  51.4914720  41.3995510  50.6542810  50.7275540
  42.0630940  49.3530960  51.1256850  40.5720340  67.4184870  36.2782400
  41.3039160  67.1344150  35.7306290  40.8314010  67.1798150  37.1681780
  39.7335130  63.5349600  36.2828730  39.1044010  64.0034700  36.8314560
  39.8482960  62.6898820  36.7174920  48.2826700  49.5662790  52.0695190
  48.1692150  49.8857400  52.9646710  49.0996440  49.9675300  51.7732470
  47.1884850  57.5855260  22.4329930  47.1078900  56.6709870  22.1621640
  46.7749270  58.0822330  21.7269640  45.3202890  59.3634280  24.3139200
  44.5444990  58.8834720  24.6037770  45.9715820  58.6839930  24.1395360
  39.3368720  59.6754090  25.1914960  38.5053600  59.4202800  25.5911470
  39.9449700  59.7464860  25.9272880  49.3410320  63.7694470  23.0938330
  48.8791850  62.9981710  23.4225500  50.1535870  63.7960540  23.5990780
  39.3169980  63.7094180  25.3872980  39.6198020  62.8191920  25.2083200
  40.0613570  64.2664400  25.1595230  37.7460670  54.6355980  18.9757350
  36.8577370  54.9771950  18.8737230  38.0301860  54.4356300  18.0838180
  35.7093680  57.2361630  24.8597050  36.2809790  56.4683830  24.8600690
  35.7095220  57.5350390  23.9503660  45.5673630  66.0552480  22.7142320
  44.9485070  66.5109980  22.1436760  46.4225410  66.2103940  22.3132020
  44.7611880  62.0391470  24.3209360  44.6920160  61.0981410  24.1598490
  45.5231740  62.1292880  24.8931930  36.9518550  52.6445990  26.6465980
  36.7721390  51.7471740  26.9268740  36.5498630  53.1917860  27.3212930
  45.7917050  54.8461850  24.5478290  46.1681870  53.9733730  24.4351960
  45.6936560  55.1820550  23.6568730  39.9222060  53.2187480  20.0095730
  40.0288810  54.1191210  20.3164490  39.0114420  53.1705450  19.7190380
  49.5741170  52.3412290  21.4806630  50.3950790  51.8508860  21.5232110
  49.6075250  52.9309950  22.2338470  37.5705220  55.1406490  25.2548320
  38.2515330  55.4044860  25.8735720  37.2553270  54.3007360  25.5886330
  41.7629790  56.1873850  24.3420910  42.2708010  56.6854820  24.9825930
  42.2943030  55.4109050  24.1660270  53.8640720  54.3579040  28.0450260
  53.1592890  54.7460750  27.5265370  54.1298640  55.0529330  28.6471190
  40.0465890  50.8272410  28.6084330  40.0484330  51.3444800  27.8030230
  39.2170200  50.3502590  28.5854260  46.4336980  60.9391720  20.1074230
  45.8154250  61.4041170  19.5436950  46.9460230  61.6319200  20.5243740
  41.2968740  60.4667590  26.7857830  40.9638120  61.0936510  27.4278900
  41.4735420  60.9929470  26.0059500  49.8102650  54.2812670  24.2534170
  49.1058220  54.5697560  24.8337280  50.1714810  55.0912780  23.8933730
  39.7281220  52.5382370  26.6154780  40.0698030  53.3824420  26.3208650
  38.7897030  52.6866110  26.7320120  40.5087840  62.4348390  28.6007010
  41.1261840  63.1099470  28.3191460  39.6480960  62.8436370  28.5094510
  35.8020180  61.6248250  17.4813860  35.4248160  62.1135350  16.7498760
  36.0593250  62.2973530  18.1120390  51.4265430  63.8987800  26.5161650
  50.7428950  64.5686910  26.5078320  51.9659720  64.0968450  25.7506510
  52.8789570  53.7267460  24.6443380  51.9314480  53.7606440  24.7758810
  53.2039560  54.5406410  25.0292740  43.4109110  50.0264640  22.9399370
  43.7184090  49.4711530  22.2234870  42.4809810  50.1609100  22.7572360
  48.9624170  65.7431930  25.2306830  48.9751330  65.3394220  24.3629090
  48.4099390  66.5179220  25.1268260  50.2569590  62.4648150  20.3197000
  50.1465920  61.5222480  20.4446420  50.2537840  62.8263790  21.2059760
  48.3609610  60.6461770  26.5589440  48.7778400  60.4321880  25.7242900
  49.0849430  60.9034560  27.1298060  45.7989870  58.0913470  19.6759490
  44.8719150  58.0250850  19.9047960  45.9514690  59.0293600  19.5614730
  45.7858950  54.3630470  16.6726650  44.8462620  54.5244430  16.7579110
  46.1042210  55.0816150  16.1262640  52.3071710  59.0448990  26.6505680
  51.4790340  59.1142080  26.1755810  52.9022190  59.6303300  26.1821510
  49.8287160  59.6533770  20.1794740  49.2099580  59.3153320  19.5321040
  49.8111610  59.0093530  20.8873930  49.2713720  55.8318310  27.5960550
  48.8584900  56.6572020  27.8500540  48.5389670  55.2463350  27.4036910
  41.4046510  58.6178210  22.4579220  41.0003510  57.9055460  21.9625120
  41.4909630  58.2731450  23.3467260  41.8728210  62.3045770  24.6218430
  41.5756500  61.6991240  23.9426210  42.8228030  62.3423080  24.5107790
  40.1175130  55.3921420  26.2378260  40.6689720  55.5016760  25.4631510
  40.6318640  55.7659020  26.9533490  49.9613820  65.8777640  28.2841530
  49.4844380  66.6849830  28.0914140  49.2775610  65.2255970  28.4367740
  40.9646640  62.0427460  31.2726230  40.0675170  62.2667430  31.5199630
  40.9899510  62.1662400  30.3237630  48.0051860  58.8920580  17.1867490
  48.4445140  58.0543010  17.0405310  48.7180280  59.5249980  17.2731630
  39.7917860  58.9140780  29.8483600  39.6525630  59.7863580  30.2171000
  38.9099220  58.5713590  29.7031540  46.1147240  63.8316650  21.1548730
  46.5543150  64.5740980  20.7404120  46.0534130  64.0743220  22.0787690
  41.5898210  64.8562480  32.0568750  41.5613640  65.2605430  31.1897180
  41.4263180  63.9272840  31.8940350  51.5869000  50.1463390  15.5008530
  51.2741660  50.2390220  16.4007600  52.3481470  50.7244420  15.4505960
  38.1051140  57.5123190  19.9585870  37.9848740  58.2385280  19.3467140
  37.7952030  56.7426100  19.4813780  53.5413030  65.6389580  33.3532920
  54.0172750  66.1172470  34.0322000  54.1620190  65.5707070  32.6278420
  35.7436510  60.6838330  25.7654510  35.8216930  60.8187100  24.8210230
  36.3578190  59.9754220  25.9582630  36.9884140  62.3838520  22.1760690
  36.5812220  62.5253110  21.3214290  37.8797150  62.0998680  21.9731900
  52.9446280  62.8302430  30.5132930  53.0709340  62.5914310  29.5950110
  52.9867660  61.9986970  30.9855010  46.8063020  66.5330430  29.0827740
  47.3207690  66.4438440  29.8850170  45.9632100  66.8790130  29.3755650
  48.7817420  66.8185770  18.5111740  48.6218560  66.5288710  19.4093570
  48.6164130  66.0425900  17.9756970  41.2605800  66.5984300  20.2883360
  41.0848280  65.6819840  20.0751160  40.4061540  66.9571590  20.5281160
  48.4843550  64.3273330  17.0709740  47.7908710  64.3250620  16.4112020
  49.2266410  63.9032650  16.6403910  48.0493480  65.9536040  21.1458230
  48.5050430  65.1725420  21.4596850  48.3886000  66.6642860  21.6899410
  52.7970290  54.8834890  31.4782670  52.1814560  55.3914560  30.9498130
  52.4766710  53.9833220  31.4208610  35.7996030  61.7252500  28.3048970
  35.9627070  61.2557860  27.4868340  36.2648480  61.2176060  28.9697810
  40.5714800  50.8558260  23.3409540  40.1282950  51.6367800  23.0094060
  41.1299790  51.1788150  24.0480480  44.8584610  53.7226780  28.9444860
  44.3963980  53.9309800  29.7564800  44.4562720  52.9086130  28.6415530
  49.8589120  54.9435730  30.0741520  49.0082710  54.6441480  30.3950590
  49.6990910  55.1877740  29.1625340  46.9538830  56.4437480  32.1740310
  47.2792240  55.6101230  31.8342540  47.7419160  56.9666000  32.3218640
  43.6873620  50.4768960  18.2215370  43.0627800  50.4728830  18.9468680
  43.6003740  49.6099920  17.8251340  42.6090700  51.4005590  25.1999140
  42.9063030  52.3068420  25.1191160  43.1576260  50.9124370  24.5858710
  40.3629020  55.9791830  21.0690790  40.1369940  55.7629000  21.9737410
  39.5821550  56.4120290  20.7236760  47.5926780  55.9855200  19.6681440
  46.9935670  56.7091000  19.4845060  48.1406390  55.9231980  18.8857890
  42.8028230  56.8777410  31.7351060  42.7071830  55.9372140  31.5851460
  43.6460210  57.0992480  31.3399130  46.1991650  54.6218740  21.6984720
  46.5921220  54.9390940  20.8853410  46.5608500  53.7430620  21.8129240
  37.9338770  53.2891080  29.8884840  37.5402160  54.1366290  30.0957620
  37.2457170  52.6517450  30.0793480  35.2355820  51.2119540  23.9214920
  34.9468870  51.7822400  24.6339900  35.9801580  50.7323990  24.2846150
  35.4226050  55.1539660  15.1317640  35.3400720  56.0970420  15.2732630
  35.0709110  55.0114570  14.2529990  46.7846790  57.2124490  25.7935500
  46.0527910  57.7211300  26.1425600  46.3871130  56.3954470  25.4924280
  43.2224180  53.8878690  24.1987990  43.2260240  53.4468640  23.3492530
  44.1175300  54.2096020  24.3059810  39.0726560  53.7705180  23.1582200
  38.7326610  54.2480410  23.9149250  38.3103880  53.3170300  22.7983300
  43.2844330  54.8890770  17.1894750  43.4057150  54.8477250  18.1380570
  42.8992840  55.7514920  17.0341480  47.2472700  52.6658170  25.2058440
  47.2645440  53.1166820  26.0500290  46.9988280  51.7663810  25.4191880
  42.2965830  57.1991910  16.5878050  41.7282730  56.7510160  15.9613960
  43.0054830  57.5584690  16.0543200  50.6743450  50.0790350  31.0444820
  50.9989220  49.3480010  31.5702800  50.7099960  49.7603990  30.1425810
  37.3735010  61.1003930  30.4644780  36.9889800  60.4597600  31.0627740
  37.6847200  61.8040050  31.0339510  43.5232150  57.9480470  25.9453400
  43.8902280  57.4739040  26.6914740  43.3337210  58.8222040  26.2861740
  36.3872640  52.6924160  22.0746870  36.1019560  52.3279830  22.9125490
  36.3251500  51.9604620  21.4610010  41.3131520  56.9889110  28.2637610
  41.0088590  57.8681090  28.4887970  42.2677980  57.0488900  28.2995050
  39.8413310  61.1950100  18.8604460  39.0675570  60.6547720  18.7003180
  40.5707940  60.6756710  18.5222220  50.6001290  60.1915460  24.6530850
  51.3200410  60.6870750  24.2626960  50.3983110  59.5133350  24.0084720
  46.0611230  51.5853420  18.7960240  45.2475840  51.0866590  18.7205550
  45.8673180  52.4251670  18.3796590  45.9820090  60.2624520  30.5399850
  45.9157400  59.3420190  30.2857440  45.3525230  60.3599960  31.2544490
  48.7759620  55.9573070  17.0922400  49.6639240  56.2690300  16.9173740
  48.7464710  55.0845320  16.7002980  39.8850710  60.8630480  22.4983270
  40.4029380  60.0598740  22.4440160  39.4334730  60.8009620  23.3400100
  44.7720210  62.1296760  17.7710570  45.1135910  62.8738990  17.2753890
  43.9432920  62.4427880  18.1335400  37.3695250  57.8291850  29.4108970
  37.0110190  58.4945700  29.9982310  37.0749810  56.9975400  29.7821590
  40.5708370  58.2876090  32.2948520  40.2708510  58.4333270  31.3976340
  41.3419610  57.7281380  32.2021910  45.9136820  63.0845090  30.2903650
  45.9281360  62.1526050  30.0722560  45.2061920  63.1704850  30.9293420
  51.0473890  57.2684910  16.5602260  50.9637610  57.6999130  15.7098700
  51.7668080  57.7283260  16.9929080  52.1248030  59.7252430  29.6372230
  51.3996220  60.3181210  29.4401620  52.6523490  59.7175970  28.8385600
  52.0761140  64.1227170  19.2884390  51.4337300  63.4682790  19.5628110
  51.6891800  64.5282260  18.5125060  47.6547620  61.4512600  23.1356080
  48.0071440  60.8540730  22.4757450  46.7709950  61.1256830  23.3064330
  43.7410900  62.2110290  20.5426490  44.4282030  62.7579500  20.9234080
  42.9543320  62.7551020  20.5776100  35.8803300  57.8283110  16.0343570
  36.7498150  58.1107910  16.3179490  35.3893620  58.6418980  15.9192380
  43.0438110  59.2156320  20.1551850  43.5000890  60.0261570  20.3812040
  42.6926320  58.8979460  20.9870340  45.3470720  64.7262660  27.3844150
  45.9912940  64.9322040  28.0617570  45.7100160  63.9651060  26.9315000
  38.9449890  49.5593970  20.6274370  38.8164520  49.5511870  21.5759290
  38.1211910  49.8977060  20.2765380  46.6202800  62.7295010  26.1021600
  47.2625030  62.0288170  26.2153770  47.1452150  63.5093450  25.9218490
  50.4658520  63.0143630  15.8260740  50.2396100  62.2974070  16.4185380
  50.0754720  62.7656070  14.9882490  48.3940420  63.5289910  29.3057660
  48.7296660  64.1156600  29.9835580  47.4740760  63.3982620  29.5355450
  36.2474550  67.0410490  16.6005200  36.6072190  67.6399830  15.9462470
  36.1066890  67.5870380  17.3740230  35.9443820  51.3185090  30.0881070
  35.2302340  51.5182010  30.6933680  36.3638860  50.5424660  30.4595870
  50.0474770  60.9315570  17.4874900  49.7596470  61.3928260  18.2752780
  50.8426940  60.4713340  17.7559120  36.2316410  65.3065350  31.0747600
  36.3407530  64.3660090  30.9342990  35.5796970  65.5720100  30.4261330
  44.2229000  63.5781240  32.4745720  43.9025870  62.8590480  33.0191410
  43.5487360  64.2536310  32.5481780  42.2643170  64.4241690  17.4178870
  42.2553270  65.1571380  16.8023380  41.3441530  64.1773270  17.5105830
  37.8649810  59.6456580  18.1625630  37.2577760  60.3855480  18.1720930
  38.3399160  59.7355940  17.3363830  47.4382600  53.8107400  27.8382520
  47.8063420  52.9902610  28.1662090  46.5780800  53.8709290  28.2538170
  50.8044630  52.7664340  18.6470080  50.1757790  52.8710010  17.9328310
  50.3096550  52.9861120  19.4363960  45.2502770  64.4869930  16.0804060
  45.3514750  64.2833920  15.1506040  44.3504510  64.2328210  16.2851840
  42.7728660  55.0450290  20.0627960  42.0644810  55.5136630  20.5041570
  43.0573140  54.3872300  20.6973150  44.3984590  56.4646990  28.0620490
  44.8969840  56.9392810  28.7272340  44.5407540  55.5410510  28.2690520
  46.8044090  51.7700950  21.5023750  46.6811870  51.7887080  20.5533260
  47.7528650  51.8179890  21.6222150  43.8920880  67.0056250  20.7751730
  44.1462380  66.9677640  19.8531100  42.9433360  66.8789580  20.7679980
  40.9763680  53.3535370  17.4378670  41.8254210  53.7905520  17.3718860
  40.6094950  53.6655630  18.2650730  51.6051450  52.6814950  28.9048880
  51.1025050  53.4220350  29.2442690  52.4208110  53.0698950  28.5885670
  49.8973460  57.9248130  22.3510240  48.9563600  57.9398360  22.5257930
  50.2117530  57.1384090  22.7970540  39.8755100  59.6067730  15.9114200
  40.6418370  59.4949090  16.4739630  39.9529790  58.9105700  15.2590970
  38.5701860  57.0392800  16.5947090  38.6505450  56.0920310  16.7064490
  39.4621610  57.3699680  16.7007750  51.8999040  65.0956980  24.0264500
  52.0246460  65.9188150  24.4988310  52.7664600  64.8847710  23.6788650
  39.3716570  67.1888190  23.6981630  40.1079050  66.6403650  23.9690200
  39.7557490  68.0544200  23.5587620  36.2562050  63.2561760  19.5723140
  35.3301830  63.4982900  19.5628550  36.7218480  64.0836020  19.4507890
  38.3774850  66.3734260  32.8867210  39.1787580  66.6946310  33.3002610
  37.8626670  66.0129840  33.6087120  42.4818880  66.3618500  15.5207200
  43.2747490  66.6507330  15.0688990  41.9623230  65.9310670  14.8419680
  47.2139480  62.4814130  32.8342620  46.6077640  62.5045730  32.0938370
  46.9093590  61.7497170  33.3709870  48.6439850  66.2094420  31.4452030
  49.5961600  66.1252440  31.3952270  48.4968070  66.8736130  32.1185820
  51.5349050  65.5888630  16.9443940  51.2490560  65.1753770  16.1298120
  51.3368600  66.5176340  16.8244460  36.0972660  58.8607720  31.8303260
  36.6011680  58.2815000  32.4019490  35.3580080  59.1447950  32.3679630
  42.9996280  61.5821910  15.3849550  42.8946920  60.9674260  16.1110930
  42.8320500  61.0587800  14.6012560  43.1510600  60.2678710  31.3638780
  42.3856270  60.8363710  31.2793450  43.3326560  59.9754920  30.4707010
  46.2399010  60.6441940  15.9891540  45.6909110  61.0911240  16.6334280
  46.8618270  60.1391190  16.5129210  50.2933950  61.9984040  31.9213800
  51.0343420  62.3359800  31.4181260  49.5306630  62.1676100  31.3683570
  38.1295740  57.0037310  32.7253330  38.1701080  56.7051180  33.6338560
  38.9841240  57.4044920  32.5660850  41.9074130  59.6032860  17.8856840
  42.3290550  59.4372730  18.7288230  42.0324970  58.7933090  17.3911980
  40.0701550  55.5829410  30.6927820  39.5398010  55.0920360  30.0651160
  40.7389620  56.0113610  30.1585750  44.4201770  58.6270470  15.1333940
  44.9407430  57.9119490  14.7675090  45.0670170  59.2656340  15.4334450
  48.9679610  60.0498870  30.4569010  49.3820630  60.2043950  31.3059430
  48.0330610  60.1754090  30.6194790  49.4401780  57.3895030  32.4608160
  50.0222550  56.6347350  32.3728640  49.6163550  57.9202470  31.6839640
  40.5573850  52.5491780  30.7725110  40.4630720  51.9312530  30.0475980
  39.9771240  53.2758070  30.5455020  43.3235290  51.1065020  27.8052500
  42.8752590  51.1289280  26.9598050  42.6900490  50.7084040  28.4022800
  43.7294840  60.0019350  28.4264940  44.1482950  60.8452080  28.2541180
  42.8103470  60.1391390  28.1971720  46.0658740  57.7335530  29.8102780
  46.1854950  57.1376670  30.5497620  46.9252740  57.7705220  29.3904080
  48.4046640  58.2872720  28.3865290  47.8781860  58.8115340  27.7830430
  48.7477980  58.9200110  29.0175020  40.8033030  55.6766090  14.8315000
  40.6022090  54.8133450  15.1928340  40.6325080  55.5899450  13.8936600
  41.5802260  66.3072360  29.5422670  41.0423350  67.0318420  29.2231370
  41.8336220  65.8302700  28.7520010  42.8327510  54.2756880  31.0678600
  43.4227200  53.9672730  31.7556420  42.0147750  53.8036630  31.2238500
  48.2821340  50.4874320  17.3601880  48.5623630  49.6442220  17.7161300
  47.5087070  50.7197430  17.8740630  39.6015830  52.7766710  14.8192880
  39.9041730  52.7834140  13.9112030  40.3410420  52.4264570  15.3160540
  44.4364470  67.5423570  29.8009320  44.3623170  68.4458710  30.1081690
  43.5343310  67.2235470  29.7731390  42.8200760  51.7201330  15.8049080
  42.4722760  51.0425320  15.2251530  43.0213530  51.2590840  16.6192470
  44.9849800  66.7082080  17.4235680  45.8800590  67.0467050  17.4454440
  45.0167430  65.9861490  16.7959960  38.6245960  62.0809130  15.6522680
  39.0620830  62.6238800  16.3080260  39.1093690  61.2556080  15.6619020
  35.8391760  64.8698160  23.1042940  36.1694770  64.0019220  22.8721580
  36.2682760  65.0756680  23.9347900  40.4353680  63.2007170  20.7644910
  40.1349220  63.0772140  21.6648820  40.3291170  62.3415760  20.3560640
  36.3281970  65.7368750  25.8424570  35.8912960  65.9169550  26.6748720
  36.8959650  66.4943370  25.7006290  51.9644150  65.2385750  30.1301880
  51.3646140  65.2978310  29.3865800  52.0938050  64.2990730  30.2598730
  53.2045600  62.9803570  15.4671590  52.3738560  63.0480220  15.9378820
  53.3817430  63.8707690  15.1638450  52.6602060  59.7251050  17.9705790
  53.4220970  60.2947700  18.0765480  52.6756430  59.1578250  18.7414100
  36.1606400  58.2488980  22.2013450  35.5055240  57.9800620  21.5573150
  36.9984350  58.1393460  21.7515430  53.6662030  60.5801150  22.8147720
  54.0370860  59.7968470  22.4083690  54.3063960  61.2690250  22.6365020
  50.6495790  61.9637730  28.2278040  49.8355630  62.3934890  28.4903830
  51.0569990  62.5756140  27.6147090  52.7121230  60.0185420  15.1278310
  52.9870070  60.9264300  14.9997530  52.5231970  59.9547950  16.0640300
  49.1096840  53.0430270  16.4231940  49.5281720  52.8561250  15.5828600
  48.8032900  52.1909320  16.7334870  52.6086570  57.9554410  20.1207740
  52.2330170  57.1882340  19.6889030  51.8789690  58.3377110  20.6082670
  37.1982330  58.6341550  26.7416790  37.5655370  58.5468950  27.6212810
  36.6293150  57.8708100  26.6423650  51.9986190  57.1025930  29.7547260
  51.7672280  56.8738680  28.8545210  52.2590740  58.0225480  29.7092150
  36.7498330  55.5450640  30.6475210  35.8554380  55.5117400  30.9868920
  37.2895880  55.7437430  31.4126460  35.3744480  55.4587910  18.1438780
  34.4708560  55.7218110  17.9690440  35.8585100  55.7299080  17.3638740
  51.8837530  56.1811900  23.4214980  52.4075010  55.6874550  22.7905150
  52.4696950  56.3162260  24.1662550  52.0627250  56.2651770  26.9434530
  51.1129960  56.2315310  27.0579520  52.2440260  57.1751880  26.7084300
  37.9171690  54.5153450  16.0533160  38.6263390  54.0936670  15.5680440
  37.2011630  54.5828680  15.4216510  37.5645850  50.5692780  15.0935810
  38.2873980  51.1101720  15.4117030  37.8370370  50.2956200  14.2177350
  51.3737500  55.4385250  19.3607390  51.8696620  55.2056120  20.1456270
  51.1753570  54.5997090  18.9445030  37.2538040  49.8198970  24.9958430
  37.9014230  49.2696350  24.5553590  37.6739880  50.0742120  25.8174240
  52.8024660  54.0746200  21.8945070  52.6923940  53.9202240  22.8327340
  53.5632250  53.5467140  21.6520480  51.1490380  50.0140330  28.3528070
  51.7862600  50.6274470  28.7187260  51.2965270  50.0500990  27.4077300
  53.6914930  51.9054120  15.1351210  54.6164240  51.7735300  14.9269500
  53.6690720  51.9846940  16.0887660  53.7653420  52.6764780  17.7607920
  52.9704920  52.6109900  18.2900830  53.9696700  53.6115420  17.7493270
  50.7071840  66.7156330  21.7546310  51.3030910  66.3940900  21.0780730
  50.9649990  66.2428150  22.5459580  37.0070040  49.9754640  27.7383750
  36.6584860  50.4318460  28.5041930  36.6757740  49.0811770  27.8206180
  38.6134410  63.1474240  31.9036940  38.5704040  62.7767150  32.7851400
  38.7445420  64.0851810  32.0438760  42.3140440  64.7033830  27.5046660
  42.0731800  64.9708390  26.6177180  43.2543080  64.8739560  27.5597520
  53.5744600  66.7228210  28.3057300  53.0802880  67.1197080  27.5884430
  52.9657890  66.0977420  28.6994580  37.6790680  49.5030840  31.0134520
  38.2273670  49.3218890  30.2500630  37.7445990  48.7124950  31.5490830
  38.4522440  66.0936490  29.0234720  37.8582760  65.9621190  29.7624760
  38.4446280  65.2574630  28.5576820  47.8977460  49.3868720  27.2264750
  47.0237300  49.7203830  27.0237680  47.7888210  48.9141900  28.0516620
  48.8049440  51.5939590  28.6106470  48.4762800  50.7791350  28.2308200
  49.7531740  51.5509400  28.4872160  51.2584050  67.3651630  25.5844040
  50.7987020  68.1167440  25.2102060  50.6296510  66.6458100  25.5258840
  38.0834670  63.4594870  27.9742760  37.3568730  62.8400160  27.9068710
  38.1443820  63.8535480  27.1040840  41.6879770  65.6739870  24.7592170
  42.2044790  65.0627230  24.2340430  42.3377150  66.1768650  25.2503180
  44.4275270  66.5648360  25.5861150  44.7153080  66.3102660  24.7094160
  44.9398490  66.0125720  26.1766720  45.6452280  50.3038560  26.1657660
  44.8624070  50.7784060  26.4454420  45.3515210  49.3993390  26.0570840
  50.1973350  51.0061660  24.2106750  50.6381440  50.9506760  23.3628350
  49.9280940  51.9219670  24.2816930  52.0611920  50.6376900  22.2215570
  52.0000320  49.6938120  22.0746590  52.8403950  50.7456990  22.7669030
  36.3664670  66.7769260  21.1839520  36.1986710  66.1439940  21.8821410
  35.4999180  66.9828660  20.8333710  36.9892690  50.6086040  18.6871380
  37.7472050  50.7214920  18.1135410  36.5269860  51.4455240  18.6414810
  43.5306500  52.7225310  21.6773690  42.7181010  52.3482200  21.3369570
  44.0348140  51.9670390  21.9794880  48.0331480  49.3867760  22.9156760
  48.6360850  49.9587970  23.3905280  47.2924470  49.9507200  22.6930660
  51.1766080  49.7889320  18.1897040  51.3716710  50.6872770  18.4564470
  50.3895950  49.5576400  18.6829990  37.9727370  65.4702490  18.6289660
  37.4474990  65.8510520  17.9251620  37.8971950  66.0953260  19.3499370
  39.3617840  51.1350090  17.2273350  39.8910600  50.3479890  17.0981300
  39.9946160  51.8141280  17.4608880  41.5555680  50.8725230  20.2818740
  40.9258420  50.1712540  20.4488870  41.0160820  51.6329360  20.0651900
  44.4947630  67.4864460  32.9529350  45.4214940  67.2508730  32.9965310
  44.4798060  68.3136460  32.4715380  52.7292690  67.0290030  19.9503600
  52.9044880  66.3427770  19.3064520  52.0314260  67.5537080  19.5580270
  41.6811240  50.1509210  32.7171230  41.3995510  50.6542810  31.9532050
  42.0630940  49.3530960  32.3513360  40.5720340  67.4184870  17.5038910
  41.3039160  67.1344150  16.9562800  40.8314010  67.1798150  18.3938290
  39.7335130  63.5349600  17.5085240  39.1044010  64.0034700  18.0571070
  39.8482960  62.6898820  17.9431430  51.0625190  66.7134320  32.7770390
  51.8550510  66.2183550  32.5696350  51.3558340  67.3924460  33.3846000
  47.1884850  57.5855260   3.6586440  47.1078900  56.6709870   3.3878150
  46.7749270  58.0822330   2.9526150  45.3202890  59.3634280   5.5395710
  44.5444990  58.8834720   5.8294280  45.9715820  58.6839930   5.3651870
  39.3368720  59.6754090   6.4171470  38.5053600  59.4202800   6.8167980
  39.9449700  59.7464860   7.1529390  49.3410320  63.7694470   4.3194840
  48.8791850  62.9981710   4.6482010  50.1535870  63.7960540   4.8247290
  39.3169980  63.7094180   6.6129490  39.6198020  62.8191920   6.4339710
  40.0613570  64.2664400   6.3851740  35.7093680  57.2361630   6.0853560
  36.2809790  56.4683830   6.0857200  35.7095220  57.5350390   5.1760170
  45.5673630  66.0552480   3.9398830  44.9485070  66.5109980   3.3693270
  46.4225410  66.2103940   3.5388530  44.7611880  62.0391470   5.5465870
  44.6920160  61.0981410   5.3855000  45.5231740  62.1292880   6.1188440
  36.9518550  52.6445990   7.8722490  36.7721390  51.7471740   8.1525250
  36.5498630  53.1917860   8.5469440  45.7917050  54.8461850   5.7734800
  46.1681870  53.9733730   5.6608470  45.6936560  55.1820550   4.8825240
  49.5741170  52.3412290   2.7063140  50.3950790  51.8508860   2.7488620
  49.6075250  52.9309950   3.4594980  37.5705220  55.1406490   6.4804830
  38.2515330  55.4044860   7.0992230  37.2553270  54.3007360   6.8142840
  41.7629790  56.1873850   5.5677420  42.2708010  56.6854820   6.2082440
  42.2943030  55.4109050   5.3916780  53.8640720  54.3579040   9.2706770
  53.1592890  54.7460750   8.7521880  54.1298640  55.0529330   9.8727700
  40.0465890  50.8272410   9.8340840  40.0484330  51.3444800   9.0286740
  39.2170200  50.3502590   9.8110770  41.2968740  60.4667590   8.0114340
  40.9638120  61.0936510   8.6535410  41.4735420  60.9929470   7.2316010
  49.8102650  54.2812670   5.4790680  49.1058220  54.5697560   6.0593790
  50.1714810  55.0912780   5.1190240  39.7281220  52.5382370   7.8411290
  40.0698030  53.3824420   7.5465160  38.7897030  52.6866110   7.9576630
  40.5087840  62.4348390   9.8263520  41.1261840  63.1099470   9.5447970
  39.6480960  62.8436370   9.7351020  51.4265430  63.8987800   7.7418160
  50.7428950  64.5686910   7.7334830  51.9659720  64.0968450   6.9763020
  52.8789570  53.7267460   5.8699890  51.9314480  53.7606440   6.0015320
  53.2039560  54.5406410   6.2549250  43.4109110  50.0264640   4.1655880
  43.7184090  49.4711530   3.4491380  42.4809810  50.1609100   3.9828870
  48.9624170  65.7431930   6.4563340  48.9751330  65.3394220   5.5885600
  48.4099390  66.5179220   6.3524770  48.3609610  60.6461770   7.7845950
  48.7778400  60.4321880   6.9499410  49.0849430  60.9034560   8.3554570
  52.3071710  59.0448990   7.8762190  51.4790340  59.1142080   7.4012320
  52.9022190  59.6303300   7.4078020  49.2713720  55.8318310   8.8217060
  48.8584900  56.6572020   9.0757050  48.5389670  55.2463350   8.6293420
  41.4046510  58.6178210   3.6835730  41.0003510  57.9055460   3.1881630
  41.4909630  58.2731450   4.5723770  41.8728210  62.3045770   5.8474940
  41.5756500  61.6991240   5.1682720  42.8228030  62.3423080   5.7364300
  40.1175130  55.3921420   7.4634770  40.6689720  55.5016760   6.6888020
  40.6318640  55.7659020   8.1790000  49.9613820  65.8777640   9.5098040
  49.4844380  66.6849830   9.3170650  49.2775610  65.2255970   9.6624250
  40.9646640  62.0427460  12.4982740  40.0675170  62.2667430  12.7456140
  40.9899510  62.1662400  11.5494140  39.7917860  58.9140780  11.0740110
  39.6525630  59.7863580  11.4427510  38.9099220  58.5713590  10.9288050
  46.1147240  63.8316650   2.3805240  46.5543150  64.5740980   1.9660630
  46.0534130  64.0743220   3.3044200  41.5898210  64.8562480  13.2825260
  41.5613640  65.2605430  12.4153690  41.4263180  63.9272840  13.1196860
  53.5413030  65.6389580  14.5789430  54.0172750  66.1172470  15.2578510
  54.1620190  65.5707070  13.8534930  35.7436510  60.6838330   6.9911020
  35.8216930  60.8187100   6.0466740  36.3578190  59.9754220   7.1839140
  36.9884140  62.3838520   3.4017200  36.5812220  62.5253110   2.5470800
  37.8797150  62.0998680   3.1988410  52.9446280  62.8302430  11.7389440
  53.0709340  62.5914310  10.8206620  52.9867660  61.9986970  12.2111520
  46.8063020  66.5330430  10.3084250  47.3207690  66.4438440  11.1106680
  45.9632100  66.8790130  10.6012160  48.0493480  65.9536040   2.3714740
  48.5050430  65.1725420   2.6853360  48.3886000  66.6642860   2.9155920
  52.7970290  54.8834890  12.7039180  52.1814560  55.3914560  12.1754640
  52.4766710  53.9833220  12.6465120  35.7996030  61.7252500   9.5305480
  35.9627070  61.2557860   8.7124850  36.2648480  61.2176060  10.1954320
  40.5714800  50.8558260   4.5666050  40.1282950  51.6367800   4.2350570
  41.1299790  51.1788150   5.2736990  44.8584610  53.7226780  10.1701370
  44.3963980  53.9309800  10.9821310  44.4562720  52.9086130   9.8672040
  49.8589120  54.9435730  11.2998030  49.0082710  54.6441480  11.6207100
  49.6990910  55.1877740  10.3881850  46.9538830  56.4437480  13.3996820
  47.2792240  55.6101230  13.0599050  47.7419160  56.9666000  13.5475150
  42.6090700  51.4005590   6.4255650  42.9063030  52.3068420   6.3447670
  43.1576260  50.9124370   5.8115220  40.3629020  55.9791830   2.2947300
  40.1369940  55.7629000   3.1993920  39.5821550  56.4120290   1.9493270
  42.8028230  56.8777410  12.9607570  42.7071830  55.9372140  12.8107970
  43.6460210  57.0992480  12.5655640  46.1991650  54.6218740   2.9241230
  46.5921220  54.9390940   2.1109920  46.5608500  53.7430620   3.0385750
  37.9338770  53.2891080  11.1141350  37.5402160  54.1366290  11.3214130
  37.2457170  52.6517450  11.3049990  44.5083820  53.3726050  14.1838090
  43.8182140  53.1798250  14.8184180  45.2516120  53.6560690  14.7162390
  35.2355820  51.2119540   5.1471430  34.9468870  51.7822400   5.8596410
  35.9801580  50.7323990   5.5102660  46.7846790  57.2124490   7.0192010
  46.0527910  57.7211300   7.3682110  46.3871130  56.3954470   6.7180790
  43.2224180  53.8878690   5.4244500  43.2260240  53.4468640   4.5749040
  44.1175300  54.2096020   5.5316320  39.0726560  53.7705180   4.3838710
  38.7326610  54.2480410   5.1405760  38.3103880  53.3170300   4.0239810
  47.2472700  52.6658170   6.4314950  47.2645440  53.1166820   7.2756800
  46.9988280  51.7663810   6.6448390  50.6743450  50.0790350  12.2701330
  50.9989220  49.3480010  12.7959310  50.7099960  49.7603990  11.3682320
  37.3735010  61.1003930  11.6901290  36.9889800  60.4597600  12.2884250
  37.6847200  61.8040050  12.2596020  43.5232150  57.9480470   7.1709910
  43.8902280  57.4739040   7.9171250  43.3337210  58.8222040   7.5118250
  36.3872640  52.6924160   3.3003380  36.1019560  52.3279830   4.1382000
  36.3251500  51.9604620   2.6866520  41.3131520  56.9889110   9.4894120
  41.0088590  57.8681090   9.7144480  42.2677980  57.0488900   9.5251560
  50.6001290  60.1915460   5.8787360  51.3200410  60.6870750   5.4883470
  50.3983110  59.5133350   5.2341230  45.9820090  60.2624520  11.7656360
  45.9157400  59.3420190  11.5113950  45.3525230  60.3599960  12.4801000
  39.8850710  60.8630480   3.7239780  40.4029380  60.0598740   3.6696670
  39.4334730  60.8009620   4.5656610  37.3695250  57.8291850  10.6365480
  37.0110190  58.4945700  11.2238820  37.0749810  56.9975400  11.0078100
  40.5708370  58.2876090  13.5205030  40.2708510  58.4333270  12.6232850
  41.3419610  57.7281380  13.4278420  45.9136820  63.0845090  11.5160160
  45.9281360  62.1526050  11.2979070  45.2061920  63.1704850  12.1549930
  52.1248030  59.7252430  10.8628740  51.3996220  60.3181210  10.6658130
  52.6523490  59.7175970  10.0642110  47.6547620  61.4512600   4.3612590
  48.0071440  60.8540730   3.7013960  46.7709950  61.1256830   4.5320840
  43.7410900  62.2110290   1.7683000  44.4282030  62.7579500   2.1490590
  42.9543320  62.7551020   1.8032610  45.3470720  64.7262660   8.6100660
  45.9912940  64.9322040   9.2874080  45.7100160  63.9651060   8.1571510
  46.6202800  62.7295010   7.3278110  47.2625030  62.0288170   7.4410280
  47.1452150  63.5093450   7.1475000  48.3940420  63.5289910  10.5314170
  48.7296660  64.1156600  11.2092090  47.4740760  63.3982620  10.7611960
  35.9443820  51.3185090  11.3137580  35.2302340  51.5182010  11.9190190
  36.3638860  50.5424660  11.6852380  36.2316410  65.3065350  12.3004110
  36.3407530  64.3660090  12.1599500  35.5796970  65.5720100  11.6517840
  44.2229000  63.5781240  13.7002230  43.9025870  62.8590480  14.2447920
  43.5487360  64.2536310  13.7738290  47.4382600  53.8107400   9.0639030
  47.8063420  52.9902610   9.3918600  46.5780800  53.8709290   9.4794680
  44.3984590  56.4646990   9.2877000  44.8969840  56.9392810   9.9528850
  44.5407540  55.5410510   9.4947030  46.8044090  51.7700950   2.7280260
  46.6811870  51.7887080   1.7789770  47.7528650  51.8179890   2.8478660
  51.6051450  52.6814950  10.1305390  51.1025050  53.4220350  10.4699200
  52.4208110  53.0698950   9.8142180  49.8973460  57.9248130   3.5766750
  48.9563600  57.9398360   3.7514440  50.2117530  57.1384090   4.0227050
  51.8999040  65.0956980   5.2521010  52.0246460  65.9188150   5.7244820
  52.7664600  64.8847710   4.9045160  39.3716570  67.1888190   4.9238140
  40.1079050  66.6403650   5.1946710  39.7557490  68.0544200   4.7844130
  38.3774850  66.3734260  14.1123720  39.1787580  66.6946310  14.5259120
  37.8626670  66.0129840  14.8343630  47.2139480  62.4814130  14.0599130
  46.6077640  62.5045730  13.3194880  46.9093590  61.7497170  14.5966380
  48.6439850  66.2094420  12.6708540  49.5961600  66.1252440  12.6208780
  48.4968070  66.8736130  13.3442330  36.0972660  58.8607720  13.0559770
  36.6011680  58.2815000  13.6276000  35.3580080  59.1447950  13.5936140
  43.1510600  60.2678710  12.5895290  42.3856270  60.8363710  12.5049960
  43.3326560  59.9754920  11.6963520  50.2933950  61.9984040  13.1470310
  51.0343420  62.3359800  12.6437770  49.5306630  62.1676100  12.5940080
  38.1295740  57.0037310  13.9509840  38.1701080  56.7051180  14.8595070
  38.9841240  57.4044920  13.7917360  40.0701550  55.5829410  11.9184330
  39.5398010  55.0920360  11.2907670  40.7389620  56.0113610  11.3842260
  48.9679610  60.0498870  11.6825520  49.3820630  60.2043950  12.5315940
  48.0330610  60.1754090  11.8451300  49.4401780  57.3895030  13.6864670
  50.0222550  56.6347350  13.5985150  49.6163550  57.9202470  12.9096150
  40.5573850  52.5491780  11.9981620  40.4630720  51.9312530  11.2732490
  39.9771240  53.2758070  11.7711530  43.3235290  51.1065020   9.0309010
  42.8752590  51.1289280   8.1854560  42.6900490  50.7084040   9.6279310
  43.7294840  60.0019350   9.6521450  44.1482950  60.8452080   9.4797690
  42.8103470  60.1391390   9.4228230  46.0658740  57.7335530  11.0359290
  46.1854950  57.1376670  11.7754130  46.9252740  57.7705220  10.6160590
  48.4046640  58.2872720   9.6121800  47.8781860  58.8115340   9.0086940
  48.7477980  58.9200110  10.2431530  41.5802260  66.3072360  10.7679180
  41.0423350  67.0318420  10.4487880  41.8336220  65.8302700   9.9776520
  42.8327510  54.2756880  12.2935110  43.4227200  53.9672730  12.9812930
  42.0147750  53.8036630  12.4495010  47.6520940  53.8922690  12.5268130
  46.9636460  53.2304230  12.4618120  48.3726960  53.4460960  12.9716590
  44.4364470  67.5423570  11.0265830  44.3623170  68.4458710  11.3338200
  43.5343310  67.2235470  10.9987900  35.8391760  64.8698160   4.3299450
  36.1694770  64.0019220   4.0978090  36.2682760  65.0756680   5.1604410
  36.3281970  65.7368750   7.0681080  35.8912960  65.9169550   7.9005230
  36.8959650  66.4943370   6.9262800  51.9644150  65.2385750  11.3558390
  51.3646140  65.2978310  10.6122310  52.0938050  64.2990730  11.4855240
  36.1606400  58.2488980   3.4269960  35.5055240  57.9800620   2.7829660
  36.9984350  58.1393460   2.9771940  53.6662030  60.5801150   4.0404230
  54.0370860  59.7968470   3.6340200  54.3063960  61.2690250   3.8621530
  50.6495790  61.9637730   9.4534550  49.8355630  62.3934890   9.7160340
  51.0569990  62.5756140   8.8403600  37.1982330  58.6341550   7.9673300
  37.5655370  58.5468950   8.8469320  36.6293150  57.8708100   7.8680160
  51.9986190  57.1025930  10.9803770  51.7672280  56.8738680  10.0801720
  52.2590740  58.0225480  10.9348660  36.7498330  55.5450640  11.8731720
  35.8554380  55.5117400  12.2125430  37.2895880  55.7437430  12.6382970
  50.4374260  52.3282360  13.7583470  51.3144440  52.3365760  14.1417470
  50.4495100  51.5913200  13.1475820  51.8837530  56.1811900   4.6471490
  52.4075010  55.6874550   4.0161660  52.4696950  56.3162260   5.3919060
  52.0627250  56.2651770   8.1691040  51.1129960  56.2315310   8.2836030
  52.2440260  57.1751880   7.9340810  37.2538040  49.8198970   6.2214940
  37.9014230  49.2696350   5.7810100  37.6739880  50.0742120   7.0430750
  52.8024660  54.0746200   3.1201580  52.6923940  53.9202240   4.0583850
  53.5632250  53.5467140   2.8776990  51.1490380  50.0140330   9.5784580
  51.7862600  50.6274470   9.9443770  51.2965270  50.0500990   8.6333810
  50.7071840  66.7156330   2.9802820  51.3030910  66.3940900   2.3037240
  50.9649990  66.2428150   3.7716090  37.0070040  49.9754640   8.9640260
  36.6584860  50.4318460   9.7298440  36.6757740  49.0811770   9.0462690
  38.6134410  63.1474240  13.1293450  38.5704040  62.7767150  14.0107910
  38.7445420  64.0851810  13.2695270  42.3140440  64.7033830   8.7303170
  42.0731800  64.9708390   7.8433690  43.2543080  64.8739560   8.7854030
  44.5194860  51.1666520  12.4859680  44.4583750  51.7588350  13.2355090
  45.4595240  51.0592480  12.3409940  47.1569420  50.8236580  12.1251970
  47.7709830  51.1415870  11.4633050  47.7018980  50.3385170  12.7447830
  53.5744600  66.7228210   9.5313810  53.0802880  67.1197080   8.8140940
  52.9657890  66.0977420   9.9251090  37.6790680  49.5030840  12.2391030
  38.2273670  49.3218890  11.4757140  37.7445990  48.7124950  12.7747340
  38.4522440  66.0936490  10.2491230  37.8582760  65.9621190  10.9881270
  38.4446280  65.2574630   9.7833330  47.8977460  49.3868720   8.4521260
  47.0237300  49.7203830   8.2494190  47.7888210  48.9141900   9.2773130
  48.8049440  51.5939590   9.8362980  48.4762800  50.7791350   9.4564710
  49.7531740  51.5509400   9.7128670  51.2584050  67.3651630   6.8100550
  50.7987020  68.1167440   6.4358570  50.6296510  66.6458100   6.7515350
  38.0834670  63.4594870   9.1999270  37.3568730  62.8400160   9.1325220
  38.1443820  63.8535480   8.3297350  41.6879770  65.6739870   5.9848680
  42.2044790  65.0627230   5.4596940  42.3377150  66.1768650   6.4759690
  44.4275270  66.5648360   6.8117660  44.7153080  66.3102660   5.9350670
  44.9398490  66.0125720   7.4023230  45.6452280  50.3038560   7.3914170
  44.8624070  50.7784060   7.6710930  45.3515210  49.3993390   7.2827350
  50.1973350  51.0061660   5.4363260  50.6381440  50.9506760   4.5884860
  49.9280940  51.9219670   5.5073440  52.0611920  50.6376900   3.4472080
  52.0000320  49.6938120   3.3003100  52.8403950  50.7456990   3.9925540
  36.3664670  66.7769260   2.4096030  36.1986710  66.1439940   3.1077920
  35.4999180  66.9828660   2.0590220  43.5306500  52.7225310   2.9030200
  42.7181010  52.3482200   2.5626080  44.0348140  51.9670390   3.2051390
  48.0331480  49.3867760   4.1413270  48.6360850  49.9587970   4.6161790
  47.2924470  49.9507200   3.9187170  44.4947630  67.4864460  14.1785860
  45.4214940  67.2508730  14.2221820  44.4798060  68.3136460  13.6971890
  41.6811240  50.1509210  13.9427740  41.3995510  50.6542810  13.1788560
  42.0630940  49.3530960  13.5769870  48.2826700  49.5662790  14.5208210
  48.1692150  49.8857400  15.4159730  49.0996440  49.9675300  14.2245490
  51.0625190  66.7134320  14.0026900  51.8550510  66.2183550  13.7952860
  51.3558340  67.3924460  14.6102510  47.1884850  38.8111770  97.5303890
  47.1078900  37.8966380  97.2595600  46.7749270  39.3078840  96.8243600
  45.3202890  40.5890790  99.4113160  44.5444990  40.1091230  99.7011730
  45.9715820  39.9096440  99.2369320  39.3368720  40.9010600 100.2888920
  38.5053600  40.6459310 100.6885430  39.9449700  40.9721370 101.0246840
  49.3410320  44.9950980  98.1912290  48.8791850  44.2238220  98.5199460
  50.1535870  45.0217050  98.6964740  39.3169980  44.9350690 100.4846940
  39.6198020  44.0448430 100.3057160  40.0613570  45.4920910 100.2569190
  37.7460670  35.8612490  94.0731310  36.8577370  36.2028460  93.9711190
  38.0301860  35.6612810  93.1812140  35.7093680  38.4618140  99.9571010
  36.2809790  37.6940340  99.9574650  35.7095220  38.7606900  99.0477620
  45.5673630  47.2808990  97.8116280  44.9485070  47.7366490  97.2410720
  46.4225410  47.4360450  97.4105980  44.7611880  43.2647980  99.4183320
  44.6920160  42.3237920  99.2572450  45.5231740  43.3549390  99.9905890
  36.9518550  33.8702500 101.7439940  36.7721390  32.9728250 102.0242700
  36.5498630  34.4174370 102.4186890  45.7917050  36.0718360  99.6452250
  46.1681870  35.1990240  99.5325920  45.6936560  36.4077060  98.7542690
  39.9222060  34.4443990  95.1069690  40.0288810  35.3447720  95.4138450
  39.0114420  34.3961960  94.8164340  49.5741170  33.5668800  96.5780590
  50.3950790  33.0765370  96.6206070  49.6075250  34.1566460  97.3312430
  37.5705220  36.3663000 100.3522280  38.2515330  36.6301370 100.9709680
  37.2553270  35.5263870 100.6860290  41.7629790  37.4130360  99.4394870
  42.2708010  37.9111330 100.0799890  42.2943030  36.6365560  99.2634230
  46.4336980  42.1648230  95.2048190  45.8154250  42.6297680  94.6410910
  46.9460230  42.8575710  95.6217700  41.2968740  41.6924100 101.8831790
  40.9638120  42.3193020 102.5252860  41.4735420  42.2185980 101.1033460
  49.8102650  35.5069180  99.3508130  49.1058220  35.7954070  99.9311240
  50.1714810  36.3169290  98.9907690  39.7281220  33.7638880 101.7128740
  40.0698030  34.6080930 101.4182610  38.7897030  33.9122620 101.8294080
  35.8020180  42.8504760  92.5787820  35.4248160  43.3391860  91.8472720
  36.0593250  43.5230040  93.2094350  51.4265430  45.1244310 101.6135610
  50.7428950  45.7943420 101.6052280  51.9659720  45.3224960 100.8480470
  52.8789570  34.9523970  99.7417340  51.9314480  34.9862950  99.8732770
  53.2039560  35.7662920 100.1266700  43.4109110  31.2521150  98.0373330
  43.7184090  30.6968040  97.3208830  42.4809810  31.3865610  97.8546320
  48.9624170  46.9688440 100.3280790  48.9751330  46.5650730  99.4603050
  48.4099390  47.7435730 100.2242220  50.2569590  43.6904660  95.4170960
  50.1465920  42.7478990  95.5420380  50.2537840  44.0520300  96.3033720
  48.3609610  41.8718280 101.6563400  48.7778400  41.6578390 100.8216860
  49.0849430  42.1291070 102.2272020  45.7989870  39.3169980  94.7733450
  44.8719150  39.2507360  95.0021920  45.9514690  40.2550110  94.6588690
  45.7858950  35.5886980  91.7700610  44.8462620  35.7500940  91.8553070
  46.1042210  36.3072660  91.2236600  52.3071710  40.2705500 101.7479640
  51.4790340  40.3398590 101.2729770  52.9022190  40.8559810 101.2795470
  49.8287160  40.8790280  95.2768700  49.2099580  40.5409830  94.6295000
  49.8111610  40.2350040  95.9847890  41.4046510  39.8434720  97.5553180
  41.0003510  39.1311970  97.0599080  41.4909630  39.4987960  98.4441220
  41.8728210  43.5302280  99.7192390  41.5756500  42.9247750  99.0400170
  42.8228030  43.5679590  99.6081750  40.1175130  36.6177930 101.3352220
  40.6689720  36.7273270 100.5605470  40.6318640  36.9915530 102.0507450
  48.0051860  40.1177090  92.2841450  48.4445140  39.2799520  92.1379270
  48.7180280  40.7506490  92.3705590  46.1147240  45.0573160  96.2522690
  46.5543150  45.7997490  95.8378080  46.0534130  45.2999730  97.1761650
  51.5869000  31.3719900  90.5982490  51.2741660  31.4646730  91.4981560
  52.3481470  31.9500930  90.5479920  38.1051140  38.7379700  95.0559830
  37.9848740  39.4641790  94.4441100  37.7952030  37.9682610  94.5787740
  35.7436510  41.9094840 100.8628470  35.8216930  42.0443610  99.9184190
  36.3578190  41.2010730 101.0556590  36.9884140  43.6095030  97.2734650
  36.5812220  43.7509620  96.4188250  37.8797150  43.3255190  97.0705860
  48.7817420  48.0442280  93.6085700  48.6218560  47.7545220  94.5067530
  48.6164130  47.2682410  93.0730930  41.2605800  47.8240810  95.3857320
  41.0848280  46.9076350  95.1725120  40.4061540  48.1828100  95.6255120
  48.4843550  45.5529840  92.1683700  47.7908710  45.5507130  91.5085980
  49.2266410  45.1289160  91.7377870  48.0493480  47.1792550  96.2432190
  48.5050430  46.3981930  96.5570810  48.3886000  47.8899370  96.7873370
  40.5714800  32.0814770  98.4383500  40.1282950  32.8624310  98.1068020
  41.1299790  32.4044660  99.1454440  43.6873620  31.7025470  93.3189330
  43.0627800  31.6985340  94.0442640  43.6003740  30.8356430  92.9225300
  42.6090700  32.6262100 100.2973100  42.9063030  33.5324930 100.2165120
  43.1576260  32.1380880  99.6832670  40.3629020  37.2048340  96.1664750
  40.1369940  36.9885510  97.0711370  39.5821550  37.6376800  95.8210720
  47.5926780  37.2111710  94.7655400  46.9935670  37.9347510  94.5819020
  48.1406390  37.1488490  93.9831850  46.1991650  35.8475250  96.7958680
  46.5921220  36.1647450  95.9827370  46.5608500  34.9687130  96.9103200
  35.2355820  32.4376050  99.0188880  34.9468870  33.0078910  99.7313860
  35.9801580  31.9580500  99.3820110  35.4226050  36.3796170  90.2291600
  35.3400720  37.3226930  90.3706590  35.0709110  36.2371080  89.3503950
  46.7846790  38.4381000 100.8909460  46.0527910  38.9467810 101.2399560
  46.3871130  37.6210980 100.5898240  43.2224180  35.1135200  99.2961950
  43.2260240  34.6725150  98.4466490  44.1175300  35.4352530  99.4033770
  39.0726560  34.9961690  98.2556160  38.7326610  35.4736920  99.0123210
  38.3103880  34.5426810  97.8957260  43.2844330  36.1147280  92.2868710
  43.4057150  36.0733760  93.2354530  42.8992840  36.9771430  92.1315440
  47.2472700  33.8914680 100.3032400  47.2645440  34.3423330 101.1474250
  46.9988280  32.9920320 100.5165840  42.2965830  38.4248420  91.6852010
  41.7282730  37.9766670  91.0587920  43.0054830  38.7841200  91.1517160
  43.5232150  39.1736980 101.0427360  43.8902280  38.6995550 101.7888700
  43.3337210  40.0478550 101.3835700  36.3872640  33.9180670  97.1720830
  36.1019560  33.5536340  98.0099450  36.3251500  33.1861130  96.5583970
  39.8413310  42.4206610  93.9578420  39.0675570  41.8804230  93.7977140
  40.5707940  41.9013220  93.6196180  50.6001290  41.4171970  99.7504810
  51.3200410  41.9127260  99.3600920  50.3983110  40.7389860  99.1058680
  46.0611230  32.8109930  93.8934200  45.2475840  32.3123100  93.8179510
  45.8673180  33.6508180  93.4770550  48.7759620  37.1829580  92.1896360
  49.6639240  37.4946810  92.0147700  48.7464710  36.3101830  91.7976940
  39.8850710  42.0886990  97.5957230  40.4029380  41.2855250  97.5414120
  39.4334730  42.0266130  98.4374060  44.7720210  43.3553270  92.8684530
  45.1135910  44.0995500  92.3727850  43.9432920  43.6684390  93.2309360
  51.0473890  38.4941420  91.6576220  50.9637610  38.9255640  90.8072660
  51.7668080  38.9539770  92.0903040  52.0761140  45.3483680  94.3858350
  51.4337300  44.6939300  94.6602070  51.6891800  45.7538770  93.6099020
  47.6547620  42.6769110  98.2330040  48.0071440  42.0797240  97.5731410
  46.7709950  42.3513340  98.4038290  43.7410900  43.4366800  95.6400450
  44.4282030  43.9836010  96.0208040  42.9543320  43.9807530  95.6750060
  35.8803300  39.0539620  91.1317530  36.7498150  39.3364420  91.4153450
  35.3893620  39.8675490  91.0166340  43.0438110  40.4412830  95.2525810
  43.5000890  41.2518080  95.4786000  42.6926320  40.1235970  96.0844300
  38.9449890  30.7850480  95.7248330  38.8164520  30.7768380  96.6733250
  38.1211910  31.1233570  95.3739340  46.6202800  43.9551520 101.1995560
  47.2625030  43.2544680 101.3127730  47.1452150  44.7349960 101.0192450
  50.4658520  44.2400140  90.9234700  50.2396100  43.5230580  91.5159340
  50.0754720  43.9912580  90.0856450  36.2474550  48.2667000  91.6979160
  36.6072190  48.8656340  91.0436430  36.1066890  48.8126890  92.4714190
  50.0474770  42.1572080  92.5848860  49.7596470  42.6184770  93.3726740
  50.8426940  41.6969850  92.8533080  42.2643170  45.6498200  92.5152830
  42.2553270  46.3827890  91.8997340  41.3441530  45.4029780  92.6079790
  37.8649810  40.8713090  93.2599590  37.2577760  41.6111990  93.2694890
  38.3399160  40.9612450  92.4337790  50.8044630  33.9920850  93.7444040
  50.1757790  34.0966520  93.0302270  50.3096550  34.2117630  94.5337920
  45.2502770  45.7126440  91.1778020  45.3514750  45.5090430  90.2480000
  44.3504510  45.4584720  91.3825800  42.7728660  36.2706800  95.1601920
  42.0644810  36.7393140  95.6015530  43.0573140  35.6128810  95.7947110
  46.8044090  32.9957460  96.5997710  46.6811870  33.0143590  95.6507220
  47.7528650  33.0436400  96.7196110  43.8920880  48.2312760  95.8725690
  44.1462380  48.1934150  94.9505060  42.9433360  48.1046090  95.8653940
  40.9763680  34.5791880  92.5352630  41.8254210  35.0162030  92.4692820
  40.6094950  34.8912140  93.3624690  49.8973460  39.1504640  97.4484200
  48.9563600  39.1654870  97.6231890  50.2117530  38.3640600  97.8944500
  39.8755100  40.8324240  91.0088160  40.6418370  40.7205600  91.5713590
  39.9529790  40.1362210  90.3564930  38.5701860  38.2649310  91.6921050
  38.6505450  37.3176820  91.8038450  39.4621610  38.5956190  91.7981710
  51.8999040  46.3213490  99.1238460  52.0246460  47.1444660  99.5962270
  52.7664600  46.1104220  98.7762610  39.3716570  48.4144700  98.7955590
  40.1079050  47.8660160  99.0664160  39.7557490  49.2800710  98.6561580
  36.2562050  44.4818270  94.6697100  35.3301830  44.7239410  94.6602510
  36.7218480  45.3092530  94.5481850  42.4818880  47.5875010  90.6181160
  43.2747490  47.8763840  90.1662950  41.9623230  47.1567180  89.9393640
  51.5349050  46.8145140  92.0417900  51.2490560  46.4010280  91.2272080
  51.3368600  47.7432850  91.9218420  42.9996280  42.8078420  90.4823510
  42.8946920  42.1930770  91.2084890  42.8320500  42.2844310  89.6986520
  46.2399010  41.8698450  91.0865500  45.6909110  42.3167750  91.7308240
  46.8618270  41.3647700  91.6103170  41.9074130  40.8289370  92.9830800
  42.3290550  40.6629240  93.8262190  42.0324970  40.0189600  92.4885940
  44.4201770  39.8526980  90.2307900  44.9407430  39.1376000  89.8649050
  45.0670170  40.4912850  90.5308410  40.8033030  36.9022600  89.9288960
  40.6022090  36.0389960  90.2902300  40.6325080  36.8155960  88.9910560
  48.2821340  31.7130830  92.4575840  48.5623630  30.8698730  92.8135260
  47.5087070  31.9453940  92.9714590  39.6015830  34.0023220  89.9166840
  39.9041730  34.0090650  89.0085990  40.3410420  33.6521080  90.4134500
  42.8200760  32.9457840  90.9023040  42.4722760  32.2681830  90.3225490
  43.0213530  32.4847350  91.7166430  44.9849800  47.9338590  92.5209640
  45.8800590  48.2723560  92.5428400  45.0167430  47.2118000  91.8933920
  38.6245960  43.3065640  90.7496640  39.0620830  43.8495310  91.4054220
  39.1093690  42.4812590  90.7592980  35.8391760  46.0954670  98.2016900
  36.1694770  45.2275730  97.9695540  36.2682760  46.3013190  99.0321860
  40.4353680  44.4263680  95.8618870  40.1349220  44.3028650  96.7622780
  40.3291170  43.5672270  95.4534600  36.3281970  46.9625260 100.9398530
  35.8912960  47.1426060 101.7722680  36.8959650  47.7199880 100.7980250
  53.2045600  44.2060080  90.5645550  52.3738560  44.2736730  91.0352780
  53.3817430  45.0964200  90.2612410  52.6602060  40.9507560  93.0679750
  53.4220970  41.5204210  93.1739440  52.6756430  40.3834760  93.8388060
  36.1606400  39.4745490  97.2987410  35.5055240  39.2057130  96.6547110
  36.9984350  39.3649970  96.8489390  53.6662030  41.8057660  97.9121680
  54.0370860  41.0224980  97.5057650  54.3063960  42.4946760  97.7338980
  52.7121230  41.2441930  90.2252270  52.9870070  42.1520810  90.0971490
  52.5231970  41.1804460  91.1614260  49.1096840  34.2686780  91.5205900
  49.5281720  34.0817760  90.6802560  48.8032900  33.4165830  91.8308830
  52.6086570  39.1810920  95.2181700  52.2330170  38.4138850  94.7862990
  51.8789690  39.5633620  95.7056630  37.1982330  39.8598060 101.8390750
  37.5655370  39.7725460 102.7186770  36.6293150  39.0964610 101.7397610
  35.3744480  36.6844420  93.2412740  34.4708560  36.9474620  93.0664400
  35.8585100  36.9555590  92.4612700  51.8837530  37.4068410  98.5188940
  52.4075010  36.9131060  97.8879110  52.4696950  37.5418770  99.2636510
  52.0627250  37.4908280 102.0408490  51.1129960  37.4571820 102.1553480
  52.2440260  38.4008390 101.8058260  37.9171690  35.7409960  91.1507120
  38.6263390  35.3193180  90.6654400  37.2011630  35.8085190  90.5190470
  37.5645850  31.7949290  90.1909770  38.2873980  32.3358230  90.5090990
  37.8370370  31.5212710  89.3151310  51.3737500  36.6641760  94.4581350
  51.8696620  36.4312630  95.2430230  51.1753570  35.8253600  94.0418990
  37.2538040  31.0455480 100.0932390  37.9014230  30.4952860  99.6527550
  37.6739880  31.2998630 100.9148200  52.8024660  35.3002710  96.9919030
  52.6923940  35.1458750  97.9301300  53.5632250  34.7723650  96.7494440
  53.6914930  33.1310630  90.2325170  54.6164240  32.9991810  90.0243460
  53.6690720  33.2103450  91.1861620  53.7653420  33.9021290  92.8581880
  52.9704920  33.8366410  93.3874790  53.9696700  34.8371930  92.8467230
  50.7071840  47.9412840  96.8520270  51.3030910  47.6197410  96.1754690
  50.9649990  47.4684660  97.6433540  42.3140440  45.9290340 102.6020620
  42.0731800  46.1964900 101.7151140  43.2543080  46.0996070 102.6571480
  51.2584050  48.5908140 100.6818000  50.7987020  49.3423950 100.3076020
  50.6296510  47.8714610 100.6232800  41.6879770  46.8996380  99.8566130
  42.2044790  46.2883740  99.3314390  42.3377150  47.4025160 100.3477140
  44.4275270  47.7904870 100.6835110  44.7153080  47.5359170  99.8068120
  44.9398490  47.2382230 101.2740680  45.6452280  31.5295070 101.2631620
  44.8624070  32.0040570 101.5428380  45.3515210  30.6249900 101.1544800
  50.1973350  32.2318170  99.3080710  50.6381440  32.1763270  98.4602310
  49.9280940  33.1476180  99.3790890  52.0611920  31.8633410  97.3189530
  52.0000320  30.9194630  97.1720550  52.8403950  31.9713500  97.8642990
  36.3664670  48.0025770  96.2813480  36.1986710  47.3696450  96.9795370
  35.4999180  48.2085170  95.9307670  36.9892690  31.8342550  93.7845340
  37.7472050  31.9471430  93.2109370  36.5269860  32.6711750  93.7388770
  43.5306500  33.9481820  96.7747650  42.7181010  33.5738710  96.4343530
  44.0348140  33.1926900  97.0768840  48.0331480  30.6124270  98.0130720
  48.6360850  31.1844480  98.4879240  47.2924470  31.1763710  97.7904620
  51.1766080  31.0145830  93.2871000  51.3716710  31.9129280  93.5538430
  50.3895950  30.7832910  93.7803950  37.9727370  46.6959000  93.7263620
  37.4474990  47.0767030  93.0225580  37.8971950  47.3209770  94.4473330
  39.3617840  32.3606600  92.3247310  39.8910600  31.5736400  92.1955260
  39.9946160  33.0397790  92.5582840  41.5555680  32.0981740  95.3792700
  40.9258420  31.3969050  95.5462830  41.0160820  32.8585870  95.1625860
  52.7292690  48.2546540  95.0477560  52.9044880  47.5684280  94.4038480
  52.0314260  48.7793590  94.6554230  40.5720340  48.6441380  92.6012870
  41.3039160  48.3600660  92.0536760  40.8314010  48.4054660  93.4912250
  39.7335130  44.7606110  92.6059200  39.1044010  45.2291210  93.1545030
  39.8482960  43.9155330  93.0405390  47.1884850  38.8111770  78.7560400
  47.1078900  37.8966380  78.4852110  46.7749270  39.3078840  78.0500110
  45.3202890  40.5890790  80.6369670  44.5444990  40.1091230  80.9268240
  45.9715820  39.9096440  80.4625830  39.3368720  40.9010600  81.5145430
  38.5053600  40.6459310  81.9141940  39.9449700  40.9721370  82.2503350
  49.3410320  44.9950980  79.4168800  48.8791850  44.2238220  79.7455970
  50.1535870  45.0217050  79.9221250  39.3169980  44.9350690  81.7103450
  39.6198020  44.0448430  81.5313670  40.0613570  45.4920910  81.4825700
  37.7460670  35.8612490  75.2987820  36.8577370  36.2028460  75.1967700
  38.0301860  35.6612810  74.4068650  35.7093680  38.4618140  81.1827520
  36.2809790  37.6940340  81.1831160  35.7095220  38.7606900  80.2734130
  45.5673630  47.2808990  79.0372790  44.9485070  47.7366490  78.4667230
  46.4225410  47.4360450  78.6362490  44.7611880  43.2647980  80.6439830
  44.6920160  42.3237920  80.4828960  45.5231740  43.3549390  81.2162400
  36.9518550  33.8702500  82.9696450  36.7721390  32.9728250  83.2499210
  36.5498630  34.4174370  83.6443400  45.7917050  36.0718360  80.8708760
  46.1681870  35.1990240  80.7582430  45.6936560  36.4077060  79.9799200
  39.9222060  34.4443990  76.3326200  40.0288810  35.3447720  76.6394960
  39.0114420  34.3961960  76.0420850  49.5741170  33.5668800  77.8037100
  50.3950790  33.0765370  77.8462580  49.6075250  34.1566460  78.5568940
  37.5705220  36.3663000  81.5778790  38.2515330  36.6301370  82.1966190
  37.2553270  35.5263870  81.9116800  41.7629790  37.4130360  80.6651380
  42.2708010  37.9111330  81.3056400  42.2943030  36.6365560  80.4890740
  53.8640720  35.5835550  84.3680730  53.1592890  35.9717260  83.8495840
  54.1298640  36.2785840  84.9701660  40.0465890  32.0528920  84.9314800
  40.0484330  32.5701310  84.1260700  39.2170200  31.5759100  84.9084730
  46.4336980  42.1648230  76.4304700  45.8154250  42.6297680  75.8667420
  46.9460230  42.8575710  76.8474210  41.2968740  41.6924100  83.1088300
  40.9638120  42.3193020  83.7509370  41.4735420  42.2185980  82.3289970
  49.8102650  35.5069180  80.5764640  49.1058220  35.7954070  81.1567750
  50.1714810  36.3169290  80.2164200  39.7281220  33.7638880  82.9385250
  40.0698030  34.6080930  82.6439120  38.7897030  33.9122620  83.0550590
  40.5087840  43.6604900  84.9237480  41.1261840  44.3355980  84.6421930
  39.6480960  44.0692880  84.8324980  35.8020180  42.8504760  73.8044330
  35.4248160  43.3391860  73.0729230  36.0593250  43.5230040  74.4350860
  51.4265430  45.1244310  82.8392120  50.7428950  45.7943420  82.8308790
  51.9659720  45.3224960  82.0736980  52.8789570  34.9523970  80.9673850
  51.9314480  34.9862950  81.0989280  53.2039560  35.7662920  81.3523210
  43.4109110  31.2521150  79.2629840  43.7184090  30.6968040  78.5465340
  42.4809810  31.3865610  79.0802830  48.9624170  46.9688440  81.5537300
  48.9751330  46.5650730  80.6859560  48.4099390  47.7435730  81.4498730
  50.2569590  43.6904660  76.6427470  50.1465920  42.7478990  76.7676890
  50.2537840  44.0520300  77.5290230  48.3609610  41.8718280  82.8819910
  48.7778400  41.6578390  82.0473370  49.0849430  42.1291070  83.4528530
  45.7989870  39.3169980  75.9989960  44.8719150  39.2507360  76.2278430
  45.9514690  40.2550110  75.8845200  45.7858950  35.5886980  72.9957120
  44.8462620  35.7500940  73.0809580  46.1042210  36.3072660  72.4493110
  52.3071710  40.2705500  82.9736150  51.4790340  40.3398590  82.4986280
  52.9022190  40.8559810  82.5051980  49.8287160  40.8790280  76.5025210
  49.2099580  40.5409830  75.8551510  49.8111610  40.2350040  77.2104400
  49.2713720  37.0574820  83.9191020  48.8584900  37.8828530  84.1731010
  48.5389670  36.4719860  83.7267380  41.4046510  39.8434720  78.7809690
  41.0003510  39.1311970  78.2855590  41.4909630  39.4987960  79.6697730
  41.8728210  43.5302280  80.9448900  41.5756500  42.9247750  80.2656680
  42.8228030  43.5679590  80.8338260  40.1175130  36.6177930  82.5608730
  40.6689720  36.7273270  81.7861980  40.6318640  36.9915530  83.2763960
  49.9613820  47.1034150  84.6072000  49.4844380  47.9106340  84.4144610
  49.2775610  46.4512480  84.7598210  40.9646640  43.2683970  87.5956700
  40.0675170  43.4923940  87.8430100  40.9899510  43.3918910  86.6468100
  48.0051860  40.1177090  73.5097960  48.4445140  39.2799520  73.3635780
  48.7180280  40.7506490  73.5962100  39.7917860  40.1397290  86.1714070
  39.6525630  41.0120090  86.5401470  38.9099220  39.7970100  86.0262010
  46.1147240  45.0573160  77.4779200  46.5543150  45.7997490  77.0634590
  46.0534130  45.2999730  78.4018160  41.5898210  46.0818990  88.3799220
  41.5613640  46.4861940  87.5127650  41.4263180  45.1529350  88.2170820
  51.5869000  31.3719900  71.8239000  51.2741660  31.4646730  72.7238070
  52.3481470  31.9500930  71.7736430  38.1051140  38.7379700  76.2816340
  37.9848740  39.4641790  75.6697610  37.7952030  37.9682610  75.8044250
  53.5413030  46.8646090  89.6763390  54.0172750  47.3428980  90.3552470
  54.1620190  46.7963580  88.9508890  35.7436510  41.9094840  82.0884980
  35.8216930  42.0443610  81.1440700  36.3578190  41.2010730  82.2813100
  36.9884140  43.6095030  78.4991160  36.5812220  43.7509620  77.6444760
  37.8797150  43.3255190  78.2962370  52.9446280  44.0558940  86.8363400
  53.0709340  43.8170820  85.9180580  52.9867660  43.2243480  87.3085480
  46.8063020  47.7586940  85.4058210  47.3207690  47.6694950  86.2080640
  45.9632100  48.1046640  85.6986120  48.7817420  48.0442280  74.8342210
  48.6218560  47.7545220  75.7324040  48.6164130  47.2682410  74.2987440
  41.2605800  47.8240810  76.6113830  41.0848280  46.9076350  76.3981630
  40.4061540  48.1828100  76.8511630  48.4843550  45.5529840  73.3940210
  47.7908710  45.5507130  72.7342490  49.2266410  45.1289160  72.9634380
  48.0493480  47.1792550  77.4688700  48.5050430  46.3981930  77.7827320
  48.3886000  47.8899370  78.0129880  52.7970290  36.1091400  87.8013140
  52.1814560  36.6171070  87.2728600  52.4766710  35.2089730  87.7439080
  35.7996030  42.9509010  84.6279440  35.9627070  42.4814370  83.8098810
  36.2648480  42.4432570  85.2928280  40.5714800  32.0814770  79.6640010
  40.1282950  32.8624310  79.3324530  41.1299790  32.4044660  80.3710950
  44.8584610  34.9483290  85.2675330  44.3963980  35.1566310  86.0795270
  44.4562720  34.1342640  84.9646000  49.8589120  36.1692240  86.3971990
  49.0082710  35.8697990  86.7181060  49.6990910  36.4134250  85.4855810
  46.9538830  37.6693990  88.4970780  47.2792240  36.8357740  88.1573010
  47.7419160  38.1922510  88.6449110  42.6090700  32.6262100  81.5229610
  42.9063030  33.5324930  81.4421630  43.1576260  32.1380880  80.9089180
  40.3629020  37.2048340  77.3921260  40.1369940  36.9885510  78.2967880
  39.5821550  37.6376800  77.0467230  47.5926780  37.2111710  75.9911910
  46.9935670  37.9347510  75.8075530  48.1406390  37.1488490  75.2088360
  42.8028230  38.1033920  88.0581530  42.7071830  37.1628650  87.9081930
  43.6460210  38.3248990  87.6629600  46.1991650  35.8475250  78.0215190
  46.5921220  36.1647450  77.2083880  46.5608500  34.9687130  78.1359710
  37.9338770  34.5147590  86.2115310  37.5402160  35.3622800  86.4188090
  37.2457170  33.8773960  86.4023950  44.5083820  34.5982560  89.2812050
  43.8182140  34.4054760  89.9158140  45.2516120  34.8817200  89.8136350
  35.2355820  32.4376050  80.2445390  34.9468870  33.0078910  80.9570370
  35.9801580  31.9580500  80.6076620  35.4226050  36.3796170  71.4548110
  35.3400720  37.3226930  71.5963100  35.0709110  36.2371080  70.5760460
  46.7846790  38.4381000  82.1165970  46.0527910  38.9467810  82.4656070
  46.3871130  37.6210980  81.8154750  43.2224180  35.1135200  80.5218460
  43.2260240  34.6725150  79.6723000  44.1175300  35.4352530  80.6290280
  39.0726560  34.9961690  79.4812670  38.7326610  35.4736920  80.2379720
  38.3103880  34.5426810  79.1213770  43.2844330  36.1147280  73.5125220
  43.4057150  36.0733760  74.4611040  42.8992840  36.9771430  73.3571950
  47.2472700  33.8914680  81.5288910  47.2645440  34.3423330  82.3730760
  46.9988280  32.9920320  81.7422350  42.2965830  38.4248420  72.9108520
  41.7282730  37.9766670  72.2844430  43.0054830  38.7841200  72.3773670
  50.6743450  31.3046860  87.3675290  50.9989220  30.5736520  87.8933270
  50.7099960  30.9860500  86.4656280  37.3735010  42.3260440  86.7875250
  36.9889800  41.6854110  87.3858210  37.6847200  43.0296560  87.3569980
  43.5232150  39.1736980  82.2683870  43.8902280  38.6995550  83.0145210
  43.3337210  40.0478550  82.6092210  36.3872640  33.9180670  78.3977340
  36.1019560  33.5536340  79.2355960  36.3251500  33.1861130  77.7840480
  41.3131520  38.2145620  84.5868080  41.0088590  39.0937600  84.8118440
  42.2677980  38.2745410  84.6225520  39.8413310  42.4206610  75.1834930
  39.0675570  41.8804230  75.0233650  40.5707940  41.9013220  74.8452690
  50.6001290  41.4171970  80.9761320  51.3200410  41.9127260  80.5857430
  50.3983110  40.7389860  80.3315190  45.9820090  41.4881030  86.8630320
  45.9157400  40.5676700  86.6087910  45.3525230  41.5856470  87.5774960
  48.7759620  37.1829580  73.4152870  49.6639240  37.4946810  73.2404210
  48.7464710  36.3101830  73.0233450  39.8850710  42.0886990  78.8213740
  40.4029380  41.2855250  78.7670630  39.4334730  42.0266130  79.6630570
  44.7720210  43.3553270  74.0941040  45.1135910  44.0995500  73.5984360
  43.9432920  43.6684390  74.4565870  37.3695250  39.0548360  85.7339440
  37.0110190  39.7202210  86.3212780  37.0749810  38.2231910  86.1052060
  40.5708370  39.5132600  88.6178990  40.2708510  39.6589780  87.7206810
  41.3419610  38.9537890  88.5252380  45.9136820  44.3101600  86.6134120
  45.9281360  43.3782560  86.3953030  45.2061920  44.3961360  87.2523890
  51.0473890  38.4941420  72.8832730  50.9637610  38.9255640  72.0329170
  51.7668080  38.9539770  73.3159550  52.1248030  40.9508940  85.9602700
  51.3996220  41.5437720  85.7632090  52.6523490  40.9432480  85.1616070
  52.0761140  45.3483680  75.6114860  51.4337300  44.6939300  75.8858580
  51.6891800  45.7538770  74.8355530  47.6547620  42.6769110  79.4586550
  48.0071440  42.0797240  78.7987920  46.7709950  42.3513340  79.6294800
  43.7410900  43.4366800  76.8656960  44.4282030  43.9836010  77.2464550
  42.9543320  43.9807530  76.9006570  35.8803300  39.0539620  72.3574040
  36.7498150  39.3364420  72.6409960  35.3893620  39.8675490  72.2422850
  43.0438110  40.4412830  76.4782320  43.5000890  41.2518080  76.7042510
  42.6926320  40.1235970  77.3100810  45.3470720  45.9519170  83.7074620
  45.9912940  46.1578550  84.3848040  45.7100160  45.1907570  83.2545470
  38.9449890  30.7850480  76.9504840  38.8164520  30.7768380  77.8989760
  38.1211910  31.1233570  76.5995850  46.6202800  43.9551520  82.4252070
  47.2625030  43.2544680  82.5384240  47.1452150  44.7349960  82.2448960
  48.3940420  44.7546420  85.6288130  48.7296660  45.3413110  86.3066050
  47.4740760  44.6239130  85.8585920  36.2474550  48.2667000  72.9235670
  36.6072190  48.8656340  72.2692940  36.1066890  48.8126890  73.6970700
  35.9443820  32.5441600  86.4111540  35.2302340  32.7438520  87.0164150
  36.3638860  31.7681170  86.7826340  50.0474770  42.1572080  73.8105370
  49.7596470  42.6184770  74.5983250  50.8426940  41.6969850  74.0789590
  36.2316410  46.5321860  87.3978070  36.3407530  45.5916600  87.2573460
  35.5796970  46.7976610  86.7491800  44.2229000  44.8037750  88.7976190
  43.9025870  44.0846990  89.3421880  43.5487360  45.4792820  88.8712250
  42.2643170  45.6498200  73.7409340  42.2553270  46.3827890  73.1253850
  41.3441530  45.4029780  73.8336300  37.8649810  40.8713090  74.4856100
  37.2577760  41.6111990  74.4951400  38.3399160  40.9612450  73.6594300
  47.4382600  35.0363910  84.1612990  47.8063420  34.2159120  84.4892560
  46.5780800  35.0965800  84.5768640  50.8044630  33.9920850  74.9700550
  50.1757790  34.0966520  74.2558780  50.3096550  34.2117630  75.7594430
  45.2502770  45.7126440  72.4034530  45.3514750  45.5090430  71.4736510
  44.3504510  45.4584720  72.6082310  42.7728660  36.2706800  76.3858430
  42.0644810  36.7393140  76.8272040  43.0573140  35.6128810  77.0203620
  44.3984590  37.6903500  84.3850960  44.8969840  38.1649320  85.0502810
  44.5407540  36.7667020  84.5920990  46.8044090  32.9957460  77.8254220
  46.6811870  33.0143590  76.8763730  47.7528650  33.0436400  77.9452620
  43.8920880  48.2312760  77.0982200  44.1462380  48.1934150  76.1761570
  42.9433360  48.1046090  77.0910450  40.9763680  34.5791880  73.7609140
  41.8254210  35.0162030  73.6949330  40.6094950  34.8912140  74.5881200
  51.6051450  33.9071460  85.2279350  51.1025050  34.6476860  85.5673160
  52.4208110  34.2955460  84.9116140  49.8973460  39.1504640  78.6740710
  48.9563600  39.1654870  78.8488400  50.2117530  38.3640600  79.1201010
  39.8755100  40.8324240  72.2344670  40.6418370  40.7205600  72.7970100
  39.9529790  40.1362210  71.5821440  38.5701860  38.2649310  72.9177560
  38.6505450  37.3176820  73.0294960  39.4621610  38.5956190  73.0238220
  51.8999040  46.3213490  80.3494970  52.0246460  47.1444660  80.8218780
  52.7664600  46.1104220  80.0019120  39.3716570  48.4144700  80.0212100
  40.1079050  47.8660160  80.2920670  39.7557490  49.2800710  79.8818090
  36.2562050  44.4818270  75.8953610  35.3301830  44.7239410  75.8859020
  36.7218480  45.3092530  75.7738360  38.3774850  47.5990770  89.2097680
  39.1787580  47.9202820  89.6233080  37.8626670  47.2386350  89.9317590
  42.4818880  47.5875010  71.8437670  43.2747490  47.8763840  71.3919460
  41.9623230  47.1567180  71.1650150  47.2139480  43.7070640  89.1573090
  46.6077640  43.7302240  88.4168840  46.9093590  42.9753680  89.6940340
  48.6439850  47.4350930  87.7682500  49.5961600  47.3508950  87.7182740
  48.4968070  48.0992640  88.4416290  36.0972660  40.0864230  88.1533730
  36.6011680  39.5071510  88.7249960  35.3580080  40.3704460  88.6910100
  42.9996280  42.8078420  71.7080020  42.8946920  42.1930770  72.4341400
  42.8320500  42.2844310  70.9243030  43.1510600  41.4935220  87.6869250
  42.3856270  42.0620220  87.6023920  43.3326560  41.2011430  86.7937480
  46.2399010  41.8698450  72.3122010  45.6909110  42.3167750  72.9564750
  46.8618270  41.3647700  72.8359680  50.2933950  43.2240550  88.2444270
  51.0343420  43.5616310  87.7411730  49.5306630  43.3932610  87.6914040
  38.1295740  38.2293820  89.0483800  38.1701080  37.9307690  89.9569030
  38.9841240  38.6301430  88.8891320  41.9074130  40.8289370  74.2087310
  42.3290550  40.6629240  75.0518700  42.0324970  40.0189600  73.7142450
  40.0701550  36.8085920  87.0158290  39.5398010  36.3176870  86.3881630
  40.7389620  37.2370120  86.4816220  44.4201770  39.8526980  71.4564410
  44.9407430  39.1376000  71.0905560  45.0670170  40.4912850  71.7564920
  48.9679610  41.2755380  86.7799480  49.3820630  41.4300460  87.6289900
  48.0330610  41.4010600  86.9425260  49.4401780  38.6151540  88.7838630
  50.0222550  37.8603860  88.6959110  49.6163550  39.1458980  88.0070110
  40.5573850  33.7748290  87.0955580  40.4630720  33.1569040  86.3706450
  39.9771240  34.5014580  86.8685490  43.3235290  32.3321530  84.1282970
  42.8752590  32.3545790  83.2828520  42.6900490  31.9340550  84.7253270
  43.7294840  41.2275860  84.7495410  44.1482950  42.0708590  84.5771650
  42.8103470  41.3647900  84.5202190  46.0658740  38.9592040  86.1333250
  46.1854950  38.3633180  86.8728090  46.9252740  38.9961730  85.7134550
  48.4046640  39.5129230  84.7095760  47.8781860  40.0371850  84.1060900
  48.7477980  40.1456620  85.3405490  40.8033030  36.9022600  71.1545470
  40.6022090  36.0389960  71.5158810  40.6325080  36.8155960  70.2167070
  41.5802260  47.5328870  85.8653140  41.0423350  48.2574930  85.5461840
  41.8336220  47.0559210  85.0750480  42.8327510  35.5013390  87.3909070
  43.4227200  35.1929240  88.0786890  42.0147750  35.0293140  87.5468970
  47.6520940  35.1179200  87.6242090  46.9636460  34.4560740  87.5592080
  48.3726960  34.6717470  88.0690550  48.2821340  31.7130830  73.6832350
  48.5623630  30.8698730  74.0391770  47.5087070  31.9453940  74.1971100
  39.6015830  34.0023220  71.1423350  39.9041730  34.0090650  70.2342500
  40.3410420  33.6521080  71.6391010  44.4364470  48.7680080  86.1239790
  44.3623170  49.6715220  86.4312160  43.5343310  48.4491980  86.0961860
  44.9849800  47.9338590  73.7466150  45.8800590  48.2723560  73.7684910
  45.0167430  47.2118000  73.1190430  38.6245960  43.3065640  71.9753150
  39.0620830  43.8495310  72.6310730  39.1093690  42.4812590  71.9849490
  35.8391760  46.0954670  79.4273410  36.1694770  45.2275730  79.1952050
  36.2682760  46.3013190  80.2578370  40.4353680  44.4263680  77.0875380
  40.1349220  44.3028650  77.9879290  40.3291170  43.5672270  76.6791110
  36.3281970  46.9625260  82.1655040  35.8912960  47.1426060  82.9979190
  36.8959650  47.7199880  82.0236760  51.9644150  46.4642260  86.4532350
  51.3646140  46.5234820  85.7096270  52.0938050  45.5247240  86.5829200
  52.6602060  40.9507560  74.2936260  53.4220970  41.5204210  74.3995950
  52.6756430  40.3834760  75.0644570  36.1606400  39.4745490  78.5243920
  35.5055240  39.2057130  77.8803620  36.9984350  39.3649970  78.0745900
  53.6662030  41.8057660  79.1378190  54.0370860  41.0224980  78.7314160
  54.3063960  42.4946760  78.9595490  50.6495790  43.1894240  84.5508510
  49.8355630  43.6191400  84.8134300  51.0569990  43.8012650  83.9377560
  52.7121230  41.2441930  71.4508780  52.9870070  42.1520810  71.3228000
  52.5231970  41.1804460  72.3870770  49.1096840  34.2686780  72.7462410
  49.5281720  34.0817760  71.9059070  48.8032900  33.4165830  73.0565340
  52.6086570  39.1810920  76.4438210  52.2330170  38.4138850  76.0119500
  51.8789690  39.5633620  76.9313140  37.1982330  39.8598060  83.0647260
  37.5655370  39.7725460  83.9443280  36.6293150  39.0964610  82.9654120
  51.9986190  38.3282440  86.0777730  51.7672280  38.0995190  85.1775680
  52.2590740  39.2481990  86.0322620  36.7498330  36.7707150  86.9705680
  35.8554380  36.7373910  87.3099390  37.2895880  36.9693940  87.7356930
  50.4374260  33.5538870  88.8557430  51.3144440  33.5622270  89.2391430
  50.4495100  32.8169710  88.2449780  35.3744480  36.6844420  74.4669250
  34.4708560  36.9474620  74.2920910  35.8585100  36.9555590  73.6869210
  51.8837530  37.4068410  79.7445450  52.4075010  36.9131060  79.1135620
  52.4696950  37.5418770  80.4893020  52.0627250  37.4908280  83.2665000
  51.1129960  37.4571820  83.3809990  52.2440260  38.4008390  83.0314770
  37.9171690  35.7409960  72.3763630  38.6263390  35.3193180  71.8910910
  37.2011630  35.8085190  71.7446980  37.5645850  31.7949290  71.4166280
  38.2873980  32.3358230  71.7347500  37.8370370  31.5212710  70.5407820
  51.3737500  36.6641760  75.6837860  51.8696620  36.4312630  76.4686740
  51.1753570  35.8253600  75.2675500  37.2538040  31.0455480  81.3188900
  37.9014230  30.4952860  80.8784060  37.6739880  31.2998630  82.1404710
  52.8024660  35.3002710  78.2175540  52.6923940  35.1458750  79.1557810
  53.5632250  34.7723650  77.9750950  51.1490380  31.2396840  84.6758540
  51.7862600  31.8530980  85.0417730  51.2965270  31.2757500  83.7307770
  53.6914930  33.1310630  71.4581680  54.6164240  32.9991810  71.2499970
  53.6690720  33.2103450  72.4118130  53.7653420  33.9021290  74.0838390
  52.9704920  33.8366410  74.6131300  53.9696700  34.8371930  74.0723740
  50.7071840  47.9412840  78.0776780  51.3030910  47.6197410  77.4011200
  50.9649990  47.4684660  78.8690050  37.0070040  31.2011150  84.0614220
  36.6584860  31.6574970  84.8272400  36.6757740  30.3068280  84.1436650
  38.6134410  44.3730750  88.2267410  38.5704040  44.0023660  89.1081870
  38.7445420  45.3108320  88.3669230  42.3140440  45.9290340  83.8277130
  42.0731800  46.1964900  82.9407650  43.2543080  46.0996070  83.8827990
  44.5194860  32.3923030  87.5833640  44.4583750  32.9844860  88.3329050
  45.4595240  32.2848990  87.4383900  47.1569420  32.0493090  87.2225930
  47.7709830  32.3672380  86.5607010  47.7018980  31.5641680  87.8421790
  53.5744600  47.9484720  84.6287770  53.0802880  48.3453590  83.9114900
  52.9657890  47.3233930  85.0225050  37.6790680  30.7287350  87.3364990
  38.2273670  30.5475400  86.5731100  37.7445990  29.9381460  87.8721300
  38.4522440  47.3193000  85.3465190  37.8582760  47.1877700  86.0855230
  38.4446280  46.4831140  84.8807290  47.8977460  30.6125230  83.5495220
  47.0237300  30.9460340  83.3468150  47.7888210  30.1398410  84.3747090
  48.8049440  32.8196100  84.9336940  48.4762800  32.0047860  84.5538670
  49.7531740  32.7765910  84.8102630  51.2584050  48.5908140  81.9074510
  50.7987020  49.3423950  81.5332530  50.6296510  47.8714610  81.8489310
  38.0834670  44.6851380  84.2973230  37.3568730  44.0656670  84.2299180
  38.1443820  45.0791990  83.4271310  41.6879770  46.8996380  81.0822640
  42.2044790  46.2883740  80.5570900  42.3377150  47.4025160  81.5733650
  44.4275270  47.7904870  81.9091620  44.7153080  47.5359170  81.0324630
  44.9398490  47.2382230  82.4997190  45.6452280  31.5295070  82.4888130
  44.8624070  32.0040570  82.7684890  45.3515210  30.6249900  82.3801310
  50.1973350  32.2318170  80.5337220  50.6381440  32.1763270  79.6858820
  49.9280940  33.1476180  80.6047400  52.0611920  31.8633410  78.5446040
  52.0000320  30.9194630  78.3977060  52.8403950  31.9713500  79.0899500
  36.3664670  48.0025770  77.5069990  36.1986710  47.3696450  78.2051880
  35.4999180  48.2085170  77.1564180  36.9892690  31.8342550  75.0101850
  37.7472050  31.9471430  74.4365880  36.5269860  32.6711750  74.9645280
  43.5306500  33.9481820  78.0004160  42.7181010  33.5738710  77.6600040
  44.0348140  33.1926900  78.3025350  48.0331480  30.6124270  79.2387230
  48.6360850  31.1844480  79.7135750  47.2924470  31.1763710  79.0161130
  51.1766080  31.0145830  74.5127510  51.3716710  31.9129280  74.7794940
  50.3895950  30.7832910  75.0060460  37.9727370  46.6959000  74.9520130
  37.4474990  47.0767030  74.2482090  37.8971950  47.3209770  75.6729840
  44.4947630  48.7120970  89.2759820  45.4214940  48.4765240  89.3195780
  44.4798060  49.5392970  88.7945850  52.7292690  48.2546540  76.2734070
  52.9044880  47.5684280  75.6294990  52.0314260  48.7793590  75.8810740
  41.6811240  31.3765720  89.0401700  41.3995510  31.8799320  88.2762520
  42.0630940  30.5787470  88.6743830  40.5720340  48.6441380  73.8269380
  41.3039160  48.3600660  73.2793270  40.8314010  48.4054660  74.7168760
  39.7335130  44.7606110  73.8315710  39.1044010  45.2291210  74.3801540
  39.8482960  43.9155330  74.2661900  48.2826700  30.7919300  89.6182170
  48.1692150  31.1113910  90.5133690  49.0996440  31.1931810  89.3219450
  51.0625190  47.9390830  89.1000860  51.8550510  47.4440060  88.8926820
  51.3558340  48.6180970  89.7076470  47.1884850  38.8111770  59.9816910
  47.1078900  37.8966380  59.7108620  46.7749270  39.3078840  59.2756620
  45.3202890  40.5890790  61.8626180  44.5444990  40.1091230  62.1524750
  45.9715820  39.9096440  61.6882340  39.3368720  40.9010600  62.7401940
  38.5053600  40.6459310  63.1398450  39.9449700  40.9721370  63.4759860
  49.3410320  44.9950980  60.6425310  48.8791850  44.2238220  60.9712480
  50.1535870  45.0217050  61.1477760  39.3169980  44.9350690  62.9359960
  39.6198020  44.0448430  62.7570180  40.0613570  45.4920910  62.7082210
  37.7460670  35.8612490  56.5244330  36.8577370  36.2028460  56.4224210
  38.0301860  35.6612810  55.6325160  35.7093680  38.4618140  62.4084030
  36.2809790  37.6940340  62.4087670  35.7095220  38.7606900  61.4990640
  45.5673630  47.2808990  60.2629300  44.9485070  47.7366490  59.6923740
  46.4225410  47.4360450  59.8619000  44.7611880  43.2647980  61.8696340
  44.6920160  42.3237920  61.7085470  45.5231740  43.3549390  62.4418910
  36.9518550  33.8702500  64.1952960  36.7721390  32.9728250  64.4755720
  36.5498630  34.4174370  64.8699910  45.7917050  36.0718360  62.0965270
  46.1681870  35.1990240  61.9838940  45.6936560  36.4077060  61.2055710
  39.9222060  34.4443990  57.5582710  40.0288810  35.3447720  57.8651470
  39.0114420  34.3961960  57.2677360  49.5741170  33.5668800  59.0293610
  50.3950790  33.0765370  59.0719090  49.6075250  34.1566460  59.7825450
  37.5705220  36.3663000  62.8035300  38.2515330  36.6301370  63.4222700
  37.2553270  35.5263870  63.1373310  41.7629790  37.4130360  61.8907890
  42.2708010  37.9111330  62.5312910  42.2943030  36.6365560  61.7147250
  40.0465890  32.0528920  66.1571310  40.0484330  32.5701310  65.3517210
  39.2170200  31.5759100  66.1341240  46.4336980  42.1648230  57.6561210
  45.8154250  42.6297680  57.0923930  46.9460230  42.8575710  58.0730720
  41.2968740  41.6924100  64.3344810  40.9638120  42.3193020  64.9765880
  41.4735420  42.2185980  63.5546480  49.8102650  35.5069180  61.8021150
  49.1058220  35.7954070  62.3824260  50.1714810  36.3169290  61.4420710
  39.7281220  33.7638880  64.1641760  40.0698030  34.6080930  63.8695630
  38.7897030  33.9122620  64.2807100  40.5087840  43.6604900  66.1493990
  41.1261840  44.3355980  65.8678440  39.6480960  44.0692880  66.0581490
  35.8020180  42.8504760  55.0300840  35.4248160  43.3391860  54.2985740
  36.0593250  43.5230040  55.6607370  43.4109110  31.2521150  60.4886350
  43.7184090  30.6968040  59.7721850  42.4809810  31.3865610  60.3059340
  48.9624170  46.9688440  62.7793810  48.9751330  46.5650730  61.9116070
  48.4099390  47.7435730  62.6755240  50.2569590  43.6904660  57.8683980
  50.1465920  42.7478990  57.9933400  50.2537840  44.0520300  58.7546740
  48.3609610  41.8718280  64.1076420  48.7778400  41.6578390  63.2729880
  49.0849430  42.1291070  64.6785040  45.7989870  39.3169980  57.2246470
  44.8719150  39.2507360  57.4534940  45.9514690  40.2550110  57.1101710
  45.7858950  35.5886980  54.2213630  44.8462620  35.7500940  54.3066090
  46.1042210  36.3072660  53.6749620  52.3071710  40.2705500  64.1992660
  51.4790340  40.3398590  63.7242790  52.9022190  40.8559810  63.7308490
  49.8287160  40.8790280  57.7281720  49.2099580  40.5409830  57.0808020
  49.8111610  40.2350040  58.4360910  49.2713720  37.0574820  65.1447530
  48.8584900  37.8828530  65.3987520  48.5389670  36.4719860  64.9523890
  41.4046510  39.8434720  60.0066200  41.0003510  39.1311970  59.5112100
  41.4909630  39.4987960  60.8954240  41.8728210  43.5302280  62.1705410
  41.5756500  42.9247750  61.4913190  42.8228030  43.5679590  62.0594770
  40.1175130  36.6177930  63.7865240  40.6689720  36.7273270  63.0118490
  40.6318640  36.9915530  64.5020470  49.9613820  47.1034150  65.8328510
  49.4844380  47.9106340  65.6401120  49.2775610  46.4512480  65.9854720
  40.9646640  43.2683970  68.8213210  40.0675170  43.4923940  69.0686610
  40.9899510  43.3918910  67.8724610  48.0051860  40.1177090  54.7354470
  48.4445140  39.2799520  54.5892290  48.7180280  40.7506490  54.8218610
  39.7917860  40.1397290  67.3970580  39.6525630  41.0120090  67.7657980
  38.9099220  39.7970100  67.2518520  46.1147240  45.0573160  58.7035710
  46.5543150  45.7997490  58.2891100  46.0534130  45.2999730  59.6274670
  41.5898210  46.0818990  69.6055730  41.5613640  46.4861940  68.7384160
  41.4263180  45.1529350  69.4427330  38.1051140  38.7379700  57.5072850
  37.9848740  39.4641790  56.8954120  37.7952030  37.9682610  57.0300760
  35.7436510  41.9094840  63.3141490  35.8216930  42.0443610  62.3697210
  36.3578190  41.2010730  63.5069610  36.9884140  43.6095030  59.7247670
  36.5812220  43.7509620  58.8701270  37.8797150  43.3255190  59.5218880
  46.8063020  47.7586940  66.6314720  47.3207690  47.6694950  67.4337150
  45.9632100  48.1046640  66.9242630  48.7817420  48.0442280  56.0598720
  48.6218560  47.7545220  56.9580550  48.6164130  47.2682410  55.5243950
  41.2605800  47.8240810  57.8370340  41.0848280  46.9076350  57.6238140
  40.4061540  48.1828100  58.0768140  48.4843550  45.5529840  54.6196720
  47.7908710  45.5507130  53.9599000  49.2266410  45.1289160  54.1890890
  48.0493480  47.1792550  58.6945210  48.5050430  46.3981930  59.0083830
  48.3886000  47.8899370  59.2386390  52.7970290  36.1091400  69.0269650
  52.1814560  36.6171070  68.4985110  52.4766710  35.2089730  68.9695590
  35.7996030  42.9509010  65.8535950  35.9627070  42.4814370  65.0355320
  36.2648480  42.4432570  66.5184790  40.5714800  32.0814770  60.8896520
  40.1282950  32.8624310  60.5581040  41.1299790  32.4044660  61.5967460
  44.8584610  34.9483290  66.4931840  44.3963980  35.1566310  67.3051780
  44.4562720  34.1342640  66.1902510  49.8589120  36.1692240  67.6228500
  49.0082710  35.8697990  67.9437570  49.6990910  36.4134250  66.7112320
  46.9538830  37.6693990  69.7227290  47.2792240  36.8357740  69.3829520
  47.7419160  38.1922510  69.8705620  43.6873620  31.7025470  55.7702350
  43.0627800  31.6985340  56.4955660  43.6003740  30.8356430  55.3738320
  42.6090700  32.6262100  62.7486120  42.9063030  33.5324930  62.6678140
  43.1576260  32.1380880  62.1345690  40.3629020  37.2048340  58.6177770
  40.1369940  36.9885510  59.5224390  39.5821550  37.6376800  58.2723740
  47.5926780  37.2111710  57.2168420  46.9935670  37.9347510  57.0332040
  48.1406390  37.1488490  56.4344870  42.8028230  38.1033920  69.2838040
  42.7071830  37.1628650  69.1338440  43.6460210  38.3248990  68.8886110
  46.1991650  35.8475250  59.2471700  46.5921220  36.1647450  58.4340390
  46.5608500  34.9687130  59.3616220  37.9338770  34.5147590  67.4371820
  37.5402160  35.3622800  67.6444600  37.2457170  33.8773960  67.6280460
  44.5083820  34.5982560  70.5068560  43.8182140  34.4054760  71.1414650
  45.2516120  34.8817200  71.0392860  35.2355820  32.4376050  61.4701900
  34.9468870  33.0078910  62.1826880  35.9801580  31.9580500  61.8333130
  35.4226050  36.3796170  52.6804620  35.3400720  37.3226930  52.8219610
  35.0709110  36.2371080  51.8016970  46.7846790  38.4381000  63.3422480
  46.0527910  38.9467810  63.6912580  46.3871130  37.6210980  63.0411260
  43.2224180  35.1135200  61.7474970  43.2260240  34.6725150  60.8979510
  44.1175300  35.4352530  61.8546790  39.0726560  34.9961690  60.7069180
  38.7326610  35.4736920  61.4636230  38.3103880  34.5426810  60.3470280
  43.2844330  36.1147280  54.7381730  43.4057150  36.0733760  55.6867550
  42.8992840  36.9771430  54.5828460  47.2472700  33.8914680  62.7545420
  47.2645440  34.3423330  63.5987270  46.9988280  32.9920320  62.9678860
  42.2965830  38.4248420  54.1365030  41.7282730  37.9766670  53.5100940
  43.0054830  38.7841200  53.6030180  50.6743450  31.3046860  68.5931800
  50.9989220  30.5736520  69.1189780  50.7099960  30.9860500  67.6912790
  37.3735010  42.3260440  68.0131760  36.9889800  41.6854110  68.6114720
  37.6847200  43.0296560  68.5826490  43.5232150  39.1736980  63.4940380
  43.8902280  38.6995550  64.2401720  43.3337210  40.0478550  63.8348720
  36.3872640  33.9180670  59.6233850  36.1019560  33.5536340  60.4612470
  36.3251500  33.1861130  59.0096990  41.3131520  38.2145620  65.8124590
  41.0088590  39.0937600  66.0374950  42.2677980  38.2745410  65.8482030
  39.8413310  42.4206610  56.4091440  39.0675570  41.8804230  56.2490160
  40.5707940  41.9013220  56.0709200  50.6001290  41.4171970  62.2017830
  51.3200410  41.9127260  61.8113940  50.3983110  40.7389860  61.5571700
  46.0611230  32.8109930  56.3447220  45.2475840  32.3123100  56.2692530
  45.8673180  33.6508180  55.9283570  45.9820090  41.4881030  68.0886830
  45.9157400  40.5676700  67.8344420  45.3525230  41.5856470  68.8031470
  48.7759620  37.1829580  54.6409380  49.6639240  37.4946810  54.4660720
  48.7464710  36.3101830  54.2489960  39.8850710  42.0886990  60.0470250
  40.4029380  41.2855250  59.9927140  39.4334730  42.0266130  60.8887080
  44.7720210  43.3553270  55.3197550  45.1135910  44.0995500  54.8240870
  43.9432920  43.6684390  55.6822380  37.3695250  39.0548360  66.9595950
  37.0110190  39.7202210  67.5469290  37.0749810  38.2231910  67.3308570
  40.5708370  39.5132600  69.8435500  40.2708510  39.6589780  68.9463320
  41.3419610  38.9537890  69.7508890  45.9136820  44.3101600  67.8390630
  45.9281360  43.3782560  67.6209540  45.2061920  44.3961360  68.4780400
  51.0473890  38.4941420  54.1089240  50.9637610  38.9255640  53.2585680
  51.7668080  38.9539770  54.5416060  52.1248030  40.9508940  67.1859210
  51.3996220  41.5437720  66.9888600  52.6523490  40.9432480  66.3872580
  52.0761140  45.3483680  56.8371370  51.4337300  44.6939300  57.1115090
  51.6891800  45.7538770  56.0612040  47.6547620  42.6769110  60.6843060
  48.0071440  42.0797240  60.0244430  46.7709950  42.3513340  60.8551310
  43.7410900  43.4366800  58.0913470  44.4282030  43.9836010  58.4721060
  42.9543320  43.9807530  58.1263080  35.8803300  39.0539620  53.5830550
  36.7498150  39.3364420  53.8666470  35.3893620  39.8675490  53.4679360
  43.0438110  40.4412830  57.7038830  43.5000890  41.2518080  57.9299020
  42.6926320  40.1235970  58.5357320  45.3470720  45.9519170  64.9331130
  45.9912940  46.1578550  65.6104550  45.7100160  45.1907570  64.4801980
  38.9449890  30.7850480  58.1761350  38.8164520  30.7768380  59.1246270
  38.1211910  31.1233570  57.8252360  46.6202800  43.9551520  63.6508580
  47.2625030  43.2544680  63.7640750  47.1452150  44.7349960  63.4705470
  48.3940420  44.7546420  66.8544640  48.7296660  45.3413110  67.5322560
  47.4740760  44.6239130  67.0842430  36.2474550  48.2667000  54.1492180
  36.6072190  48.8656340  53.4949450  36.1066890  48.8126890  54.9227210
  35.9443820  32.5441600  67.6368050  35.2302340  32.7438520  68.2420660
  36.3638860  31.7681170  68.0082850  50.0474770  42.1572080  55.0361880
  49.7596470  42.6184770  55.8239760  50.8426940  41.6969850  55.3046100
  36.2316410  46.5321860  68.6234580  36.3407530  45.5916600  68.4829970
  35.5796970  46.7976610  67.9748310  44.2229000  44.8037750  70.0232700
  43.9025870  44.0846990  70.5678390  43.5487360  45.4792820  70.0968760
  42.2643170  45.6498200  54.9665850  42.2553270  46.3827890  54.3510360
  41.3441530  45.4029780  55.0592810  37.8649810  40.8713090  55.7112610
  37.2577760  41.6111990  55.7207910  38.3399160  40.9612450  54.8850810
  47.4382600  35.0363910  65.3869500  47.8063420  34.2159120  65.7149070
  46.5780800  35.0965800  65.8025150  50.8044630  33.9920850  56.1957060
  50.1757790  34.0966520  55.4815290  50.3096550  34.2117630  56.9850940
  45.2502770  45.7126440  53.6291040  45.3514750  45.5090430  52.6993020
  44.3504510  45.4584720  53.8338820  42.7728660  36.2706800  57.6114940
  42.0644810  36.7393140  58.0528550  43.0573140  35.6128810  58.2460130
  44.3984590  37.6903500  65.6107470  44.8969840  38.1649320  66.2759320
  44.5407540  36.7667020  65.8177500  46.8044090  32.9957460  59.0510730
  46.6811870  33.0143590  58.1020240  47.7528650  33.0436400  59.1709130
  43.8920880  48.2312760  58.3238710  44.1462380  48.1934150  57.4018080
  42.9433360  48.1046090  58.3166960  40.9763680  34.5791880  54.9865650
  41.8254210  35.0162030  54.9205840  40.6094950  34.8912140  55.8137710
  51.6051450  33.9071460  66.4535860  51.1025050  34.6476860  66.7929670
  52.4208110  34.2955460  66.1372650  49.8973460  39.1504640  59.8997220
  48.9563600  39.1654870  60.0744910  50.2117530  38.3640600  60.3457520
  39.8755100  40.8324240  53.4601180  40.6418370  40.7205600  54.0226610
  39.9529790  40.1362210  52.8077950  38.5701860  38.2649310  54.1434070
  38.6505450  37.3176820  54.2551470  39.4621610  38.5956190  54.2494730
  51.8999040  46.3213490  61.5751480  52.0246460  47.1444660  62.0475290
  52.7664600  46.1104220  61.2275630  39.3716570  48.4144700  61.2468610
  40.1079050  47.8660160  61.5177180  39.7557490  49.2800710  61.1074600
  36.2562050  44.4818270  57.1210120  35.3301830  44.7239410  57.1115530
  36.7218480  45.3092530  56.9994870  38.3774850  47.5990770  70.4354190
  39.1787580  47.9202820  70.8489590  37.8626670  47.2386350  71.1574100
  42.4818880  47.5875010  53.0694180  43.2747490  47.8763840  52.6175970
  41.9623230  47.1567180  52.3906660  47.2139480  43.7070640  70.3829600
  46.6077640  43.7302240  69.6425350  46.9093590  42.9753680  70.9196850
  51.5349050  46.8145140  54.4930920  51.2490560  46.4010280  53.6785100
  51.3368600  47.7432850  54.3731440  36.0972660  40.0864230  69.3790240
  36.6011680  39.5071510  69.9506470  35.3580080  40.3704460  69.9166610
  42.9996280  42.8078420  52.9336530  42.8946920  42.1930770  53.6597910
  42.8320500  42.2844310  52.1499540  43.1510600  41.4935220  68.9125760
  42.3856270  42.0620220  68.8280430  43.3326560  41.2011430  68.0193990
  46.2399010  41.8698450  53.5378520  45.6909110  42.3167750  54.1821260
  46.8618270  41.3647700  54.0616190  38.1295740  38.2293820  70.2740310
  38.1701080  37.9307690  71.1825540  38.9841240  38.6301430  70.1147830
  41.9074130  40.8289370  55.4343820  42.3290550  40.6629240  56.2775210
  42.0324970  40.0189600  54.9398960  40.0701550  36.8085920  68.2414800
  39.5398010  36.3176870  67.6138140  40.7389620  37.2370120  67.7072730
  44.4201770  39.8526980  52.6820920  44.9407430  39.1376000  52.3162070
  45.0670170  40.4912850  52.9821430  48.9679610  41.2755380  68.0055990
  49.3820630  41.4300460  68.8546410  48.0330610  41.4010600  68.1681770
  49.4401780  38.6151540  70.0095140  50.0222550  37.8603860  69.9215620
  49.6163550  39.1458980  69.2326620  40.5573850  33.7748290  68.3212090
  40.4630720  33.1569040  67.5962960  39.9771240  34.5014580  68.0942000
  43.3235290  32.3321530  65.3539480  42.8752590  32.3545790  64.5085030
  42.6900490  31.9340550  65.9509780  43.7294840  41.2275860  65.9751920
  44.1482950  42.0708590  65.8028160  42.8103470  41.3647900  65.7458700
  46.0658740  38.9592040  67.3589760  46.1854950  38.3633180  68.0984600
  46.9252740  38.9961730  66.9391060  48.4046640  39.5129230  65.9352270
  47.8781860  40.0371850  65.3317410  48.7477980  40.1456620  66.5662000
  40.8033030  36.9022600  52.3801980  40.6022090  36.0389960  52.7415320
  40.6325080  36.8155960  51.4423580  41.5802260  47.5328870  67.0909650
  41.0423350  48.2574930  66.7718350  41.8336220  47.0559210  66.3006990
  42.8327510  35.5013390  68.6165580  43.4227200  35.1929240  69.3043400
  42.0147750  35.0293140  68.7725480  47.6520940  35.1179200  68.8498600
  46.9636460  34.4560740  68.7848590  48.3726960  34.6717470  69.2947060
  48.2821340  31.7130830  54.9088860  48.5623630  30.8698730  55.2648280
  47.5087070  31.9453940  55.4227610  39.6015830  34.0023220  52.3679860
  39.9041730  34.0090650  51.4599010  40.3410420  33.6521080  52.8647520
  44.4364470  48.7680080  67.3496300  44.3623170  49.6715220  67.6568670
  43.5343310  48.4491980  67.3218370  42.8200760  32.9457840  53.3536060
  42.4722760  32.2681830  52.7738510  43.0213530  32.4847350  54.1679450
  44.9849800  47.9338590  54.9722660  45.8800590  48.2723560  54.9941420
  45.0167430  47.2118000  54.3446940  38.6245960  43.3065640  53.2009660
  39.0620830  43.8495310  53.8567240  39.1093690  42.4812590  53.2106000
  35.8391760  46.0954670  60.6529920  36.1694770  45.2275730  60.4208560
  36.2682760  46.3013190  61.4834880  40.4353680  44.4263680  58.3131890
  40.1349220  44.3028650  59.2135800  40.3291170  43.5672270  57.9047620
  36.3281970  46.9625260  63.3911550  35.8912960  47.1426060  64.2235700
  36.8959650  47.7199880  63.2493270  52.6602060  40.9507560  55.5192770
  53.4220970  41.5204210  55.6252460  52.6756430  40.3834760  56.2901080
  36.1606400  39.4745490  59.7500430  35.5055240  39.2057130  59.1060130
  36.9984350  39.3649970  59.3002410  53.6662030  41.8057660  60.3634700
  54.0370860  41.0224980  59.9570670  54.3063960  42.4946760  60.1852000
  50.6495790  43.1894240  65.7765020  49.8355630  43.6191400  66.0390810
  51.0569990  43.8012650  65.1634070  49.1096840  34.2686780  53.9718920
  49.5281720  34.0817760  53.1315580  48.8032900  33.4165830  54.2821850
  52.6086570  39.1810920  57.6694720  52.2330170  38.4138850  57.2376010
  51.8789690  39.5633620  58.1569650  37.1982330  39.8598060  64.2903770
  37.5655370  39.7725460  65.1699790  36.6293150  39.0964610  64.1910630
  51.9986190  38.3282440  67.3034240  51.7672280  38.0995190  66.4032190
  52.2590740  39.2481990  67.2579130  36.7498330  36.7707150  68.1962190
  35.8554380  36.7373910  68.5355900  37.2895880  36.9693940  68.9613440
  50.4374260  33.5538870  70.0813940  51.3144440  33.5622270  70.4647940
  50.4495100  32.8169710  69.4706290  35.3744480  36.6844420  55.6925760
  34.4708560  36.9474620  55.5177420  35.8585100  36.9555590  54.9125720
  51.8837530  37.4068410  60.9701960  52.4075010  36.9131060  60.3392130
  52.4696950  37.5418770  61.7149530  52.0627250  37.4908280  64.4921510
  51.1129960  37.4571820  64.6066500  52.2440260  38.4008390  64.2571280
  37.9171690  35.7409960  53.6020140  38.6263390  35.3193180  53.1167420
  37.2011630  35.8085190  52.9703490  37.5645850  31.7949290  52.6422790
  38.2873980  32.3358230  52.9604010  37.8370370  31.5212710  51.7664330
  51.3737500  36.6641760  56.9094370  51.8696620  36.4312630  57.6943250
  51.1753570  35.8253600  56.4932010  37.2538040  31.0455480  62.5445410
  37.9014230  30.4952860  62.1040570  37.6739880  31.2998630  63.3661220
  52.8024660  35.3002710  59.4432050  52.6923940  35.1458750  60.3814320
  53.5632250  34.7723650  59.2007460  51.1490380  31.2396840  65.9015050
  51.7862600  31.8530980  66.2674240  51.2965270  31.2757500  64.9564280
  37.0070040  31.2011150  65.2870730  36.6584860  31.6574970  66.0528910
  36.6757740  30.3068280  65.3693160  38.6134410  44.3730750  69.4523920
  38.5704040  44.0023660  70.3338380  38.7445420  45.3108320  69.5925740
  42.3140440  45.9290340  65.0533640  42.0731800  46.1964900  64.1664160
  43.2543080  46.0996070  65.1084500  44.5194860  32.3923030  68.8090150
  44.4583750  32.9844860  69.5585560  45.4595240  32.2848990  68.6640410
  47.1569420  32.0493090  68.4482440  47.7709830  32.3672380  67.7863520
  47.7018980  31.5641680  69.0678300  37.6790680  30.7287350  68.5621500
  38.2273670  30.5475400  67.7987610  37.7445990  29.9381460  69.0977810
  38.4522440  47.3193000  66.5721700  37.8582760  47.1877700  67.3111740
  38.4446280  46.4831140  66.1063800  47.8977460  30.6125230  64.7751730
  47.0237300  30.9460340  64.5724660  47.7888210  30.1398410  65.6003600
  48.8049440  32.8196100  66.1593450  48.4762800  32.0047860  65.7795180
  49.7531740  32.7765910  66.0359140  38.0834670  44.6851380  65.5229740
  37.3568730  44.0656670  65.4555690  38.1443820  45.0791990  64.6527820
  41.6879770  46.8996380  62.3079150  42.2044790  46.2883740  61.7827410
  42.3377150  47.4025160  62.7990160  44.4275270  47.7904870  63.1348130
  44.7153080  47.5359170  62.2581140  44.9398490  47.2382230  63.7253700
  45.6452280  31.5295070  63.7144640  44.8624070  32.0040570  63.9941400
  45.3515210  30.6249900  63.6057820  50.1973350  32.2318170  61.7593730
  50.6381440  32.1763270  60.9115330  49.9280940  33.1476180  61.8303910
  52.0611920  31.8633410  59.7702550  52.0000320  30.9194630  59.6233570
  52.8403950  31.9713500  60.3156010  36.3664670  48.0025770  58.7326500
  36.1986710  47.3696450  59.4308390  35.4999180  48.2085170  58.3820690
  36.9892690  31.8342550  56.2358360  37.7472050  31.9471430  55.6622390
  36.5269860  32.6711750  56.1901790  43.5306500  33.9481820  59.2260670
  42.7181010  33.5738710  58.8856550  44.0348140  33.1926900  59.5281860
  48.0331480  30.6124270  60.4643740  48.6360850  31.1844480  60.9392260
  47.2924470  31.1763710  60.2417640  51.1766080  31.0145830  55.7384020
  51.3716710  31.9129280  56.0051450  50.3895950  30.7832910  56.2316970
  37.9727370  46.6959000  56.1776640  37.4474990  47.0767030  55.4738600
  37.8971950  47.3209770  56.8986350  39.3617840  32.3606600  54.7760330
  39.8910600  31.5736400  54.6468280  39.9946160  33.0397790  55.0095860
  41.5555680  32.0981740  57.8305720  40.9258420  31.3969050  57.9975850
  41.0160820  32.8585870  57.6138880  44.4947630  48.7120970  70.5016330
  45.4214940  48.4765240  70.5452290  44.4798060  49.5392970  70.0202360
  41.6811240  31.3765720  70.2658210  41.3995510  31.8799320  69.5019030
  42.0630940  30.5787470  69.9000340  40.5720340  48.6441380  55.0525890
  41.3039160  48.3600660  54.5049780  40.8314010  48.4054660  55.9425270
  39.7335130  44.7606110  55.0572220  39.1044010  45.2291210  55.6058050
  39.8482960  43.9155330  55.4918410  48.2826700  30.7919300  70.8438680
  48.1692150  31.1113910  71.7390200  49.0996440  31.1931810  70.5475960
  47.1884850  38.8111770  41.2073420  47.1078900  37.8966380  40.9365130
  46.7749270  39.3078840  40.5013130  45.3202890  40.5890790  43.0882690
  44.5444990  40.1091230  43.3781260  45.9715820  39.9096440  42.9138850
  39.3368720  40.9010600  43.9658450  38.5053600  40.6459310  44.3654960
  39.9449700  40.9721370  44.7016370  49.3410320  44.9950980  41.8681820
  48.8791850  44.2238220  42.1968990  50.1535870  45.0217050  42.3734270
  39.3169980  44.9350690  44.1616470  39.6198020  44.0448430  43.9826690
  40.0613570  45.4920910  43.9338720  37.7460670  35.8612490  37.7500840
  36.8577370  36.2028460  37.6480720  38.0301860  35.6612810  36.8581670
  35.7093680  38.4618140  43.6340540  36.2809790  37.6940340  43.6344180
  35.7095220  38.7606900  42.7247150  45.5673630  47.2808990  41.4885810
  44.9485070  47.7366490  40.9180250  46.4225410  47.4360450  41.0875510
  44.7611880  43.2647980  43.0952850  44.6920160  42.3237920  42.9341980
  45.5231740  43.3549390  43.6675420  36.9518550  33.8702500  45.4209470
  36.7721390  32.9728250  45.7012230  36.5498630  34.4174370  46.0956420
  45.7917050  36.0718360  43.3221780  46.1681870  35.1990240  43.2095450
  45.6936560  36.4077060  42.4312220  39.9222060  34.4443990  38.7839220
  40.0288810  35.3447720  39.0907980  39.0114420  34.3961960  38.4933870
  49.5741170  33.5668800  40.2550120  50.3950790  33.0765370  40.2975600
  49.6075250  34.1566460  41.0081960  37.5705220  36.3663000  44.0291810
  38.2515330  36.6301370  44.6479210  37.2553270  35.5263870  44.3629820
  41.7629790  37.4130360  43.1164400  42.2708010  37.9111330  43.7569420
  42.2943030  36.6365560  42.9403760  53.8640720  35.5835550  46.8193750
  53.1592890  35.9717260  46.3008860  54.1298640  36.2785840  47.4214680
  40.0465890  32.0528920  47.3827820  40.0484330  32.5701310  46.5773720
  39.2170200  31.5759100  47.3597750  46.4336980  42.1648230  38.8817720
  45.8154250  42.6297680  38.3180440  46.9460230  42.8575710  39.2987230
  41.2968740  41.6924100  45.5601320  40.9638120  42.3193020  46.2022390
  41.4735420  42.2185980  44.7802990  49.8102650  35.5069180  43.0277660
  49.1058220  35.7954070  43.6080770  50.1714810  36.3169290  42.6677220
  39.7281220  33.7638880  45.3898270  40.0698030  34.6080930  45.0952140
  38.7897030  33.9122620  45.5063610  40.5087840  43.6604900  47.3750500
  41.1261840  44.3355980  47.0934950  39.6480960  44.0692880  47.2838000
  35.8020180  42.8504760  36.2557350  35.4248160  43.3391860  35.5242250
  36.0593250  43.5230040  36.8863880  51.4265430  45.1244310  45.2905140
  50.7428950  45.7943420  45.2821810  51.9659720  45.3224960  44.5250000
  52.8789570  34.9523970  43.4186870  51.9314480  34.9862950  43.5502300
  53.2039560  35.7662920  43.8036230  43.4109110  31.2521150  41.7142860
  43.7184090  30.6968040  40.9978360  42.4809810  31.3865610  41.5315850
  48.9624170  46.9688440  44.0050320  48.9751330  46.5650730  43.1372580
  48.4099390  47.7435730  43.9011750  50.2569590  43.6904660  39.0940490
  50.1465920  42.7478990  39.2189910  50.2537840  44.0520300  39.9803250
  48.3609610  41.8718280  45.3332930  48.7778400  41.6578390  44.4986390
  49.0849430  42.1291070  45.9041550  45.7989870  39.3169980  38.4502980
  44.8719150  39.2507360  38.6791450  45.9514690  40.2550110  38.3358220
  45.7858950  35.5886980  35.4470140  44.8462620  35.7500940  35.5322600
  46.1042210  36.3072660  34.9006130  52.3071710  40.2705500  45.4249170
  51.4790340  40.3398590  44.9499300  52.9022190  40.8559810  44.9565000
  49.8287160  40.8790280  38.9538230  49.2099580  40.5409830  38.3064530
  49.8111610  40.2350040  39.6617420  49.2713720  37.0574820  46.3704040
  48.8584900  37.8828530  46.6244030  48.5389670  36.4719860  46.1780400
  41.4046510  39.8434720  41.2322710  41.0003510  39.1311970  40.7368610
  41.4909630  39.4987960  42.1210750  41.8728210  43.5302280  43.3961920
  41.5756500  42.9247750  42.7169700  42.8228030  43.5679590  43.2851280
  40.1175130  36.6177930  45.0121750  40.6689720  36.7273270  44.2375000
  40.6318640  36.9915530  45.7276980  49.9613820  47.1034150  47.0585020
  49.4844380  47.9106340  46.8657630  49.2775610  46.4512480  47.2111230
  40.9646640  43.2683970  50.0469720  40.0675170  43.4923940  50.2943120
  40.9899510  43.3918910  49.0981120  48.0051860  40.1177090  35.9610980
  48.4445140  39.2799520  35.8148800  48.7180280  40.7506490  36.0475120
  39.7917860  40.1397290  48.6227090  39.6525630  41.0120090  48.9914490
  38.9099220  39.7970100  48.4775030  46.1147240  45.0573160  39.9292220
  46.5543150  45.7997490  39.5147610  46.0534130  45.2999730  40.8531180
  41.5898210  46.0818990  50.8312240  41.5613640  46.4861940  49.9640670
  41.4263180  45.1529350  50.6683840  51.5869000  31.3719900  34.2752020
  51.2741660  31.4646730  35.1751090  52.3481470  31.9500930  34.2249450
  38.1051140  38.7379700  38.7329360  37.9848740  39.4641790  38.1210630
  37.7952030  37.9682610  38.2557270  35.7436510  41.9094840  44.5398000
  35.8216930  42.0443610  43.5953720  36.3578190  41.2010730  44.7326120
  36.9884140  43.6095030  40.9504180  36.5812220  43.7509620  40.0957780
  37.8797150  43.3255190  40.7475390  46.8063020  47.7586940  47.8571230
  47.3207690  47.6694950  48.6593660  45.9632100  48.1046640  48.1499140
  48.7817420  48.0442280  37.2855230  48.6218560  47.7545220  38.1837060
  48.6164130  47.2682410  36.7500460  41.2605800  47.8240810  39.0626850
  41.0848280  46.9076350  38.8494650  40.4061540  48.1828100  39.3024650
  48.4843550  45.5529840  35.8453230  47.7908710  45.5507130  35.1855510
  49.2266410  45.1289160  35.4147400  48.0493480  47.1792550  39.9201720
  48.5050430  46.3981930  40.2340340  48.3886000  47.8899370  40.4642900
  35.7996030  42.9509010  47.0792460  35.9627070  42.4814370  46.2611830
  36.2648480  42.4432570  47.7441300  40.5714800  32.0814770  42.1153030
  40.1282950  32.8624310  41.7837550  41.1299790  32.4044660  42.8223970
  44.8584610  34.9483290  47.7188350  44.3963980  35.1566310  48.5308290
  44.4562720  34.1342640  47.4159020  49.8589120  36.1692240  48.8485010
  49.0082710  35.8697990  49.1694080  49.6990910  36.4134250  47.9368830
  46.9538830  37.6693990  50.9483800  47.2792240  36.8357740  50.6086030
  47.7419160  38.1922510  51.0962130  43.6873620  31.7025470  36.9958860
  43.0627800  31.6985340  37.7212170  43.6003740  30.8356430  36.5994830
  42.6090700  32.6262100  43.9742630  42.9063030  33.5324930  43.8934650
  43.1576260  32.1380880  43.3602200  40.3629020  37.2048340  39.8434280
  40.1369940  36.9885510  40.7480900  39.5821550  37.6376800  39.4980250
  47.5926780  37.2111710  38.4424930  46.9935670  37.9347510  38.2588550
  48.1406390  37.1488490  37.6601380  42.8028230  38.1033920  50.5094550
  42.7071830  37.1628650  50.3594950  43.6460210  38.3248990  50.1142620
  46.1991650  35.8475250  40.4728210  46.5921220  36.1647450  39.6596900
  46.5608500  34.9687130  40.5872730  37.9338770  34.5147590  48.6628330
  37.5402160  35.3622800  48.8701110  37.2457170  33.8773960  48.8536970
  44.5083820  34.5982560  51.7325070  43.8182140  34.4054760  52.3671160
  45.2516120  34.8817200  52.2649370  35.2355820  32.4376050  42.6958410
  34.9468870  33.0078910  43.4083390  35.9801580  31.9580500  43.0589640
  35.4226050  36.3796170  33.9061130  35.3400720  37.3226930  34.0476120
  35.0709110  36.2371080  33.0273480  46.7846790  38.4381000  44.5678990
  46.0527910  38.9467810  44.9169090  46.3871130  37.6210980  44.2667770
  43.2224180  35.1135200  42.9731480  43.2260240  34.6725150  42.1236020
  44.1175300  35.4352530  43.0803300  39.0726560  34.9961690  41.9325690
  38.7326610  35.4736920  42.6892740  38.3103880  34.5426810  41.5726790
  43.2844330  36.1147280  35.9638240  43.4057150  36.0733760  36.9124060
  42.8992840  36.9771430  35.8084970  47.2472700  33.8914680  43.9801930
  47.2645440  34.3423330  44.8243780  46.9988280  32.9920320  44.1935370
  42.2965830  38.4248420  35.3621540  41.7282730  37.9766670  34.7357450
  43.0054830  38.7841200  34.8286690  50.6743450  31.3046860  49.8188310
  50.9989220  30.5736520  50.3446290  50.7099960  30.9860500  48.9169300
  37.3735010  42.3260440  49.2388270  36.9889800  41.6854110  49.8371230
  37.6847200  43.0296560  49.8083000  43.5232150  39.1736980  44.7196890
  43.8902280  38.6995550  45.4658230  43.3337210  40.0478550  45.0605230
  36.3872640  33.9180670  40.8490360  36.1019560  33.5536340  41.6868980
  36.3251500  33.1861130  40.2353500  41.3131520  38.2145620  47.0381100
  41.0088590  39.0937600  47.2631460  42.2677980  38.2745410  47.0738540
  39.8413310  42.4206610  37.6347950  39.0675570  41.8804230  37.4746670
  40.5707940  41.9013220  37.2965710  50.6001290  41.4171970  43.4274340
  51.3200410  41.9127260  43.0370450  50.3983110  40.7389860  42.7828210
  46.0611230  32.8109930  37.5703730  45.2475840  32.3123100  37.4949040
  45.8673180  33.6508180  37.1540080  45.9820090  41.4881030  49.3143340
  45.9157400  40.5676700  49.0600930  45.3525230  41.5856470  50.0287980
  48.7759620  37.1829580  35.8665890  49.6639240  37.4946810  35.6917230
  48.7464710  36.3101830  35.4746470  39.8850710  42.0886990  41.2726760
  40.4029380  41.2855250  41.2183650  39.4334730  42.0266130  42.1143590
  44.7720210  43.3553270  36.5454060  45.1135910  44.0995500  36.0497380
  43.9432920  43.6684390  36.9078890  37.3695250  39.0548360  48.1852460
  37.0110190  39.7202210  48.7725800  37.0749810  38.2231910  48.5565080
  40.5708370  39.5132600  51.0692010  40.2708510  39.6589780  50.1719830
  41.3419610  38.9537890  50.9765400  45.9136820  44.3101600  49.0647140
  45.9281360  43.3782560  48.8466050  45.2061920  44.3961360  49.7036910
  51.0473890  38.4941420  35.3345750  50.9637610  38.9255640  34.4842190
  51.7668080  38.9539770  35.7672570  52.0761140  45.3483680  38.0627880
  51.4337300  44.6939300  38.3371600  51.6891800  45.7538770  37.2868550
  47.6547620  42.6769110  41.9099570  48.0071440  42.0797240  41.2500940
  46.7709950  42.3513340  42.0807820  43.7410900  43.4366800  39.3169980
  44.4282030  43.9836010  39.6977570  42.9543320  43.9807530  39.3519590
  35.8803300  39.0539620  34.8087060  36.7498150  39.3364420  35.0922980
  35.3893620  39.8675490  34.6935870  43.0438110  40.4412830  38.9295340
  43.5000890  41.2518080  39.1555530  42.6926320  40.1235970  39.7613830
  45.3470720  45.9519170  46.1587640  45.9912940  46.1578550  46.8361060
  45.7100160  45.1907570  45.7058490  38.9449890  30.7850480  39.4017860
  38.8164520  30.7768380  40.3502780  38.1211910  31.1233570  39.0508870
  46.6202800  43.9551520  44.8765090  47.2625030  43.2544680  44.9897260
  47.1452150  44.7349960  44.6961980  50.4658520  44.2400140  34.6004230
  50.2396100  43.5230580  35.1928870  50.0754720  43.9912580  33.7625980
  36.2474550  48.2667000  35.3748690  36.6072190  48.8656340  34.7205960
  36.1066890  48.8126890  36.1483720  35.9443820  32.5441600  48.8624560
  35.2302340  32.7438520  49.4677170  36.3638860  31.7681170  49.2339360
  50.0474770  42.1572080  36.2618390  49.7596470  42.6184770  37.0496270
  50.8426940  41.6969850  36.5302610  36.2316410  46.5321860  49.8491090
  36.3407530  45.5916600  49.7086480  35.5796970  46.7976610  49.2004820
  44.2229000  44.8037750  51.2489210  43.9025870  44.0846990  51.7934900
  43.5487360  45.4792820  51.3225270  42.2643170  45.6498200  36.1922360
  42.2553270  46.3827890  35.5766870  41.3441530  45.4029780  36.2849320
  37.8649810  40.8713090  36.9369120  37.2577760  41.6111990  36.9464420
  38.3399160  40.9612450  36.1107320  47.4382600  35.0363910  46.6126010
  47.8063420  34.2159120  46.9405580  46.5780800  35.0965800  47.0281660
  50.8044630  33.9920850  37.4213570  50.1757790  34.0966520  36.7071800
  50.3096550  34.2117630  38.2107450  45.2502770  45.7126440  34.8547550
  45.3514750  45.5090430  33.9249530  44.3504510  45.4584720  35.0595330
  42.7728660  36.2706800  38.8371450  42.0644810  36.7393140  39.2785060
  43.0573140  35.6128810  39.4716640  44.3984590  37.6903500  46.8363980
  44.8969840  38.1649320  47.5015830  44.5407540  36.7667020  47.0434010
  46.8044090  32.9957460  40.2767240  46.6811870  33.0143590  39.3276750
  47.7528650  33.0436400  40.3965640  43.8920880  48.2312760  39.5495220
  44.1462380  48.1934150  38.6274590  42.9433360  48.1046090  39.5423470
  40.9763680  34.5791880  36.2122160  41.8254210  35.0162030  36.1462350
  40.6094950  34.8912140  37.0394220  51.6051450  33.9071460  47.6792370
  51.1025050  34.6476860  48.0186180  52.4208110  34.2955460  47.3629160
  49.8973460  39.1504640  41.1253730  48.9563600  39.1654870  41.3001420
  50.2117530  38.3640600  41.5714030  39.8755100  40.8324240  34.6857690
  40.6418370  40.7205600  35.2483120  39.9529790  40.1362210  34.0334460
  38.5701860  38.2649310  35.3690580  38.6505450  37.3176820  35.4807980
  39.4621610  38.5956190  35.4751240  51.8999040  46.3213490  42.8007990
  52.0246460  47.1444660  43.2731800  52.7664600  46.1104220  42.4532140
  39.3716570  48.4144700  42.4725120  40.1079050  47.8660160  42.7433690
  39.7557490  49.2800710  42.3331110  36.2562050  44.4818270  38.3466630
  35.3301830  44.7239410  38.3372040  36.7218480  45.3092530  38.2251380
  38.3774850  47.5990770  51.6610700  39.1787580  47.9202820  52.0746100
  37.8626670  47.2386350  52.3830610  42.4818880  47.5875010  34.2950690
  43.2747490  47.8763840  33.8432480  41.9623230  47.1567180  33.6163170
  51.5349050  46.8145140  35.7187430  51.2490560  46.4010280  34.9041610
  51.3368600  47.7432850  35.5987950  36.0972660  40.0864230  50.6046750
  36.6011680  39.5071510  51.1762980  35.3580080  40.3704460  51.1423120
  42.9996280  42.8078420  34.1593040  42.8946920  42.1930770  34.8854420
  42.8320500  42.2844310  33.3756050  43.1510600  41.4935220  50.1382270
  42.3856270  42.0620220  50.0536940  43.3326560  41.2011430  49.2450500
  46.2399010  41.8698450  34.7635030  45.6909110  42.3167750  35.4077770
  46.8618270  41.3647700  35.2872700  38.1295740  38.2293820  51.4996820
  38.1701080  37.9307690  52.4082050  38.9841240  38.6301430  51.3404340
  41.9074130  40.8289370  36.6600330  42.3290550  40.6629240  37.5031720
  42.0324970  40.0189600  36.1655470  40.0701550  36.8085920  49.4671310
  39.5398010  36.3176870  48.8394650  40.7389620  37.2370120  48.9329240
  44.4201770  39.8526980  33.9077430  44.9407430  39.1376000  33.5418580
  45.0670170  40.4912850  34.2077940  49.4401780  38.6151540  51.2351650
  50.0222550  37.8603860  51.1472130  49.6163550  39.1458980  50.4583130
  40.5573850  33.7748290  49.5468600  40.4630720  33.1569040  48.8219470
  39.9771240  34.5014580  49.3198510  43.3235290  32.3321530  46.5795990
  42.8752590  32.3545790  45.7341540  42.6900490  31.9340550  47.1766290
  43.7294840  41.2275860  47.2008430  44.1482950  42.0708590  47.0284670
  42.8103470  41.3647900  46.9715210  46.0658740  38.9592040  48.5846270
  46.1854950  38.3633180  49.3241110  46.9252740  38.9961730  48.1647570
  48.4046640  39.5129230  47.1608780  47.8781860  40.0371850  46.5573920
  48.7477980  40.1456620  47.7918510  40.8033030  36.9022600  33.6058490
  40.6022090  36.0389960  33.9671830  40.6325080  36.8155960  32.6680090
  41.5802260  47.5328870  48.3166160  41.0423350  48.2574930  47.9974860
  41.8336220  47.0559210  47.5263500  42.8327510  35.5013390  49.8422090
  43.4227200  35.1929240  50.5299910  42.0147750  35.0293140  49.9981990
  47.6520940  35.1179200  50.0755110  46.9636460  34.4560740  50.0105100
  48.3726960  34.6717470  50.5203570  48.2821340  31.7130830  36.1345370
  48.5623630  30.8698730  36.4904790  47.5087070  31.9453940  36.6484120
  39.6015830  34.0023220  33.5936370  39.9041730  34.0090650  32.6855520
  40.3410420  33.6521080  34.0904030  44.4364470  48.7680080  48.5752810
  44.3623170  49.6715220  48.8825180  43.5343310  48.4491980  48.5474880
  42.8200760  32.9457840  34.5792570  42.4722760  32.2681830  33.9995020
  43.0213530  32.4847350  35.3935960  44.9849800  47.9338590  36.1979170
  45.8800590  48.2723560  36.2197930  45.0167430  47.2118000  35.5703450
  38.6245960  43.3065640  34.4266170  39.0620830  43.8495310  35.0823750
  39.1093690  42.4812590  34.4362510  35.8391760  46.0954670  41.8786430
  36.1694770  45.2275730  41.6465070  36.2682760  46.3013190  42.7091390
  40.4353680  44.4263680  39.5388400  40.1349220  44.3028650  40.4392310
  40.3291170  43.5672270  39.1304130  36.3281970  46.9625260  44.6168060
  35.8912960  47.1426060  45.4492210  36.8959650  47.7199880  44.4749780
  53.2045600  44.2060080  34.2415080  52.3738560  44.2736730  34.7122310
  53.3817430  45.0964200  33.9381940  52.6602060  40.9507560  36.7449280
  53.4220970  41.5204210  36.8508970  52.6756430  40.3834760  37.5157590
  36.1606400  39.4745490  40.9756940  35.5055240  39.2057130  40.3316640
  36.9984350  39.3649970  40.5258920  53.6662030  41.8057660  41.5891210
  54.0370860  41.0224980  41.1827180  54.3063960  42.4946760  41.4108510
  52.7121230  41.2441930  33.9021800  52.9870070  42.1520810  33.7741020
  52.5231970  41.1804460  34.8383790  49.1096840  34.2686780  35.1975430
  49.5281720  34.0817760  34.3572090  48.8032900  33.4165830  35.5078360
  52.6086570  39.1810920  38.8951230  52.2330170  38.4138850  38.4632520
  51.8789690  39.5633620  39.3826160  37.1982330  39.8598060  45.5160280
  37.5655370  39.7725460  46.3956300  36.6293150  39.0964610  45.4167140
  51.9986190  38.3282440  48.5290750  51.7672280  38.0995190  47.6288700
  52.2590740  39.2481990  48.4835640  36.7498330  36.7707150  49.4218700
  35.8554380  36.7373910  49.7612410  37.2895880  36.9693940  50.1869950
  35.3744480  36.6844420  36.9182270  34.4708560  36.9474620  36.7433930
  35.8585100  36.9555590  36.1382230  51.8837530  37.4068410  42.1958470
  52.4075010  36.9131060  41.5648640  52.4696950  37.5418770  42.9406040
  52.0627250  37.4908280  45.7178020  51.1129960  37.4571820  45.8323010
  52.2440260  38.4008390  45.4827790  37.9171690  35.7409960  34.8276650
  38.6263390  35.3193180  34.3423930  37.2011630  35.8085190  34.1960000
  37.5645850  31.7949290  33.8679300  38.2873980  32.3358230  34.1860520
  37.8370370  31.5212710  32.9920840  51.3737500  36.6641760  38.1350880
  51.8696620  36.4312630  38.9199760  51.1753570  35.8253600  37.7188520
  37.2538040  31.0455480  43.7701920  37.9014230  30.4952860  43.3297080
  37.6739880  31.2998630  44.5917730  52.8024660  35.3002710  40.6688560
  52.6923940  35.1458750  41.6070830  53.5632250  34.7723650  40.4263970
  51.1490380  31.2396840  47.1271560  51.7862600  31.8530980  47.4930750
  51.2965270  31.2757500  46.1820790  53.6914930  33.1310630  33.9094700
  54.6164240  32.9991810  33.7012990  53.6690720  33.2103450  34.8631150
  53.7653420  33.9021290  36.5351410  52.9704920  33.8366410  37.0644320
  53.9696700  34.8371930  36.5236760  50.7071840  47.9412840  40.5289800
  51.3030910  47.6197410  39.8524220  50.9649990  47.4684660  41.3203070
  37.0070040  31.2011150  46.5127240  36.6584860  31.6574970  47.2785420
  36.6757740  30.3068280  46.5949670  38.6134410  44.3730750  50.6780430
  38.5704040  44.0023660  51.5594890  38.7445420  45.3108320  50.8182250
  42.3140440  45.9290340  46.2790150  42.0731800  46.1964900  45.3920670
  43.2543080  46.0996070  46.3341010  44.5194860  32.3923030  50.0346660
  44.4583750  32.9844860  50.7842070  45.4595240  32.2848990  49.8896920
  47.1569420  32.0493090  49.6738950  47.7709830  32.3672380  49.0120030
  47.7018980  31.5641680  50.2934810  37.6790680  30.7287350  49.7878010
  38.2273670  30.5475400  49.0244120  37.7445990  29.9381460  50.3234320
  38.4522440  47.3193000  47.7978210  37.8582760  47.1877700  48.5368250
  38.4446280  46.4831140  47.3320310  47.8977460  30.6125230  46.0008240
  47.0237300  30.9460340  45.7981170  47.7888210  30.1398410  46.8260110
  48.8049440  32.8196100  47.3849960  48.4762800  32.0047860  47.0051690
  49.7531740  32.7765910  47.2615650  51.2584050  48.5908140  44.3587530
  50.7987020  49.3423950  43.9845550  50.6296510  47.8714610  44.3002330
  38.0834670  44.6851380  46.7486250  37.3568730  44.0656670  46.6812200
  38.1443820  45.0791990  45.8784330  41.6879770  46.8996380  43.5335660
  42.2044790  46.2883740  43.0083920  42.3377150  47.4025160  44.0246670
  44.4275270  47.7904870  44.3604640  44.7153080  47.5359170  43.4837650
  44.9398490  47.2382230  44.9510210  45.6452280  31.5295070  44.9401150
  44.8624070  32.0040570  45.2197910  45.3515210  30.6249900  44.8314330
  50.1973350  32.2318170  42.9850240  50.6381440  32.1763270  42.1371840
  49.9280940  33.1476180  43.0560420  52.0611920  31.8633410  40.9959060
  52.0000320  30.9194630  40.8490080  52.8403950  31.9713500  41.5412520
  36.3664670  48.0025770  39.9583010  36.1986710  47.3696450  40.6564900
  35.4999180  48.2085170  39.6077200  36.9892690  31.8342550  37.4614870
  37.7472050  31.9471430  36.8878900  36.5269860  32.6711750  37.4158300
  43.5306500  33.9481820  40.4517180  42.7181010  33.5738710  40.1113060
  44.0348140  33.1926900  40.7538370  48.0331480  30.6124270  41.6900250
  48.6360850  31.1844480  42.1648770  47.2924470  31.1763710  41.4674150
  51.1766080  31.0145830  36.9640530  51.3716710  31.9129280  37.2307960
  50.3895950  30.7832910  37.4573480  37.9727370  46.6959000  37.4033150
  37.4474990  47.0767030  36.6995110  37.8971950  47.3209770  38.1242860
  39.3617840  32.3606600  36.0016840  39.8910600  31.5736400  35.8724790
  39.9946160  33.0397790  36.2352370  41.5555680  32.0981740  39.0562230
  40.9258420  31.3969050  39.2232360  41.0160820  32.8585870  38.8395390
  44.4947630  48.7120970  51.7272840  45.4214940  48.4765240  51.7708800
  44.4798060  49.5392970  51.2458870  52.7292690  48.2546540  38.7247090
  52.9044880  47.5684280  38.0808010  52.0314260  48.7793590  38.3323760
  41.6811240  31.3765720  51.4914720  41.3995510  31.8799320  50.7275540
  42.0630940  30.5787470  51.1256850  40.5720340  48.6441380  36.2782400
  41.3039160  48.3600660  35.7306290  40.8314010  48.4054660  37.1681780
  39.7335130  44.7606110  36.2828730  39.1044010  45.2291210  36.8314560
  39.8482960  43.9155330  36.7174920  48.2826700  30.7919300  52.0695190
  48.1692150  31.1113910  52.9646710  49.0996440  31.1931810  51.7732470
  47.1884850  38.8111770  22.4329930  47.1078900  37.8966380  22.1621640
  46.7749270  39.3078840  21.7269640  45.3202890  40.5890790  24.3139200
  44.5444990  40.1091230  24.6037770  45.9715820  39.9096440  24.1395360
  39.3368720  40.9010600  25.1914960  38.5053600  40.6459310  25.5911470
  39.9449700  40.9721370  25.9272880  49.3410320  44.9950980  23.0938330
  48.8791850  44.2238220  23.4225500  50.1535870  45.0217050  23.5990780
  39.3169980  44.9350690  25.3872980  39.6198020  44.0448430  25.2083200
  40.0613570  45.4920910  25.1595230  37.7460670  35.8612490  18.9757350
  36.8577370  36.2028460  18.8737230  38.0301860  35.6612810  18.0838180
  35.7093680  38.4618140  24.8597050  36.2809790  37.6940340  24.8600690
  35.7095220  38.7606900  23.9503660  45.5673630  47.2808990  22.7142320
  44.9485070  47.7366490  22.1436760  46.4225410  47.4360450  22.3132020
  44.7611880  43.2647980  24.3209360  44.6920160  42.3237920  24.1598490
  45.5231740  43.3549390  24.8931930  36.9518550  33.8702500  26.6465980
  36.7721390  32.9728250  26.9268740  36.5498630  34.4174370  27.3212930
  45.7917050  36.0718360  24.5478290  46.1681870  35.1990240  24.4351960
  45.6936560  36.4077060  23.6568730  39.9222060  34.4443990  20.0095730
  40.0288810  35.3447720  20.3164490  39.0114420  34.3961960  19.7190380
  49.5741170  33.5668800  21.4806630  50.3950790  33.0765370  21.5232110
  49.6075250  34.1566460  22.2338470  37.5705220  36.3663000  25.2548320
  38.2515330  36.6301370  25.8735720  37.2553270  35.5263870  25.5886330
  41.7629790  37.4130360  24.3420910  42.2708010  37.9111330  24.9825930
  42.2943030  36.6365560  24.1660270  53.8640720  35.5835550  28.0450260
  53.1592890  35.9717260  27.5265370  54.1298640  36.2785840  28.6471190
  40.0465890  32.0528920  28.6084330  40.0484330  32.5701310  27.8030230
  39.2170200  31.5759100  28.5854260  46.4336980  42.1648230  20.1074230
  45.8154250  42.6297680  19.5436950  46.9460230  42.8575710  20.5243740
  41.2968740  41.6924100  26.7857830  40.9638120  42.3193020  27.4278900
  41.4735420  42.2185980  26.0059500  49.8102650  35.5069180  24.2534170
  49.1058220  35.7954070  24.8337280  50.1714810  36.3169290  23.8933730
  39.7281220  33.7638880  26.6154780  40.0698030  34.6080930  26.3208650
  38.7897030  33.9122620  26.7320120  40.5087840  43.6604900  28.6007010
  41.1261840  44.3355980  28.3191460  39.6480960  44.0692880  28.5094510
  35.8020180  42.8504760  17.4813860  35.4248160  43.3391860  16.7498760
  36.0593250  43.5230040  18.1120390  51.4265430  45.1244310  26.5161650
  50.7428950  45.7943420  26.5078320  51.9659720  45.3224960  25.7506510
  52.8789570  34.9523970  24.6443380  51.9314480  34.9862950  24.7758810
  53.2039560  35.7662920  25.0292740  43.4109110  31.2521150  22.9399370
  43.7184090  30.6968040  22.2234870  42.4809810  31.3865610  22.7572360
  48.9624170  46.9688440  25.2306830  48.9751330  46.5650730  24.3629090
  48.4099390  47.7435730  25.1268260  50.2569590  43.6904660  20.3197000
  50.1465920  42.7478990  20.4446420  50.2537840  44.0520300  21.2059760
  48.3609610  41.8718280  26.5589440  48.7778400  41.6578390  25.7242900
  49.0849430  42.1291070  27.1298060  45.7989870  39.3169980  19.6759490
  44.8719150  39.2507360  19.9047960  45.9514690  40.2550110  19.5614730
  45.7858950  35.5886980  16.6726650  44.8462620  35.7500940  16.7579110
  46.1042210  36.3072660  16.1262640  52.3071710  40.2705500  26.6505680
  51.4790340  40.3398590  26.1755810  52.9022190  40.8559810  26.1821510
  49.8287160  40.8790280  20.1794740  49.2099580  40.5409830  19.5321040
  49.8111610  40.2350040  20.8873930  49.2713720  37.0574820  27.5960550
  48.8584900  37.8828530  27.8500540  48.5389670  36.4719860  27.4036910
  41.4046510  39.8434720  22.4579220  41.0003510  39.1311970  21.9625120
  41.4909630  39.4987960  23.3467260  41.8728210  43.5302280  24.6218430
  41.5756500  42.9247750  23.9426210  42.8228030  43.5679590  24.5107790
  40.1175130  36.6177930  26.2378260  40.6689720  36.7273270  25.4631510
  40.6318640  36.9915530  26.9533490  49.9613820  47.1034150  28.2841530
  49.4844380  47.9106340  28.0914140  49.2775610  46.4512480  28.4367740
  40.9646640  43.2683970  31.2726230  40.0675170  43.4923940  31.5199630
  40.9899510  43.3918910  30.3237630  48.0051860  40.1177090  17.1867490
  48.4445140  39.2799520  17.0405310  48.7180280  40.7506490  17.2731630
  39.7917860  40.1397290  29.8483600  39.6525630  41.0120090  30.2171000
  38.9099220  39.7970100  29.7031540  46.1147240  45.0573160  21.1548730
  46.5543150  45.7997490  20.7404120  46.0534130  45.2999730  22.0787690
  41.5898210  46.0818990  32.0568750  41.5613640  46.4861940  31.1897180
  41.4263180  45.1529350  31.8940350  51.5869000  31.3719900  15.5008530
  51.2741660  31.4646730  16.4007600  52.3481470  31.9500930  15.4505960
  38.1051140  38.7379700  19.9585870  37.9848740  39.4641790  19.3467140
  37.7952030  37.9682610  19.4813780  53.5413030  46.8646090  33.3532920
  54.0172750  47.3428980  34.0322000  54.1620190  46.7963580  32.6278420
  35.7436510  41.9094840  25.7654510  35.8216930  42.0443610  24.8210230
  36.3578190  41.2010730  25.9582630  36.9884140  43.6095030  22.1760690
  36.5812220  43.7509620  21.3214290  37.8797150  43.3255190  21.9731900
  52.9446280  44.0558940  30.5132930  53.0709340  43.8170820  29.5950110
  52.9867660  43.2243480  30.9855010  46.8063020  47.7586940  29.0827740
  47.3207690  47.6694950  29.8850170  45.9632100  48.1046640  29.3755650
  48.7817420  48.0442280  18.5111740  48.6218560  47.7545220  19.4093570
  48.6164130  47.2682410  17.9756970  41.2605800  47.8240810  20.2883360
  41.0848280  46.9076350  20.0751160  40.4061540  48.1828100  20.5281160
  48.4843550  45.5529840  17.0709740  47.7908710  45.5507130  16.4112020
  49.2266410  45.1289160  16.6403910  48.0493480  47.1792550  21.1458230
  48.5050430  46.3981930  21.4596850  48.3886000  47.8899370  21.6899410
  52.7970290  36.1091400  31.4782670  52.1814560  36.6171070  30.9498130
  52.4766710  35.2089730  31.4208610  35.7996030  42.9509010  28.3048970
  35.9627070  42.4814370  27.4868340  36.2648480  42.4432570  28.9697810
  40.5714800  32.0814770  23.3409540  40.1282950  32.8624310  23.0094060
  41.1299790  32.4044660  24.0480480  44.8584610  34.9483290  28.9444860
  44.3963980  35.1566310  29.7564800  44.4562720  34.1342640  28.6415530
  49.8589120  36.1692240  30.0741520  49.0082710  35.8697990  30.3950590
  49.6990910  36.4134250  29.1625340  46.9538830  37.6693990  32.1740310
  47.2792240  36.8357740  31.8342540  47.7419160  38.1922510  32.3218640
  43.6873620  31.7025470  18.2215370  43.0627800  31.6985340  18.9468680
  43.6003740  30.8356430  17.8251340  42.6090700  32.6262100  25.1999140
  42.9063030  33.5324930  25.1191160  43.1576260  32.1380880  24.5858710
  40.3629020  37.2048340  21.0690790  40.1369940  36.9885510  21.9737410
  39.5821550  37.6376800  20.7236760  47.5926780  37.2111710  19.6681440
  46.9935670  37.9347510  19.4845060  48.1406390  37.1488490  18.8857890
  42.8028230  38.1033920  31.7351060  42.7071830  37.1628650  31.5851460
  43.6460210  38.3248990  31.3399130  46.1991650  35.8475250  21.6984720
  46.5921220  36.1647450  20.8853410  46.5608500  34.9687130  21.8129240
  37.9338770  34.5147590  29.8884840  37.5402160  35.3622800  30.0957620
  37.2457170  33.8773960  30.0793480  44.5083820  34.5982560  32.9581580
  43.8182140  34.4054760  33.5927670  45.2516120  34.8817200  33.4905880
  35.2355820  32.4376050  23.9214920  34.9468870  33.0078910  24.6339900
  35.9801580  31.9580500  24.2846150  35.4226050  36.3796170  15.1317640
  35.3400720  37.3226930  15.2732630  35.0709110  36.2371080  14.2529990
  46.7846790  38.4381000  25.7935500  46.0527910  38.9467810  26.1425600
  46.3871130  37.6210980  25.4924280  43.2224180  35.1135200  24.1987990
  43.2260240  34.6725150  23.3492530  44.1175300  35.4352530  24.3059810
  39.0726560  34.9961690  23.1582200  38.7326610  35.4736920  23.9149250
  38.3103880  34.5426810  22.7983300  43.2844330  36.1147280  17.1894750
  43.4057150  36.0733760  18.1380570  42.8992840  36.9771430  17.0341480
  47.2472700  33.8914680  25.2058440  47.2645440  34.3423330  26.0500290
  46.9988280  32.9920320  25.4191880  42.2965830  38.4248420  16.5878050
  41.7282730  37.9766670  15.9613960  43.0054830  38.7841200  16.0543200
  50.6743450  31.3046860  31.0444820  50.9989220  30.5736520  31.5702800
  50.7099960  30.9860500  30.1425810  37.3735010  42.3260440  30.4644780
  36.9889800  41.6854110  31.0627740  37.6847200  43.0296560  31.0339510
  43.5232150  39.1736980  25.9453400  43.8902280  38.6995550  26.6914740
  43.3337210  40.0478550  26.2861740  36.3872640  33.9180670  22.0746870
  36.1019560  33.5536340  22.9125490  36.3251500  33.1861130  21.4610010
  41.3131520  38.2145620  28.2637610  41.0088590  39.0937600  28.4887970
  42.2677980  38.2745410  28.2995050  39.8413310  42.4206610  18.8604460
  39.0675570  41.8804230  18.7003180  40.5707940  41.9013220  18.5222220
  50.6001290  41.4171970  24.6530850  51.3200410  41.9127260  24.2626960
  50.3983110  40.7389860  24.0084720  46.0611230  32.8109930  18.7960240
  45.2475840  32.3123100  18.7205550  45.8673180  33.6508180  18.3796590
  45.9820090  41.4881030  30.5399850  45.9157400  40.5676700  30.2857440
  45.3525230  41.5856470  31.2544490  48.7759620  37.1829580  17.0922400
  49.6639240  37.4946810  16.9173740  48.7464710  36.3101830  16.7002980
  39.8850710  42.0886990  22.4983270  40.4029380  41.2855250  22.4440160
  39.4334730  42.0266130  23.3400100  44.7720210  43.3553270  17.7710570
  45.1135910  44.0995500  17.2753890  43.9432920  43.6684390  18.1335400
  37.3695250  39.0548360  29.4108970  37.0110190  39.7202210  29.9982310
  37.0749810  38.2231910  29.7821590  40.5708370  39.5132600  32.2948520
  40.2708510  39.6589780  31.3976340  41.3419610  38.9537890  32.2021910
  45.9136820  44.3101600  30.2903650  45.9281360  43.3782560  30.0722560
  45.2061920  44.3961360  30.9293420  51.0473890  38.4941420  16.5602260
  50.9637610  38.9255640  15.7098700  51.7668080  38.9539770  16.9929080
  52.1248030  40.9508940  29.6372230  51.3996220  41.5437720  29.4401620
  52.6523490  40.9432480  28.8385600  52.0761140  45.3483680  19.2884390
  51.4337300  44.6939300  19.5628110  51.6891800  45.7538770  18.5125060
  47.6547620  42.6769110  23.1356080  48.0071440  42.0797240  22.4757450
  46.7709950  42.3513340  23.3064330  43.7410900  43.4366800  20.5426490
  44.4282030  43.9836010  20.9234080  42.9543320  43.9807530  20.5776100
  35.8803300  39.0539620  16.0343570  36.7498150  39.3364420  16.3179490
  35.3893620  39.8675490  15.9192380  43.0438110  40.4412830  20.1551850
  43.5000890  41.2518080  20.3812040  42.6926320  40.1235970  20.9870340
  45.3470720  45.9519170  27.3844150  45.9912940  46.1578550  28.0617570
  45.7100160  45.1907570  26.9315000  38.9449890  30.7850480  20.6274370
  38.8164520  30.7768380  21.5759290  38.1211910  31.1233570  20.2765380
  46.6202800  43.9551520  26.1021600  47.2625030  43.2544680  26.2153770
  47.1452150  44.7349960  25.9218490  50.4658520  44.2400140  15.8260740
  50.2396100  43.5230580  16.4185380  50.0754720  43.9912580  14.9882490
  48.3940420  44.7546420  29.3057660  48.7296660  45.3413110  29.9835580
  47.4740760  44.6239130  29.5355450  36.2474550  48.2667000  16.6005200
  36.6072190  48.8656340  15.9462470  36.1066890  48.8126890  17.3740230
  35.9443820  32.5441600  30.0881070  35.2302340  32.7438520  30.6933680
  36.3638860  31.7681170  30.4595870  50.0474770  42.1572080  17.4874900
  49.7596470  42.6184770  18.2752780  50.8426940  41.6969850  17.7559120
  36.2316410  46.5321860  31.0747600  36.3407530  45.5916600  30.9342990
  35.5796970  46.7976610  30.4261330  44.2229000  44.8037750  32.4745720
  43.9025870  44.0846990  33.0191410  43.5487360  45.4792820  32.5481780
  42.2643170  45.6498200  17.4178870  42.2553270  46.3827890  16.8023380
  41.3441530  45.4029780  17.5105830  37.8649810  40.8713090  18.1625630
  37.2577760  41.6111990  18.1720930  38.3399160  40.9612450  17.3363830
  47.4382600  35.0363910  27.8382520  47.8063420  34.2159120  28.1662090
  46.5780800  35.0965800  28.2538170  50.8044630  33.9920850  18.6470080
  50.1757790  34.0966520  17.9328310  50.3096550  34.2117630  19.4363960
  45.2502770  45.7126440  16.0804060  45.3514750  45.5090430  15.1506040
  44.3504510  45.4584720  16.2851840  42.7728660  36.2706800  20.0627960
  42.0644810  36.7393140  20.5041570  43.0573140  35.6128810  20.6973150
  44.3984590  37.6903500  28.0620490  44.8969840  38.1649320  28.7272340
  44.5407540  36.7667020  28.2690520  46.8044090  32.9957460  21.5023750
  46.6811870  33.0143590  20.5533260  47.7528650  33.0436400  21.6222150
  43.8920880  48.2312760  20.7751730  44.1462380  48.1934150  19.8531100
  42.9433360  48.1046090  20.7679980  40.9763680  34.5791880  17.4378670
  41.8254210  35.0162030  17.3718860  40.6094950  34.8912140  18.2650730
  51.6051450  33.9071460  28.9048880  51.1025050  34.6476860  29.2442690
  52.4208110  34.2955460  28.5885670  49.8973460  39.1504640  22.3510240
  48.9563600  39.1654870  22.5257930  50.2117530  38.3640600  22.7970540
  39.8755100  40.8324240  15.9114200  40.6418370  40.7205600  16.4739630
  39.9529790  40.1362210  15.2590970  38.5701860  38.2649310  16.5947090
  38.6505450  37.3176820  16.7064490  39.4621610  38.5956190  16.7007750
  51.8999040  46.3213490  24.0264500  52.0246460  47.1444660  24.4988310
  52.7664600  46.1104220  23.6788650  39.3716570  48.4144700  23.6981630
  40.1079050  47.8660160  23.9690200  39.7557490  49.2800710  23.5587620
  36.2562050  44.4818270  19.5723140  35.3301830  44.7239410  19.5628550
  36.7218480  45.3092530  19.4507890  38.3774850  47.5990770  32.8867210
  39.1787580  47.9202820  33.3002610  37.8626670  47.2386350  33.6087120
  42.4818880  47.5875010  15.5207200  43.2747490  47.8763840  15.0688990
  41.9623230  47.1567180  14.8419680  47.2139480  43.7070640  32.8342620
  46.6077640  43.7302240  32.0938370  46.9093590  42.9753680  33.3709870
  51.5349050  46.8145140  16.9443940  51.2490560  46.4010280  16.1298120
  51.3368600  47.7432850  16.8244460  36.0972660  40.0864230  31.8303260
  36.6011680  39.5071510  32.4019490  35.3580080  40.3704460  32.3679630
  42.9996280  42.8078420  15.3849550  42.8946920  42.1930770  16.1110930
  42.8320500  42.2844310  14.6012560  43.1510600  41.4935220  31.3638780
  42.3856270  42.0620220  31.2793450  43.3326560  41.2011430  30.4707010
  46.2399010  41.8698450  15.9891540  45.6909110  42.3167750  16.6334280
  46.8618270  41.3647700  16.5129210  50.2933950  43.2240550  31.9213800
  51.0343420  43.5616310  31.4181260  49.5306630  43.3932610  31.3683570
  38.1295740  38.2293820  32.7253330  38.1701080  37.9307690  33.6338560
  38.9841240  38.6301430  32.5660850  41.9074130  40.8289370  17.8856840
  42.3290550  40.6629240  18.7288230  42.0324970  40.0189600  17.3911980
  40.0701550  36.8085920  30.6927820  39.5398010  36.3176870  30.0651160
  40.7389620  37.2370120  30.1585750  44.4201770  39.8526980  15.1333940
  44.9407430  39.1376000  14.7675090  45.0670170  40.4912850  15.4334450
  48.9679610  41.2755380  30.4569010  49.3820630  41.4300460  31.3059430
  48.0330610  41.4010600  30.6194790  49.4401780  38.6151540  32.4608160
  50.0222550  37.8603860  32.3728640  49.6163550  39.1458980  31.6839640
  40.5573850  33.7748290  30.7725110  40.4630720  33.1569040  30.0475980
  39.9771240  34.5014580  30.5455020  43.3235290  32.3321530  27.8052500
  42.8752590  32.3545790  26.9598050  42.6900490  31.9340550  28.4022800
  43.7294840  41.2275860  28.4264940  44.1482950  42.0708590  28.2541180
  42.8103470  41.3647900  28.1971720  46.0658740  38.9592040  29.8102780
  46.1854950  38.3633180  30.5497620  46.9252740  38.9961730  29.3904080
  48.4046640  39.5129230  28.3865290  47.8781860  40.0371850  27.7830430
  48.7477980  40.1456620  29.0175020  40.8033030  36.9022600  14.8315000
  40.6022090  36.0389960  15.1928340  40.6325080  36.8155960  13.8936600
  41.5802260  47.5328870  29.5422670  41.0423350  48.2574930  29.2231370
  41.8336220  47.0559210  28.7520010  42.8327510  35.5013390  31.0678600
  43.4227200  35.1929240  31.7556420  42.0147750  35.0293140  31.2238500
  47.6520940  35.1179200  31.3011620  46.9636460  34.4560740  31.2361610
  48.3726960  34.6717470  31.7460080  48.2821340  31.7130830  17.3601880
  48.5623630  30.8698730  17.7161300  47.5087070  31.9453940  17.8740630
  39.6015830  34.0023220  14.8192880  39.9041730  34.0090650  13.9112030
  40.3410420  33.6521080  15.3160540  44.4364470  48.7680080  29.8009320
  44.3623170  49.6715220  30.1081690  43.5343310  48.4491980  29.7731390
  42.8200760  32.9457840  15.8049080  42.4722760  32.2681830  15.2251530
  43.0213530  32.4847350  16.6192470  44.9849800  47.9338590  17.4235680
  45.8800590  48.2723560  17.4454440  45.0167430  47.2118000  16.7959960
  38.6245960  43.3065640  15.6522680  39.0620830  43.8495310  16.3080260
  39.1093690  42.4812590  15.6619020  35.8391760  46.0954670  23.1042940
  36.1694770  45.2275730  22.8721580  36.2682760  46.3013190  23.9347900
  40.4353680  44.4263680  20.7644910  40.1349220  44.3028650  21.6648820
  40.3291170  43.5672270  20.3560640  36.3281970  46.9625260  25.8424570
  35.8912960  47.1426060  26.6748720  36.8959650  47.7199880  25.7006290
  51.9644150  46.4642260  30.1301880  51.3646140  46.5234820  29.3865800
  52.0938050  45.5247240  30.2598730  53.2045600  44.2060080  15.4671590
  52.3738560  44.2736730  15.9378820  53.3817430  45.0964200  15.1638450
  52.6602060  40.9507560  17.9705790  53.4220970  41.5204210  18.0765480
  52.6756430  40.3834760  18.7414100  36.1606400  39.4745490  22.2013450
  35.5055240  39.2057130  21.5573150  36.9984350  39.3649970  21.7515430
  53.6662030  41.8057660  22.8147720  54.0370860  41.0224980  22.4083690
  54.3063960  42.4946760  22.6365020  50.6495790  43.1894240  28.2278040
  49.8355630  43.6191400  28.4903830  51.0569990  43.8012650  27.6147090
  52.7121230  41.2441930  15.1278310  52.9870070  42.1520810  14.9997530
  52.5231970  41.1804460  16.0640300  49.1096840  34.2686780  16.4231940
  49.5281720  34.0817760  15.5828600  48.8032900  33.4165830  16.7334870
  52.6086570  39.1810920  20.1207740  52.2330170  38.4138850  19.6889030
  51.8789690  39.5633620  20.6082670  37.1982330  39.8598060  26.7416790
  37.5655370  39.7725460  27.6212810  36.6293150  39.0964610  26.6423650
  51.9986190  38.3282440  29.7547260  51.7672280  38.0995190  28.8545210
  52.2590740  39.2481990  29.7092150  36.7498330  36.7707150  30.6475210
  35.8554380  36.7373910  30.9868920  37.2895880  36.9693940  31.4126460
  50.4374260  33.5538870  32.5326960  51.3144440  33.5622270  32.9160960
  50.4495100  32.8169710  31.9219310  35.3744480  36.6844420  18.1438780
  34.4708560  36.9474620  17.9690440  35.8585100  36.9555590  17.3638740
  51.8837530  37.4068410  23.4214980  52.4075010  36.9131060  22.7905150
  52.4696950  37.5418770  24.1662550  52.0627250  37.4908280  26.9434530
  51.1129960  37.4571820  27.0579520  52.2440260  38.4008390  26.7084300
  37.9171690  35.7409960  16.0533160  38.6263390  35.3193180  15.5680440
  37.2011630  35.8085190  15.4216510  37.5645850  31.7949290  15.0935810
  38.2873980  32.3358230  15.4117030  37.8370370  31.5212710  14.2177350
  51.3737500  36.6641760  19.3607390  51.8696620  36.4312630  20.1456270
  51.1753570  35.8253600  18.9445030  37.2538040  31.0455480  24.9958430
  37.9014230  30.4952860  24.5553590  37.6739880  31.2998630  25.8174240
  52.8024660  35.3002710  21.8945070  52.6923940  35.1458750  22.8327340
  53.5632250  34.7723650  21.6520480  51.1490380  31.2396840  28.3528070
  51.7862600  31.8530980  28.7187260  51.2965270  31.2757500  27.4077300
  53.6914930  33.1310630  15.1351210  54.6164240  32.9991810  14.9269500
  53.6690720  33.2103450  16.0887660  53.7653420  33.9021290  17.7607920
  52.9704920  33.8366410  18.2900830  53.9696700  34.8371930  17.7493270
  50.7071840  47.9412840  21.7546310  51.3030910  47.6197410  21.0780730
  50.9649990  47.4684660  22.5459580  37.0070040  31.2011150  27.7383750
  36.6584860  31.6574970  28.5041930  36.6757740  30.3068280  27.8206180
  38.6134410  44.3730750  31.9036940  38.5704040  44.0023660  32.7851400
  38.7445420  45.3108320  32.0438760  42.3140440  45.9290340  27.5046660
  42.0731800  46.1964900  26.6177180  43.2543080  46.0996070  27.5597520
  44.5194860  32.3923030  31.2603170  44.4583750  32.9844860  32.0098580
  45.4595240  32.2848990  31.1153430  47.1569420  32.0493090  30.8995460
  47.7709830  32.3672380  30.2376540  47.7018980  31.5641680  31.5191320
  53.5744600  47.9484720  28.3057300  53.0802880  48.3453590  27.5884430
  52.9657890  47.3233930  28.6994580  37.6790680  30.7287350  31.0134520
  38.2273670  30.5475400  30.2500630  37.7445990  29.9381460  31.5490830
  38.4522440  47.3193000  29.0234720  37.8582760  47.1877700  29.7624760
  38.4446280  46.4831140  28.5576820  47.8977460  30.6125230  27.2264750
  47.0237300  30.9460340  27.0237680  47.7888210  30.1398410  28.0516620
  48.8049440  32.8196100  28.6106470  48.4762800  32.0047860  28.2308200
  49.7531740  32.7765910  28.4872160  51.2584050  48.5908140  25.5844040
  50.7987020  49.3423950  25.2102060  50.6296510  47.8714610  25.5258840
  38.0834670  44.6851380  27.9742760  37.3568730  44.0656670  27.9068710
  38.1443820  45.0791990  27.1040840  41.6879770  46.8996380  24.7592170
  42.2044790  46.2883740  24.2340430  42.3377150  47.4025160  25.2503180
  44.4275270  47.7904870  25.5861150  44.7153080  47.5359170  24.7094160
  44.9398490  47.2382230  26.1766720  45.6452280  31.5295070  26.1657660
  44.8624070  32.0040570  26.4454420  45.3515210  30.6249900  26.0570840
  50.1973350  32.2318170  24.2106750  50.6381440  32.1763270  23.3628350
  49.9280940  33.1476180  24.2816930  52.0611920  31.8633410  22.2215570
  52.0000320  30.9194630  22.0746590  52.8403950  31.9713500  22.7669030
  36.3664670  48.0025770  21.1839520  36.1986710  47.3696450  21.8821410
  35.4999180  48.2085170  20.8333710  36.9892690  31.8342550  18.6871380
  37.7472050  31.9471430  18.1135410  36.5269860  32.6711750  18.6414810
  43.5306500  33.9481820  21.6773690  42.7181010  33.5738710  21.3369570
  44.0348140  33.1926900  21.9794880  48.0331480  30.6124270  22.9156760
  48.6360850  31.1844480  23.3905280  47.2924470  31.1763710  22.6930660
  51.1766080  31.0145830  18.1897040  51.3716710  31.9129280  18.4564470
  50.3895950  30.7832910  18.6829990  37.9727370  46.6959000  18.6289660
  37.4474990  47.0767030  17.9251620  37.8971950  47.3209770  19.3499370
  39.3617840  32.3606600  17.2273350  39.8910600  31.5736400  17.0981300
  39.9946160  33.0397790  17.4608880  41.5555680  32.0981740  20.2818740
  40.9258420  31.3969050  20.4488870  41.0160820  32.8585870  20.0651900
  52.7292690  48.2546540  19.9503600  52.9044880  47.5684280  19.3064520
  52.0314260  48.7793590  19.5580270  41.6811240  31.3765720  32.7171230
  41.3995510  31.8799320  31.9532050  42.0630940  30.5787470  32.3513360
  40.5720340  48.6441380  17.5038910  41.3039160  48.3600660  16.9562800
  40.8314010  48.4054660  18.3938290  39.7335130  44.7606110  17.5085240
  39.1044010  45.2291210  18.0571070  39.8482960  43.9155330  17.9431430
  48.2826700  30.7919300  33.2951700  48.1692150  31.1113910  34.1903220
  49.0996440  31.1931810  32.9988980  51.0625190  47.9390830  32.7770390
  51.8550510  47.4440060  32.5696350  51.3558340  48.6180970  33.3846000
  47.1884850  38.8111770   3.6586440  47.1078900  37.8966380   3.3878150
  46.7749270  39.3078840   2.9526150  45.3202890  40.5890790   5.5395710
  44.5444990  40.1091230   5.8294280  45.9715820  39.9096440   5.3651870
  39.3368720  40.9010600   6.4171470  38.5053600  40.6459310   6.8167980
  39.9449700  40.9721370   7.1529390  49.3410320  44.9950980   4.3194840
  48.8791850  44.2238220   4.6482010  50.1535870  45.0217050   4.8247290
  39.3169980  44.9350690   6.6129490  39.6198020  44.0448430   6.4339710
  40.0613570  45.4920910   6.3851740  35.7093680  38.4618140   6.0853560
  36.2809790  37.6940340   6.0857200  35.7095220  38.7606900   5.1760170
  45.5673630  47.2808990   3.9398830  44.9485070  47.7366490   3.3693270
  46.4225410  47.4360450   3.5388530  44.7611880  43.2647980   5.5465870
  44.6920160  42.3237920   5.3855000  45.5231740  43.3549390   6.1188440
  36.9518550  33.8702500   7.8722490  36.7721390  32.9728250   8.1525250
  36.5498630  34.4174370   8.5469440  45.7917050  36.0718360   5.7734800
  46.1681870  35.1990240   5.6608470  45.6936560  36.4077060   4.8825240
  49.5741170  33.5668800   2.7063140  50.3950790  33.0765370   2.7488620
  49.6075250  34.1566460   3.4594980  37.5705220  36.3663000   6.4804830
  38.2515330  36.6301370   7.0992230  37.2553270  35.5263870   6.8142840
  41.7629790  37.4130360   5.5677420  42.2708010  37.9111330   6.2082440
  42.2943030  36.6365560   5.3916780  53.8640720  35.5835550   9.2706770
  53.1592890  35.9717260   8.7521880  54.1298640  36.2785840   9.8727700
  40.0465890  32.0528920   9.8340840  40.0484330  32.5701310   9.0286740
  39.2170200  31.5759100   9.8110770  41.2968740  41.6924100   8.0114340
  40.9638120  42.3193020   8.6535410  41.4735420  42.2185980   7.2316010
  49.8102650  35.5069180   5.4790680  49.1058220  35.7954070   6.0593790
  50.1714810  36.3169290   5.1190240  39.7281220  33.7638880   7.8411290
  40.0698030  34.6080930   7.5465160  38.7897030  33.9122620   7.9576630
  40.5087840  43.6604900   9.8263520  41.1261840  44.3355980   9.5447970
  39.6480960  44.0692880   9.7351020  51.4265430  45.1244310   7.7418160
  50.7428950  45.7943420   7.7334830  51.9659720  45.3224960   6.9763020
  52.8789570  34.9523970   5.8699890  51.9314480  34.9862950   6.0015320
  53.2039560  35.7662920   6.2549250  43.4109110  31.2521150   4.1655880
  43.7184090  30.6968040   3.4491380  42.4809810  31.3865610   3.9828870
  48.9624170  46.9688440   6.4563340  48.9751330  46.5650730   5.5885600
  48.4099390  47.7435730   6.3524770  48.3609610  41.8718280   7.7845950
  48.7778400  41.6578390   6.9499410  49.0849430  42.1291070   8.3554570
  52.3071710  40.2705500   7.8762190  51.4790340  40.3398590   7.4012320
  52.9022190  40.8559810   7.4078020  49.2713720  37.0574820   8.8217060
  48.8584900  37.8828530   9.0757050  48.5389670  36.4719860   8.6293420
  41.4046510  39.8434720   3.6835730  41.0003510  39.1311970   3.1881630
  41.4909630  39.4987960   4.5723770  41.8728210  43.5302280   5.8474940
  41.5756500  42.9247750   5.1682720  42.8228030  43.5679590   5.7364300
  40.1175130  36.6177930   7.4634770  40.6689720  36.7273270   6.6888020
  40.6318640  36.9915530   8.1790000  49.9613820  47.1034150   9.5098040
  49.4844380  47.9106340   9.3170650  49.2775610  46.4512480   9.6624250
  40.9646640  43.2683970  12.4982740  40.0675170  43.4923940  12.7456140
  40.9899510  43.3918910  11.5494140  39.7917860  40.1397290  11.0740110
  39.6525630  41.0120090  11.4427510  38.9099220  39.7970100  10.9288050
  46.1147240  45.0573160   2.3805240  46.5543150  45.7997490   1.9660630
  46.0534130  45.2999730   3.3044200  41.5898210  46.0818990  13.2825260
  41.5613640  46.4861940  12.4153690  41.4263180  45.1529350  13.1196860
  53.5413030  46.8646090  14.5789430  54.0172750  47.3428980  15.2578510
  54.1620190  46.7963580  13.8534930  35.7436510  41.9094840   6.9911020
  35.8216930  42.0443610   6.0466740  36.3578190  41.2010730   7.1839140
  36.9884140  43.6095030   3.4017200  36.5812220  43.7509620   2.5470800
  37.8797150  43.3255190   3.1988410  52.9446280  44.0558940  11.7389440
  53.0709340  43.8170820  10.8206620  52.9867660  43.2243480  12.2111520
  46.8063020  47.7586940  10.3084250  47.3207690  47.6694950  11.1106680
  45.9632100  48.1046640  10.6012160  48.0493480  47.1792550   2.3714740
  48.5050430  46.3981930   2.6853360  48.3886000  47.8899370   2.9155920
  52.7970290  36.1091400  12.7039180  52.1814560  36.6171070  12.1754640
  52.4766710  35.2089730  12.6465120  35.7996030  42.9509010   9.5305480
  35.9627070  42.4814370   8.7124850  36.2648480  42.4432570  10.1954320
  40.5714800  32.0814770   4.5666050  40.1282950  32.8624310   4.2350570
  41.1299790  32.4044660   5.2736990  44.8584610  34.9483290  10.1701370
  44.3963980  35.1566310  10.9821310  44.4562720  34.1342640   9.8672040
  49.8589120  36.1692240  11.2998030  49.0082710  35.8697990  11.6207100
  49.6990910  36.4134250  10.3881850  46.9538830  37.6693990  13.3996820
  47.2792240  36.8357740  13.0599050  47.7419160  38.1922510  13.5475150
  42.6090700  32.6262100   6.4255650  42.9063030  33.5324930   6.3447670
  43.1576260  32.1380880   5.8115220  40.3629020  37.2048340   2.2947300
  40.1369940  36.9885510   3.1993920  39.5821550  37.6376800   1.9493270
  42.8028230  38.1033920  12.9607570  42.7071830  37.1628650  12.8107970
  43.6460210  38.3248990  12.5655640  46.1991650  35.8475250   2.9241230
  46.5921220  36.1647450   2.1109920  46.5608500  34.9687130   3.0385750
  37.9338770  34.5147590  11.1141350  37.5402160  35.3622800  11.3214130
  37.2457170  33.8773960  11.3049990  44.5083820  34.5982560  14.1838090
  43.8182140  34.4054760  14.8184180  45.2516120  34.8817200  14.7162390
  35.2355820  32.4376050   5.1471430  34.9468870  33.0078910   5.8596410
  35.9801580  31.9580500   5.5102660  46.7846790  38.4381000   7.0192010
  46.0527910  38.9467810   7.3682110  46.3871130  37.6210980   6.7180790
  43.2224180  35.1135200   5.4244500  43.2260240  34.6725150   4.5749040
  44.1175300  35.4352530   5.5316320  39.0726560  34.9961690   4.3838710
  38.7326610  35.4736920   5.1405760  38.3103880  34.5426810   4.0239810
  47.2472700  33.8914680   6.4314950  47.2645440  34.3423330   7.2756800
  46.9988280  32.9920320   6.6448390  50.6743450  31.3046860  12.2701330
  50.9989220  30.5736520  12.7959310  50.7099960  30.9860500  11.3682320
  37.3735010  42.3260440  11.6901290  36.9889800  41.6854110  12.2884250
  37.6847200  43.0296560  12.2596020  43.5232150  39.1736980   7.1709910
  43.8902280  38.6995550   7.9171250  43.3337210  40.0478550   7.5118250
  36.3872640  33.9180670   3.3003380  36.1019560  33.5536340   4.1382000
  36.3251500  33.1861130   2.6866520  41.3131520  38.2145620   9.4894120
  41.0088590  39.0937600   9.7144480  42.2677980  38.2745410   9.5251560
  50.6001290  41.4171970   5.8787360  51.3200410  41.9127260   5.4883470
  50.3983110  40.7389860   5.2341230  45.9820090  41.4881030  11.7656360
  45.9157400  40.5676700  11.5113950  45.3525230  41.5856470  12.4801000
  39.8850710  42.0886990   3.7239780  40.4029380  41.2855250   3.6696670
  39.4334730  42.0266130   4.5656610  37.3695250  39.0548360  10.6365480
  37.0110190  39.7202210  11.2238820  37.0749810  38.2231910  11.0078100
  40.5708370  39.5132600  13.5205030  40.2708510  39.6589780  12.6232850
  41.3419610  38.9537890  13.4278420  45.9136820  44.3101600  11.5160160
  45.9281360  43.3782560  11.2979070  45.2061920  44.3961360  12.1549930
  52.1248030  40.9508940  10.8628740  51.3996220  41.5437720  10.6658130
  52.6523490  40.9432480  10.0642110  47.6547620  42.6769110   4.3612590
  48.0071440  42.0797240   3.7013960  46.7709950  42.3513340   4.5320840
  43.7410900  43.4366800   1.7683000  44.4282030  43.9836010   2.1490590
  42.9543320  43.9807530   1.8032610  45.3470720  45.9519170   8.6100660
  45.9912940  46.1578550   9.2874080  45.7100160  45.1907570   8.1571510
  46.6202800  43.9551520   7.3278110  47.2625030  43.2544680   7.4410280
  47.1452150  44.7349960   7.1475000  48.3940420  44.7546420  10.5314170
  48.7296660  45.3413110  11.2092090  47.4740760  44.6239130  10.7611960
  35.9443820  32.5441600  11.3137580  35.2302340  32.7438520  11.9190190
  36.3638860  31.7681170  11.6852380  36.2316410  46.5321860  12.3004110
  36.3407530  45.5916600  12.1599500  35.5796970  46.7976610  11.6517840
  44.2229000  44.8037750  13.7002230  43.9025870  44.0846990  14.2447920
  43.5487360  45.4792820  13.7738290  47.4382600  35.0363910   9.0639030
  47.8063420  34.2159120   9.3918600  46.5780800  35.0965800   9.4794680
  44.3984590  37.6903500   9.2877000  44.8969840  38.1649320   9.9528850
  44.5407540  36.7667020   9.4947030  46.8044090  32.9957460   2.7280260
  46.6811870  33.0143590   1.7789770  47.7528650  33.0436400   2.8478660
  51.6051450  33.9071460  10.1305390  51.1025050  34.6476860  10.4699200
  52.4208110  34.2955460   9.8142180  49.8973460  39.1504640   3.5766750
  48.9563600  39.1654870   3.7514440  50.2117530  38.3640600   4.0227050
  51.8999040  46.3213490   5.2521010  52.0246460  47.1444660   5.7244820
  52.7664600  46.1104220   4.9045160  39.3716570  48.4144700   4.9238140
  40.1079050  47.8660160   5.1946710  39.7557490  49.2800710   4.7844130
  38.3774850  47.5990770  14.1123720  39.1787580  47.9202820  14.5259120
  37.8626670  47.2386350  14.8343630  47.2139480  43.7070640  14.0599130
  46.6077640  43.7302240  13.3194880  46.9093590  42.9753680  14.5966380
  48.6439850  47.4350930  12.6708540  49.5961600  47.3508950  12.6208780
  48.4968070  48.0992640  13.3442330  36.0972660  40.0864230  13.0559770
  36.6011680  39.5071510  13.6276000  35.3580080  40.3704460  13.5936140
  43.1510600  41.4935220  12.5895290  42.3856270  42.0620220  12.5049960
  43.3326560  41.2011430  11.6963520  50.2933950  43.2240550  13.1470310
  51.0343420  43.5616310  12.6437770  49.5306630  43.3932610  12.5940080
  38.1295740  38.2293820  13.9509840  38.1701080  37.9307690  14.8595070
  38.9841240  38.6301430  13.7917360  40.0701550  36.8085920  11.9184330
  39.5398010  36.3176870  11.2907670  40.7389620  37.2370120  11.3842260
  48.9679610  41.2755380  11.6825520  49.3820630  41.4300460  12.5315940
  48.0330610  41.4010600  11.8451300  49.4401780  38.6151540  13.6864670
  50.0222550  37.8603860  13.5985150  49.6163550  39.1458980  12.9096150
  40.5573850  33.7748290  11.9981620  40.4630720  33.1569040  11.2732490
  39.9771240  34.5014580  11.7711530  43.3235290  32.3321530   9.0309010
  42.8752590  32.3545790   8.1854560  42.6900490  31.9340550   9.6279310
  43.7294840  41.2275860   9.6521450  44.1482950  42.0708590   9.4797690
  42.8103470  41.3647900   9.4228230  46.0658740  38.9592040  11.0359290
  46.1854950  38.3633180  11.7754130  46.9252740  38.9961730  10.6160590
  48.4046640  39.5129230   9.6121800  47.8781860  40.0371850   9.0086940
  48.7477980  40.1456620  10.2431530  41.5802260  47.5328870  10.7679180
  41.0423350  48.2574930  10.4487880  41.8336220  47.0559210   9.9776520
  42.8327510  35.5013390  12.2935110  43.4227200  35.1929240  12.9812930
  42.0147750  35.0293140  12.4495010  47.6520940  35.1179200  12.5268130
  46.9636460  34.4560740  12.4618120  48.3726960  34.6717470  12.9716590
  44.4364470  48.7680080  11.0265830  44.3623170  49.6715220  11.3338200
  43.5343310  48.4491980  10.9987900  35.8391760  46.0954670   4.3299450
  36.1694770  45.2275730   4.0978090  36.2682760  46.3013190   5.1604410
  36.3281970  46.9625260   7.0681080  35.8912960  47.1426060   7.9005230
  36.8959650  47.7199880   6.9262800  51.9644150  46.4642260  11.3558390
  51.3646140  46.5234820  10.6122310  52.0938050  45.5247240  11.4855240
  36.1606400  39.4745490   3.4269960  35.5055240  39.2057130   2.7829660
  36.9984350  39.3649970   2.9771940  53.6662030  41.8057660   4.0404230
  54.0370860  41.0224980   3.6340200  54.3063960  42.4946760   3.8621530
  50.6495790  43.1894240   9.4534550  49.8355630  43.6191400   9.7160340
  51.0569990  43.8012650   8.8403600  37.1982330  39.8598060   7.9673300
  37.5655370  39.7725460   8.8469320  36.6293150  39.0964610   7.8680160
  51.9986190  38.3282440  10.9803770  51.7672280  38.0995190  10.0801720
  52.2590740  39.2481990  10.9348660  36.7498330  36.7707150  11.8731720
  35.8554380  36.7373910  12.2125430  37.2895880  36.9693940  12.6382970
  50.4374260  33.5538870  13.7583470  51.3144440  33.5622270  14.1417470
  50.4495100  32.8169710  13.1475820  51.8837530  37.4068410   4.6471490
  52.4075010  36.9131060   4.0161660  52.4696950  37.5418770   5.3919060
  52.0627250  37.4908280   8.1691040  51.1129960  37.4571820   8.2836030
  52.2440260  38.4008390   7.9340810  37.2538040  31.0455480   6.2214940
  37.9014230  30.4952860   5.7810100  37.6739880  31.2998630   7.0430750
  52.8024660  35.3002710   3.1201580  52.6923940  35.1458750   4.0583850
  53.5632250  34.7723650   2.8776990  51.1490380  31.2396840   9.5784580
  51.7862600  31.8530980   9.9443770  51.2965270  31.2757500   8.6333810
  50.7071840  47.9412840   2.9802820  51.3030910  47.6197410   2.3037240
  50.9649990  47.4684660   3.7716090  37.0070040  31.2011150   8.9640260
  36.6584860  31.6574970   9.7298440  36.6757740  30.3068280   9.0462690
  38.6134410  44.3730750  13.1293450  38.5704040  44.0023660  14.0107910
  38.7445420  45.3108320  13.2695270  42.3140440  45.9290340   8.7303170
  42.0731800  46.1964900   7.8433690  43.2543080  46.0996070   8.7854030
  44.5194860  32.3923030  12.4859680  44.4583750  32.9844860  13.2355090
  45.4595240  32.2848990  12.3409940  47.1569420  32.0493090  12.1251970
  47.7709830  32.3672380  11.4633050  47.7018980  31.5641680  12.7447830
  53.5744600  47.9484720   9.5313810  53.0802880  48.3453590   8.8140940
  52.9657890  47.3233930   9.9251090  37.6790680  30.7287350  12.2391030
  38.2273670  30.5475400  11.4757140  37.7445990  29.9381460  12.7747340
  38.4522440  47.3193000  10.2491230  37.8582760  47.1877700  10.9881270
  38.4446280  46.4831140   9.7833330  47.8977460  30.6125230   8.4521260
  47.0237300  30.9460340   8.2494190  47.7888210  30.1398410   9.2773130
  48.8049440  32.8196100   9.8362980  48.4762800  32.0047860   9.4564710
  49.7531740  32.7765910   9.7128670  51.2584050  48.5908140   6.8100550
  50.7987020  49.3423950   6.4358570  50.6296510  47.8714610   6.7515350
  38.0834670  44.6851380   9.1999270  37.3568730  44.0656670   9.1325220
  38.1443820  45.0791990   8.3297350  41.6879770  46.8996380   5.9848680
  42.2044790  46.2883740   5.4596940  42.3377150  47.4025160   6.4759690
  44.4275270  47.7904870   6.8117660  44.7153080  47.5359170   5.9350670
  44.9398490  47.2382230   7.4023230  45.6452280  31.5295070   7.3914170
  44.8624070  32.0040570   7.6710930  45.3515210  30.6249900   7.2827350
  50.1973350  32.2318170   5.4363260  50.6381440  32.1763270   4.5884860
  49.9280940  33.1476180   5.5073440  52.0611920  31.8633410   3.4472080
  52.0000320  30.9194630   3.3003100  52.8403950  31.9713500   3.9925540
  36.3664670  48.0025770   2.4096030  36.1986710  47.3696450   3.1077920
  35.4999180  48.2085170   2.0590220  43.5306500  33.9481820   2.9030200
  42.7181010  33.5738710   2.5626080  44.0348140  33.1926900   3.2051390
  48.0331480  30.6124270   4.1413270  48.6360850  31.1844480   4.6161790
  47.2924470  31.1763710   3.9187170  44.4947630  48.7120970  14.1785860
  45.4214940  48.4765240  14.2221820  44.4798060  49.5392970  13.6971890
  41.6811240  31.3765720  13.9427740  41.3995510  31.8799320  13.1788560
  42.0630940  30.5787470  13.5769870  48.2826700  30.7919300  14.5208210
  48.1692150  31.1113910  15.4159730  49.0996440  31.1931810  14.2245490
  51.0625190  47.9390830  14.0026900  51.8550510  47.4440060  13.7952860
  51.3558340  48.6180970  14.6102510  47.1884850  20.0368280  97.5303890
  47.1078900  19.1222890  97.2595600  46.7749270  20.5335350  96.8243600
  45.3202890  21.8147300  99.4113160  44.5444990  21.3347740  99.7011730
  45.9715820  21.1352950  99.2369320  39.3368720  22.1267110 100.2888920
  38.5053600  21.8715820 100.6885430  39.9449700  22.1977880 101.0246840
  49.3410320  26.2207490  98.1912290  48.8791850  25.4494730  98.5199460
  50.1535870  26.2473560  98.6964740  39.3169980  26.1607200 100.4846940
  39.6198020  25.2704940 100.3057160  40.0613570  26.7177420 100.2569190
  37.7460670  17.0869000  94.0731310  36.8577370  17.4284970  93.9711190
  38.0301860  16.8869320  93.1812140  35.7093680  19.6874650  99.9571010
  36.2809790  18.9196850  99.9574650  35.7095220  19.9863410  99.0477620
  45.5673630  28.5065500  97.8116280  44.9485070  28.9623000  97.2410720
  46.4225410  28.6616960  97.4105980  44.7611880  24.4904490  99.4183320
  44.6920160  23.5494430  99.2572450  45.5231740  24.5805900  99.9905890
  36.9518550  15.0959010 101.7439940  36.7721390  14.1984760 102.0242700
  36.5498630  15.6430880 102.4186890  45.7917050  17.2974870  99.6452250
  46.1681870  16.4246750  99.5325920  45.6936560  17.6333570  98.7542690
  39.9222060  15.6700500  95.1069690  40.0288810  16.5704230  95.4138450
  39.0114420  15.6218470  94.8164340  49.5741170  14.7925310  96.5780590
  50.3950790  14.3021880  96.6206070  49.6075250  15.3822970  97.3312430
  37.5705220  17.5919510 100.3522280  38.2515330  17.8557880 100.9709680
  37.2553270  16.7520380 100.6860290  41.7629790  18.6386870  99.4394870
  42.2708010  19.1367840 100.0799890  42.2943030  17.8622070  99.2634230
  46.4336980  23.3904740  95.2048190  45.8154250  23.8554190  94.6410910
  46.9460230  24.0832220  95.6217700  41.2968740  22.9180610 101.8831790
  40.9638120  23.5449530 102.5252860  41.4735420  23.4442490 101.1033460
  49.8102650  16.7325690  99.3508130  49.1058220  17.0210580  99.9311240
  50.1714810  17.5425800  98.9907690  39.7281220  14.9895390 101.7128740
  40.0698030  15.8337440 101.4182610  38.7897030  15.1379130 101.8294080
  35.8020180  24.0761270  92.5787820  35.4248160  24.5648370  91.8472720
  36.0593250  24.7486550  93.2094350  51.4265430  26.3500820 101.6135610
  50.7428950  27.0199930 101.6052280  51.9659720  26.5481470 100.8480470
  52.8789570  16.1780480  99.7417340  51.9314480  16.2119460  99.8732770
  53.2039560  16.9919430 100.1266700  43.4109110  12.4777660  98.0373330
  43.7184090  11.9224550  97.3208830  42.4809810  12.6122120  97.8546320
  48.9624170  28.1944950 100.3280790  48.9751330  27.7907240  99.4603050
  48.4099390  28.9692240 100.2242220  50.2569590  24.9161170  95.4170960
  50.1465920  23.9735500  95.5420380  50.2537840  25.2776810  96.3033720
  48.3609610  23.0974790 101.6563400  48.7778400  22.8834900 100.8216860
  49.0849430  23.3547580 102.2272020  45.7989870  20.5426490  94.7733450
  44.8719150  20.4763870  95.0021920  45.9514690  21.4806620  94.6588690
  45.7858950  16.8143490  91.7700610  44.8462620  16.9757450  91.8553070
  46.1042210  17.5329170  91.2236600  52.3071710  21.4962010 101.7479640
  51.4790340  21.5655100 101.2729770  52.9022190  22.0816320 101.2795470
  49.8287160  22.1046790  95.2768700  49.2099580  21.7666340  94.6295000
  49.8111610  21.4606550  95.9847890  41.4046510  21.0691230  97.5553180
  41.0003510  20.3568480  97.0599080  41.4909630  20.7244470  98.4441220
  41.8728210  24.7558790  99.7192390  41.5756500  24.1504260  99.0400170
  42.8228030  24.7936100  99.6081750  40.1175130  17.8434440 101.3352220
  40.6689720  17.9529780 100.5605470  40.6318640  18.2172040 102.0507450
  48.0051860  21.3433600  92.2841450  48.4445140  20.5056030  92.1379270
  48.7180280  21.9763000  92.3705590  46.1147240  26.2829670  96.2522690
  46.5543150  27.0254000  95.8378080  46.0534130  26.5256240  97.1761650
  51.5869000  12.5976410  90.5982490  51.2741660  12.6903240  91.4981560
  52.3481470  13.1757440  90.5479920  38.1051140  19.9636210  95.0559830
  37.9848740  20.6898300  94.4441100  37.7952030  19.1939120  94.5787740
  35.7436510  23.1351350 100.8628470  35.8216930  23.2700120  99.9184190
  36.3578190  22.4267240 101.0556590  36.9884140  24.8351540  97.2734650
  36.5812220  24.9766130  96.4188250  37.8797150  24.5511700  97.0705860
  48.7817420  29.2698790  93.6085700  48.6218560  28.9801730  94.5067530
  48.6164130  28.4938920  93.0730930  41.2605800  29.0497320  95.3857320
  41.0848280  28.1332860  95.1725120  40.4061540  29.4084610  95.6255120
  48.4843550  26.7786350  92.1683700  47.7908710  26.7763640  91.5085980
  49.2266410  26.3545670  91.7377870  48.0493480  28.4049060  96.2432190
  48.5050430  27.6238440  96.5570810  48.3886000  29.1155880  96.7873370
  40.5714800  13.3071280  98.4383500  40.1282950  14.0880820  98.1068020
  41.1299790  13.6301170  99.1454440  43.6873620  12.9281980  93.3189330
  43.0627800  12.9241850  94.0442640  43.6003740  12.0612940  92.9225300
  42.6090700  13.8518610 100.2973100  42.9063030  14.7581440 100.2165120
  43.1576260  13.3637390  99.6832670  40.3629020  18.4304850  96.1664750
  40.1369940  18.2142020  97.0711370  39.5821550  18.8633310  95.8210720
  47.5926780  18.4368220  94.7655400  46.9935670  19.1604020  94.5819020
  48.1406390  18.3745000  93.9831850  46.1991650  17.0731760  96.7958680
  46.5921220  17.3903960  95.9827370  46.5608500  16.1943640  96.9103200
  35.2355820  13.6632560  99.0188880  34.9468870  14.2335420  99.7313860
  35.9801580  13.1837010  99.3820110  35.4226050  17.6052680  90.2291600
  35.3400720  18.5483440  90.3706590  35.0709110  17.4627590  89.3503950
  46.7846790  19.6637510 100.8909460  46.0527910  20.1724320 101.2399560
  46.3871130  18.8467490 100.5898240  43.2224180  16.3391710  99.2961950
  43.2260240  15.8981660  98.4466490  44.1175300  16.6609040  99.4033770
  39.0726560  16.2218200  98.2556160  38.7326610  16.6993430  99.0123210
  38.3103880  15.7683320  97.8957260  43.2844330  17.3403790  92.2868710
  43.4057150  17.2990270  93.2354530  42.8992840  18.2027940  92.1315440
  47.2472700  15.1171190 100.3032400  47.2645440  15.5679840 101.1474250
  46.9988280  14.2176830 100.5165840  42.2965830  19.6504930  91.6852010
  41.7282730  19.2023180  91.0587920  43.0054830  20.0097710  91.1517160
  43.5232150  20.3993490 101.0427360  43.8902280  19.9252060 101.7888700
  43.3337210  21.2735060 101.3835700  36.3872640  15.1437180  97.1720830
  36.1019560  14.7792850  98.0099450  36.3251500  14.4117640  96.5583970
  39.8413310  23.6463120  93.9578420  39.0675570  23.1060740  93.7977140
  40.5707940  23.1269730  93.6196180  50.6001290  22.6428480  99.7504810
  51.3200410  23.1383770  99.3600920  50.3983110  21.9646370  99.1058680
  46.0611230  14.0366440  93.8934200  45.2475840  13.5379610  93.8179510
  45.8673180  14.8764690  93.4770550  48.7759620  18.4086090  92.1896360
  49.6639240  18.7203320  92.0147700  48.7464710  17.5358340  91.7976940
  39.8850710  23.3143500  97.5957230  40.4029380  22.5111760  97.5414120
  39.4334730  23.2522640  98.4374060  44.7720210  24.5809780  92.8684530
  45.1135910  25.3252010  92.3727850  43.9432920  24.8940900  93.2309360
  51.0473890  19.7197930  91.6576220  50.9637610  20.1512150  90.8072660
  51.7668080  20.1796280  92.0903040  52.0761140  26.5740190  94.3858350
  51.4337300  25.9195810  94.6602070  51.6891800  26.9795280  93.6099020
  47.6547620  23.9025620  98.2330040  48.0071440  23.3053750  97.5731410
  46.7709950  23.5769850  98.4038290  43.7410900  24.6623310  95.6400450
  44.4282030  25.2092520  96.0208040  42.9543320  25.2064040  95.6750060
  35.8803300  20.2796130  91.1317530  36.7498150  20.5620930  91.4153450
  35.3893620  21.0932000  91.0166340  43.0438110  21.6669340  95.2525810
  43.5000890  22.4774590  95.4786000  42.6926320  21.3492480  96.0844300
  38.9449890  12.0106990  95.7248330  38.8164520  12.0024890  96.6733250
  38.1211910  12.3490080  95.3739340  46.6202800  25.1808030 101.1995560
  47.2625030  24.4801190 101.3127730  47.1452150  25.9606470 101.0192450
  50.4658520  25.4656650  90.9234700  50.2396100  24.7487090  91.5159340
  50.0754720  25.2169090  90.0856450  36.2474550  29.4923510  91.6979160
  36.6072190  30.0912850  91.0436430  36.1066890  30.0383400  92.4714190
  50.0474770  23.3828590  92.5848860  49.7596470  23.8441280  93.3726740
  50.8426940  22.9226360  92.8533080  42.2643170  26.8754710  92.5152830
  42.2553270  27.6084400  91.8997340  41.3441530  26.6286290  92.6079790
  37.8649810  22.0969600  93.2599590  37.2577760  22.8368500  93.2694890
  38.3399160  22.1868960  92.4337790  50.8044630  15.2177360  93.7444040
  50.1757790  15.3223030  93.0302270  50.3096550  15.4374140  94.5337920
  45.2502770  26.9382950  91.1778020  45.3514750  26.7346940  90.2480000
  44.3504510  26.6841230  91.3825800  42.7728660  17.4963310  95.1601920
  42.0644810  17.9649650  95.6015530  43.0573140  16.8385320  95.7947110
  46.8044090  14.2213970  96.5997710  46.6811870  14.2400100  95.6507220
  47.7528650  14.2692910  96.7196110  43.8920880  29.4569270  95.8725690
  44.1462380  29.4190660  94.9505060  42.9433360  29.3302600  95.8653940
  40.9763680  15.8048390  92.5352630  41.8254210  16.2418540  92.4692820
  40.6094950  16.1168650  93.3624690  49.8973460  20.3761150  97.4484200
  48.9563600  20.3911380  97.6231890  50.2117530  19.5897110  97.8944500
  39.8755100  22.0580750  91.0088160  40.6418370  21.9462110  91.5713590
  39.9529790  21.3618720  90.3564930  38.5701860  19.4905820  91.6921050
  38.6505450  18.5433330  91.8038450  39.4621610  19.8212700  91.7981710
  51.8999040  27.5470000  99.1238460  52.0246460  28.3701170  99.5962270
  52.7664600  27.3360730  98.7762610  39.3716570  29.6401210  98.7955590
  40.1079050  29.0916670  99.0664160  39.7557490  30.5057220  98.6561580
  36.2562050  25.7074780  94.6697100  35.3301830  25.9495920  94.6602510
  36.7218480  26.5349040  94.5481850  42.4818880  28.8131520  90.6181160
  43.2747490  29.1020350  90.1662950  41.9623230  28.3823690  89.9393640
  51.5349050  28.0401650  92.0417900  51.2490560  27.6266790  91.2272080
  51.3368600  28.9689360  91.9218420  42.9996280  24.0334930  90.4823510
  42.8946920  23.4187280  91.2084890  42.8320500  23.5100820  89.6986520
  46.2399010  23.0954960  91.0865500  45.6909110  23.5424260  91.7308240
  46.8618270  22.5904210  91.6103170  41.9074130  22.0545880  92.9830800
  42.3290550  21.8885750  93.8262190  42.0324970  21.2446110  92.4885940
  44.4201770  21.0783490  90.2307900  44.9407430  20.3632510  89.8649050
  45.0670170  21.7169360  90.5308410  40.8033030  18.1279110  89.9288960
  40.6022090  17.2646470  90.2902300  40.6325080  18.0412470  88.9910560
  48.2821340  12.9387340  92.4575840  48.5623630  12.0955240  92.8135260
  47.5087070  13.1710450  92.9714590  39.6015830  15.2279730  89.9166840
  39.9041730  15.2347160  89.0085990  40.3410420  14.8777590  90.4134500
  42.8200760  14.1714350  90.9023040  42.4722760  13.4938340  90.3225490
  43.0213530  13.7103860  91.7166430  44.9849800  29.1595100  92.5209640
  45.8800590  29.4980070  92.5428400  45.0167430  28.4374510  91.8933920
  38.6245960  24.5322150  90.7496640  39.0620830  25.0751820  91.4054220
  39.1093690  23.7069100  90.7592980  35.8391760  27.3211180  98.2016900
  36.1694770  26.4532240  97.9695540  36.2682760  27.5269700  99.0321860
  40.4353680  25.6520190  95.8618870  40.1349220  25.5285160  96.7622780
  40.3291170  24.7928780  95.4534600  36.3281970  28.1881770 100.9398530
  35.8912960  28.3682570 101.7722680  36.8959650  28.9456390 100.7980250
  53.2045600  25.4316590  90.5645550  52.3738560  25.4993240  91.0352780
  53.3817430  26.3220710  90.2612410  52.6602060  22.1764070  93.0679750
  53.4220970  22.7460720  93.1739440  52.6756430  21.6091270  93.8388060
  36.1606400  20.7002000  97.2987410  35.5055240  20.4313640  96.6547110
  36.9984350  20.5906480  96.8489390  53.6662030  23.0314170  97.9121680
  54.0370860  22.2481490  97.5057650  54.3063960  23.7203270  97.7338980
  52.7121230  22.4698440  90.2252270  52.9870070  23.3777320  90.0971490
  52.5231970  22.4060970  91.1614260  49.1096840  15.4943290  91.5205900
  49.5281720  15.3074270  90.6802560  48.8032900  14.6422340  91.8308830
  52.6086570  20.4067430  95.2181700  52.2330170  19.6395360  94.7862990
  51.8789690  20.7890130  95.7056630  37.1982330  21.0854570 101.8390750
  37.5655370  20.9981970 102.7186770  36.6293150  20.3221120 101.7397610
  35.3744480  17.9100930  93.2412740  34.4708560  18.1731130  93.0664400
  35.8585100  18.1812100  92.4612700  51.8837530  18.6324920  98.5188940
  52.4075010  18.1387570  97.8879110  52.4696950  18.7675280  99.2636510
  52.0627250  18.7164790 102.0408490  51.1129960  18.6828330 102.1553480
  52.2440260  19.6264900 101.8058260  37.9171690  16.9666470  91.1507120
  38.6263390  16.5449690  90.6654400  37.2011630  17.0341700  90.5190470
  37.5645850  13.0205800  90.1909770  38.2873980  13.5614740  90.5090990
  37.8370370  12.7469220  89.3151310  51.3737500  17.8898270  94.4581350
  51.8696620  17.6569140  95.2430230  51.1753570  17.0510110  94.0418990
  37.2538040  12.2711990 100.0932390  37.9014230  11.7209370  99.6527550
  37.6739880  12.5255140 100.9148200  52.8024660  16.5259220  96.9919030
  52.6923940  16.3715260  97.9301300  53.5632250  15.9980160  96.7494440
  53.6914930  14.3567140  90.2325170  54.6164240  14.2248320  90.0243460
  53.6690720  14.4359960  91.1861620  53.7653420  15.1277800  92.8581880
  52.9704920  15.0622920  93.3874790  53.9696700  16.0628440  92.8467230
  50.7071840  29.1669350  96.8520270  51.3030910  28.8453920  96.1754690
  50.9649990  28.6941170  97.6433540  42.3140440  27.1546850 102.6020620
  42.0731800  27.4221410 101.7151140  43.2543080  27.3252580 102.6571480
  51.2584050  29.8164650 100.6818000  50.7987020  30.5680460 100.3076020
  50.6296510  29.0971120 100.6232800  41.6879770  28.1252890  99.8566130
  42.2044790  27.5140250  99.3314390  42.3377150  28.6281670 100.3477140
  44.4275270  29.0161380 100.6835110  44.7153080  28.7615680  99.8068120
  44.9398490  28.4638740 101.2740680  45.6452280  12.7551580 101.2631620
  44.8624070  13.2297080 101.5428380  45.3515210  11.8506410 101.1544800
  50.1973350  13.4574680  99.3080710  50.6381440  13.4019780  98.4602310
  49.9280940  14.3732690  99.3790890  52.0611920  13.0889920  97.3189530
  52.0000320  12.1451140  97.1720550  52.8403950  13.1970010  97.8642990
  36.3664670  29.2282280  96.2813480  36.1986710  28.5952960  96.9795370
  35.4999180  29.4341680  95.9307670  36.9892690  13.0599060  93.7845340
  37.7472050  13.1727940  93.2109370  36.5269860  13.8968260  93.7388770
  43.5306500  15.1738330  96.7747650  42.7181010  14.7995220  96.4343530
  44.0348140  14.4183410  97.0768840  48.0331480  11.8380780  98.0130720
  48.6360850  12.4100990  98.4879240  47.2924470  12.4020220  97.7904620
  51.1766080  12.2402340  93.2871000  51.3716710  13.1385790  93.5538430
  50.3895950  12.0089420  93.7803950  37.9727370  27.9215510  93.7263620
  37.4474990  28.3023540  93.0225580  37.8971950  28.5466280  94.4473330
  39.3617840  13.5863110  92.3247310  39.8910600  12.7992910  92.1955260
  39.9946160  14.2654300  92.5582840  41.5555680  13.3238250  95.3792700
  40.9258420  12.6225560  95.5462830  41.0160820  14.0842380  95.1625860
  52.7292690  29.4803050  95.0477560  52.9044880  28.7940790  94.4038480
  52.0314260  30.0050100  94.6554230  40.5720340  29.8697890  92.6012870
  41.3039160  29.5857170  92.0536760  40.8314010  29.6311170  93.4912250
  39.7335130  25.9862620  92.6059200  39.1044010  26.4547720  93.1545030
  39.8482960  25.1411840  93.0405390  47.1884850  20.0368280  78.7560400
  47.1078900  19.1222890  78.4852110  46.7749270  20.5335350  78.0500110
  45.3202890  21.8147300  80.6369670  44.5444990  21.3347740  80.9268240
  45.9715820  21.1352950  80.4625830  39.3368720  22.1267110  81.5145430
  38.5053600  21.8715820  81.9141940  39.9449700  22.1977880  82.2503350
  49.3410320  26.2207490  79.4168800  48.8791850  25.4494730  79.7455970
  50.1535870  26.2473560  79.9221250  39.3169980  26.1607200  81.7103450
  39.6198020  25.2704940  81.5313670  40.0613570  26.7177420  81.4825700
  37.7460670  17.0869000  75.2987820  36.8577370  17.4284970  75.1967700
  38.0301860  16.8869320  74.4068650  35.7093680  19.6874650  81.1827520
  36.2809790  18.9196850  81.1831160  35.7095220  19.9863410  80.2734130
  45.5673630  28.5065500  79.0372790  44.9485070  28.9623000  78.4667230
  46.4225410  28.6616960  78.6362490  44.7611880  24.4904490  80.6439830
  44.6920160  23.5494430  80.4828960  45.5231740  24.5805900  81.2162400
  36.9518550  15.0959010  82.9696450  36.7721390  14.1984760  83.2499210
  36.5498630  15.6430880  83.6443400  45.7917050  17.2974870  80.8708760
  46.1681870  16.4246750  80.7582430  45.6936560  17.6333570  79.9799200
  39.9222060  15.6700500  76.3326200  40.0288810  16.5704230  76.6394960
  39.0114420  15.6218470  76.0420850  49.5741170  14.7925310  77.8037100
  50.3950790  14.3021880  77.8462580  49.6075250  15.3822970  78.5568940
  37.5705220  17.5919510  81.5778790  38.2515330  17.8557880  82.1966190
  37.2553270  16.7520380  81.9116800  41.7629790  18.6386870  80.6651380
  42.2708010  19.1367840  81.3056400  42.2943030  17.8622070  80.4890740
  53.8640720  16.8092060  84.3680730  53.1592890  17.1973770  83.8495840
  54.1298640  17.5042350  84.9701660  40.0465890  13.2785430  84.9314800
  40.0484330  13.7957820  84.1260700  39.2170200  12.8015610  84.9084730
  46.4336980  23.3904740  76.4304700  45.8154250  23.8554190  75.8667420
  46.9460230  24.0832220  76.8474210  41.2968740  22.9180610  83.1088300
  40.9638120  23.5449530  83.7509370  41.4735420  23.4442490  82.3289970
  49.8102650  16.7325690  80.5764640  49.1058220  17.0210580  81.1567750
  50.1714810  17.5425800  80.2164200  39.7281220  14.9895390  82.9385250
  40.0698030  15.8337440  82.6439120  38.7897030  15.1379130  83.0550590
  40.5087840  24.8861410  84.9237480  41.1261840  25.5612490  84.6421930
  39.6480960  25.2949390  84.8324980  35.8020180  24.0761270  73.8044330
  35.4248160  24.5648370  73.0729230  36.0593250  24.7486550  74.4350860
  51.4265430  26.3500820  82.8392120  50.7428950  27.0199930  82.8308790
  51.9659720  26.5481470  82.0736980  52.8789570  16.1780480  80.9673850
  51.9314480  16.2119460  81.0989280  53.2039560  16.9919430  81.3523210
  43.4109110  12.4777660  79.2629840  43.7184090  11.9224550  78.5465340
  42.4809810  12.6122120  79.0802830  48.9624170  28.1944950  81.5537300
  48.9751330  27.7907240  80.6859560  48.4099390  28.9692240  81.4498730
  50.2569590  24.9161170  76.6427470  50.1465920  23.9735500  76.7676890
  50.2537840  25.2776810  77.5290230  48.3609610  23.0974790  82.8819910
  48.7778400  22.8834900  82.0473370  49.0849430  23.3547580  83.4528530
  45.7989870  20.5426490  75.9989960  44.8719150  20.4763870  76.2278430
  45.9514690  21.4806620  75.8845200  45.7858950  16.8143490  72.9957120
  44.8462620  16.9757450  73.0809580  46.1042210  17.5329170  72.4493110
  52.3071710  21.4962010  82.9736150  51.4790340  21.5655100  82.4986280
  52.9022190  22.0816320  82.5051980  49.8287160  22.1046790  76.5025210
  49.2099580  21.7666340  75.8551510  49.8111610  21.4606550  77.2104400
  49.2713720  18.2831330  83.9191020  48.8584900  19.1085040  84.1731010
  48.5389670  17.6976370  83.7267380  41.4046510  21.0691230  78.7809690
  41.0003510  20.3568480  78.2855590  41.4909630  20.7244470  79.6697730
  41.8728210  24.7558790  80.9448900  41.5756500  24.1504260  80.2656680
  42.8228030  24.7936100  80.8338260  40.1175130  17.8434440  82.5608730
  40.6689720  17.9529780  81.7861980  40.6318640  18.2172040  83.2763960
  49.9613820  28.3290660  84.6072000  49.4844380  29.1362850  84.4144610
  49.2775610  27.6768990  84.7598210  40.9646640  24.4940480  87.5956700
  40.0675170  24.7180450  87.8430100  40.9899510  24.6175420  86.6468100
  48.0051860  21.3433600  73.5097960  48.4445140  20.5056030  73.3635780
  48.7180280  21.9763000  73.5962100  39.7917860  21.3653800  86.1714070
  39.6525630  22.2376600  86.5401470  38.9099220  21.0226610  86.0262010
  46.1147240  26.2829670  77.4779200  46.5543150  27.0254000  77.0634590
  46.0534130  26.5256240  78.4018160  41.5898210  27.3075500  88.3799220
  41.5613640  27.7118450  87.5127650  41.4263180  26.3785860  88.2170820
  51.5869000  12.5976410  71.8239000  51.2741660  12.6903240  72.7238070
  52.3481470  13.1757440  71.7736430  38.1051140  19.9636210  76.2816340
  37.9848740  20.6898300  75.6697610  37.7952030  19.1939120  75.8044250
  53.5413030  28.0902600  89.6763390  54.0172750  28.5685490  90.3552470
  54.1620190  28.0220090  88.9508890  35.7436510  23.1351350  82.0884980
  35.8216930  23.2700120  81.1440700  36.3578190  22.4267240  82.2813100
  36.9884140  24.8351540  78.4991160  36.5812220  24.9766130  77.6444760
  37.8797150  24.5511700  78.2962370  52.9446280  25.2815450  86.8363400
  53.0709340  25.0427330  85.9180580  52.9867660  24.4499990  87.3085480
  46.8063020  28.9843450  85.4058210  47.3207690  28.8951460  86.2080640
  45.9632100  29.3303150  85.6986120  48.7817420  29.2698790  74.8342210
  48.6218560  28.9801730  75.7324040  48.6164130  28.4938920  74.2987440
  48.4843550  26.7786350  73.3940210  47.7908710  26.7763640  72.7342490
  49.2266410  26.3545670  72.9634380  48.0493480  28.4049060  77.4688700
  48.5050430  27.6238440  77.7827320  48.3886000  29.1155880  78.0129880
  52.7970290  17.3347910  87.8013140  52.1814560  17.8427580  87.2728600
  52.4766710  16.4346240  87.7439080  35.7996030  24.1765520  84.6279440
  35.9627070  23.7070880  83.8098810  36.2648480  23.6689080  85.2928280
  40.5714800  13.3071280  79.6640010  40.1282950  14.0880820  79.3324530
  41.1299790  13.6301170  80.3710950  44.8584610  16.1739800  85.2675330
  44.3963980  16.3822820  86.0795270  44.4562720  15.3599150  84.9646000
  49.8589120  17.3948750  86.3971990  49.0082710  17.0954500  86.7181060
  49.6990910  17.6390760  85.4855810  46.9538830  18.8950500  88.4970780
  47.2792240  18.0614250  88.1573010  47.7419160  19.4179020  88.6449110
  43.6873620  12.9281980  74.5445840  43.0627800  12.9241850  75.2699150
  43.6003740  12.0612940  74.1481810  42.6090700  13.8518610  81.5229610
  42.9063030  14.7581440  81.4421630  43.1576260  13.3637390  80.9089180
  40.3629020  18.4304850  77.3921260  40.1369940  18.2142020  78.2967880
  39.5821550  18.8633310  77.0467230  47.5926780  18.4368220  75.9911910
  46.9935670  19.1604020  75.8075530  48.1406390  18.3745000  75.2088360
  42.8028230  19.3290430  88.0581530  42.7071830  18.3885160  87.9081930
  43.6460210  19.5505500  87.6629600  46.1991650  17.0731760  78.0215190
  46.5921220  17.3903960  77.2083880  46.5608500  16.1943640  78.1359710
  37.9338770  15.7404100  86.2115310  37.5402160  16.5879310  86.4188090
  37.2457170  15.1030470  86.4023950  44.5083820  15.8239070  89.2812050
  43.8182140  15.6311270  89.9158140  45.2516120  16.1073710  89.8136350
  35.2355820  13.6632560  80.2445390  34.9468870  14.2335420  80.9570370
  35.9801580  13.1837010  80.6076620  35.4226050  17.6052680  71.4548110
  35.3400720  18.5483440  71.5963100  35.0709110  17.4627590  70.5760460
  46.7846790  19.6637510  82.1165970  46.0527910  20.1724320  82.4656070
  46.3871130  18.8467490  81.8154750  43.2224180  16.3391710  80.5218460
  43.2260240  15.8981660  79.6723000  44.1175300  16.6609040  80.6290280
  39.0726560  16.2218200  79.4812670  38.7326610  16.6993430  80.2379720
  38.3103880  15.7683320  79.1213770  43.2844330  17.3403790  73.5125220
  43.4057150  17.2990270  74.4611040  42.8992840  18.2027940  73.3571950
  47.2472700  15.1171190  81.5288910  47.2645440  15.5679840  82.3730760
  46.9988280  14.2176830  81.7422350  42.2965830  19.6504930  72.9108520
  41.7282730  19.2023180  72.2844430  43.0054830  20.0097710  72.3773670
  50.6743450  12.5303370  87.3675290  50.9989220  11.7993030  87.8933270
  50.7099960  12.2117010  86.4656280  37.3735010  23.5516950  86.7875250
  36.9889800  22.9110620  87.3858210  37.6847200  24.2553070  87.3569980
  43.5232150  20.3993490  82.2683870  43.8902280  19.9252060  83.0145210
  43.3337210  21.2735060  82.6092210  36.3872640  15.1437180  78.3977340
  36.1019560  14.7792850  79.2355960  36.3251500  14.4117640  77.7840480
  41.3131520  19.4402130  84.5868080  41.0088590  20.3194110  84.8118440
  42.2677980  19.5001920  84.6225520  39.8413310  23.6463120  75.1834930
  39.0675570  23.1060740  75.0233650  40.5707940  23.1269730  74.8452690
  50.6001290  22.6428480  80.9761320  51.3200410  23.1383770  80.5857430
  50.3983110  21.9646370  80.3315190  46.0611230  14.0366440  75.1190710
  45.2475840  13.5379610  75.0436020  45.8673180  14.8764690  74.7027060
  45.9820090  22.7137540  86.8630320  45.9157400  21.7933210  86.6087910
  45.3525230  22.8112980  87.5774960  48.7759620  18.4086090  73.4152870
  49.6639240  18.7203320  73.2404210  48.7464710  17.5358340  73.0233450
  39.8850710  23.3143500  78.8213740  40.4029380  22.5111760  78.7670630
  39.4334730  23.2522640  79.6630570  44.7720210  24.5809780  74.0941040
  45.1135910  25.3252010  73.5984360  43.9432920  24.8940900  74.4565870
  37.3695250  20.2804870  85.7339440  37.0110190  20.9458720  86.3212780
  37.0749810  19.4488420  86.1052060  40.5708370  20.7389110  88.6178990
  40.2708510  20.8846290  87.7206810  41.3419610  20.1794400  88.5252380
  45.9136820  25.5358110  86.6134120  45.9281360  24.6039070  86.3953030
  45.2061920  25.6217870  87.2523890  51.0473890  19.7197930  72.8832730
  50.9637610  20.1512150  72.0329170  51.7668080  20.1796280  73.3159550
  52.1248030  22.1765450  85.9602700  51.3996220  22.7694230  85.7632090
  52.6523490  22.1688990  85.1616070  52.0761140  26.5740190  75.6114860
  51.4337300  25.9195810  75.8858580  51.6891800  26.9795280  74.8355530
  47.6547620  23.9025620  79.4586550  48.0071440  23.3053750  78.7987920
  46.7709950  23.5769850  79.6294800  43.7410900  24.6623310  76.8656960
  44.4282030  25.2092520  77.2464550  42.9543320  25.2064040  76.9006570
  35.8803300  20.2796130  72.3574040  36.7498150  20.5620930  72.6409960
  35.3893620  21.0932000  72.2422850  43.0438110  21.6669340  76.4782320
  43.5000890  22.4774590  76.7042510  42.6926320  21.3492480  77.3100810
  45.3470720  27.1775680  83.7074620  45.9912940  27.3835060  84.3848040
  45.7100160  26.4164080  83.2545470  38.9449890  12.0106990  76.9504840
  38.8164520  12.0024890  77.8989760  38.1211910  12.3490080  76.5995850
  46.6202800  25.1808030  82.4252070  47.2625030  24.4801190  82.5384240
  47.1452150  25.9606470  82.2448960  50.4658520  25.4656650  72.1491210
  50.2396100  24.7487090  72.7415850  50.0754720  25.2169090  71.3112960
  48.3940420  25.9802930  85.6288130  48.7296660  26.5669620  86.3066050
  47.4740760  25.8495640  85.8585920  36.2474550  29.4923510  72.9235670
  36.6072190  30.0912850  72.2692940  36.1066890  30.0383400  73.6970700
  35.9443820  13.7698110  86.4111540  35.2302340  13.9695030  87.0164150
  36.3638860  12.9937680  86.7826340  50.0474770  23.3828590  73.8105370
  49.7596470  23.8441280  74.5983250  50.8426940  22.9226360  74.0789590
  36.2316410  27.7578370  87.3978070  36.3407530  26.8173110  87.2573460
  35.5796970  28.0233120  86.7491800  44.2229000  26.0294260  88.7976190
  43.9025870  25.3103500  89.3421880  43.5487360  26.7049330  88.8712250
  42.2643170  26.8754710  73.7409340  42.2553270  27.6084400  73.1253850
  41.3441530  26.6286290  73.8336300  37.8649810  22.0969600  74.4856100
  37.2577760  22.8368500  74.4951400  38.3399160  22.1868960  73.6594300
  47.4382600  16.2620420  84.1612990  47.8063420  15.4415630  84.4892560
  46.5780800  16.3222310  84.5768640  50.8044630  15.2177360  74.9700550
  50.1757790  15.3223030  74.2558780  50.3096550  15.4374140  75.7594430
  45.2502770  26.9382950  72.4034530  45.3514750  26.7346940  71.4736510
  44.3504510  26.6841230  72.6082310  42.7728660  17.4963310  76.3858430
  42.0644810  17.9649650  76.8272040  43.0573140  16.8385320  77.0203620
  44.3984590  18.9160010  84.3850960  44.8969840  19.3905830  85.0502810
  44.5407540  17.9923530  84.5920990  46.8044090  14.2213970  77.8254220
  46.6811870  14.2400100  76.8763730  47.7528650  14.2692910  77.9452620
  40.9763680  15.8048390  73.7609140  41.8254210  16.2418540  73.6949330
  40.6094950  16.1168650  74.5881200  51.6051450  15.1327970  85.2279350
  51.1025050  15.8733370  85.5673160  52.4208110  15.5211970  84.9116140
  49.8973460  20.3761150  78.6740710  48.9563600  20.3911380  78.8488400
  50.2117530  19.5897110  79.1201010  39.8755100  22.0580750  72.2344670
  40.6418370  21.9462110  72.7970100  39.9529790  21.3618720  71.5821440
  38.5701860  19.4905820  72.9177560  38.6505450  18.5433330  73.0294960
  39.4621610  19.8212700  73.0238220  51.8999040  27.5470000  80.3494970
  52.0246460  28.3701170  80.8218780  52.7664600  27.3360730  80.0019120
  39.3716570  29.6401210  80.0212100  40.1079050  29.0916670  80.2920670
  39.7557490  30.5057220  79.8818090  36.2562050  25.7074780  75.8953610
  35.3301830  25.9495920  75.8859020  36.7218480  26.5349040  75.7738360
  38.3774850  28.8247280  89.2097680  39.1787580  29.1459330  89.6233080
  37.8626670  28.4642860  89.9317590  47.2139480  24.9327150  89.1573090
  46.6077640  24.9558750  88.4168840  46.9093590  24.2010190  89.6940340
  48.6439850  28.6607440  87.7682500  49.5961600  28.5765460  87.7182740
  48.4968070  29.3249150  88.4416290  51.5349050  28.0401650  73.2674410
  51.2490560  27.6266790  72.4528590  51.3368600  28.9689360  73.1474930
  36.0972660  21.3120740  88.1533730  36.6011680  20.7328020  88.7249960
  35.3580080  21.5960970  88.6910100  42.9996280  24.0334930  71.7080020
  42.8946920  23.4187280  72.4341400  42.8320500  23.5100820  70.9243030
  43.1510600  22.7191730  87.6869250  42.3856270  23.2876730  87.6023920
  43.3326560  22.4267940  86.7937480  46.2399010  23.0954960  72.3122010
  45.6909110  23.5424260  72.9564750  46.8618270  22.5904210  72.8359680
  50.2933950  24.4497060  88.2444270  51.0343420  24.7872820  87.7411730
  49.5306630  24.6189120  87.6914040  38.1295740  19.4550330  89.0483800
  38.1701080  19.1564200  89.9569030  38.9841240  19.8557940  88.8891320
  41.9074130  22.0545880  74.2087310  42.3290550  21.8885750  75.0518700
  42.0324970  21.2446110  73.7142450  40.0701550  18.0342430  87.0158290
  39.5398010  17.5433380  86.3881630  40.7389620  18.4626630  86.4816220
  44.4201770  21.0783490  71.4564410  44.9407430  20.3632510  71.0905560
  45.0670170  21.7169360  71.7564920  48.9679610  22.5011890  86.7799480
  49.3820630  22.6556970  87.6289900  48.0330610  22.6267110  86.9425260
  49.4401780  19.8408050  88.7838630  50.0222550  19.0860370  88.6959110
  49.6163550  20.3715490  88.0070110  40.5573850  15.0004800  87.0955580
  40.4630720  14.3825550  86.3706450  39.9771240  15.7271090  86.8685490
  43.3235290  13.5578040  84.1282970  42.8752590  13.5802300  83.2828520
  42.6900490  13.1597060  84.7253270  43.7294840  22.4532370  84.7495410
  44.1482950  23.2965100  84.5771650  42.8103470  22.5904410  84.5202190
  46.0658740  20.1848550  86.1333250  46.1854950  19.5889690  86.8728090
  46.9252740  20.2218240  85.7134550  48.4046640  20.7385740  84.7095760
  47.8781860  21.2628360  84.1060900  48.7477980  21.3713130  85.3405490
  40.8033030  18.1279110  71.1545470  40.6022090  17.2646470  71.5158810
  40.6325080  18.0412470  70.2167070  41.5802260  28.7585380  85.8653140
  41.0423350  29.4831440  85.5461840  41.8336220  28.2815720  85.0750480
  42.8327510  16.7269900  87.3909070  43.4227200  16.4185750  88.0786890
  42.0147750  16.2549650  87.5468970  47.6520940  16.3435710  87.6242090
  46.9636460  15.6817250  87.5592080  48.3726960  15.8973980  88.0690550
  48.2821340  12.9387340  73.6832350  48.5623630  12.0955240  74.0391770
  47.5087070  13.1710450  74.1971100  39.6015830  15.2279730  71.1423350
  39.9041730  15.2347160  70.2342500  40.3410420  14.8777590  71.6391010
  44.4364470  29.9936590  86.1239790  44.3623170  30.8971730  86.4312160
  43.5343310  29.6748490  86.0961860  42.8200760  14.1714350  72.1279550
  42.4722760  13.4938340  71.5482000  43.0213530  13.7103860  72.9422940
  38.6245960  24.5322150  71.9753150  39.0620830  25.0751820  72.6310730
  39.1093690  23.7069100  71.9849490  35.8391760  27.3211180  79.4273410
  36.1694770  26.4532240  79.1952050  36.2682760  27.5269700  80.2578370
  40.4353680  25.6520190  77.0875380  40.1349220  25.5285160  77.9879290
  40.3291170  24.7928780  76.6791110  36.3281970  28.1881770  82.1655040
  35.8912960  28.3682570  82.9979190  36.8959650  28.9456390  82.0236760
  51.9644150  27.6898770  86.4532350  51.3646140  27.7491330  85.7096270
  52.0938050  26.7503750  86.5829200  53.2045600  25.4316590  71.7902060
  52.3738560  25.4993240  72.2609290  53.3817430  26.3220710  71.4868920
  52.6602060  22.1764070  74.2936260  53.4220970  22.7460720  74.3995950
  52.6756430  21.6091270  75.0644570  36.1606400  20.7002000  78.5243920
  35.5055240  20.4313640  77.8803620  36.9984350  20.5906480  78.0745900
  53.6662030  23.0314170  79.1378190  54.0370860  22.2481490  78.7314160
  54.3063960  23.7203270  78.9595490  50.6495790  24.4150750  84.5508510
  49.8355630  24.8447910  84.8134300  51.0569990  25.0269160  83.9377560
  52.7121230  22.4698440  71.4508780  52.9870070  23.3777320  71.3228000
  52.5231970  22.4060970  72.3870770  49.1096840  15.4943290  72.7462410
  49.5281720  15.3074270  71.9059070  48.8032900  14.6422340  73.0565340
  52.6086570  20.4067430  76.4438210  52.2330170  19.6395360  76.0119500
  51.8789690  20.7890130  76.9313140  37.1982330  21.0854570  83.0647260
  37.5655370  20.9981970  83.9443280  36.6293150  20.3221120  82.9654120
  51.9986190  19.5538950  86.0777730  51.7672280  19.3251700  85.1775680
  52.2590740  20.4738500  86.0322620  36.7498330  17.9963660  86.9705680
  35.8554380  17.9630420  87.3099390  37.2895880  18.1950450  87.7356930
  50.4374260  14.7795380  88.8557430  51.3144440  14.7878780  89.2391430
  50.4495100  14.0426220  88.2449780  35.3744480  17.9100930  74.4669250
  34.4708560  18.1731130  74.2920910  35.8585100  18.1812100  73.6869210
  51.8837530  18.6324920  79.7445450  52.4075010  18.1387570  79.1135620
  52.4696950  18.7675280  80.4893020  52.0627250  18.7164790  83.2665000
  51.1129960  18.6828330  83.3809990  52.2440260  19.6264900  83.0314770
  37.9171690  16.9666470  72.3763630  38.6263390  16.5449690  71.8910910
  37.2011630  17.0341700  71.7446980  37.5645850  13.0205800  71.4166280
  38.2873980  13.5614740  71.7347500  37.8370370  12.7469220  70.5407820
  51.3737500  17.8898270  75.6837860  51.8696620  17.6569140  76.4686740
  51.1753570  17.0510110  75.2675500  37.2538040  12.2711990  81.3188900
  37.9014230  11.7209370  80.8784060  37.6739880  12.5255140  82.1404710
  52.8024660  16.5259220  78.2175540  52.6923940  16.3715260  79.1557810
  53.5632250  15.9980160  77.9750950  51.1490380  12.4653350  84.6758540
  51.7862600  13.0787490  85.0417730  51.2965270  12.5014010  83.7307770
  53.6914930  14.3567140  71.4581680  54.6164240  14.2248320  71.2499970
  53.6690720  14.4359960  72.4118130  53.7653420  15.1277800  74.0838390
  52.9704920  15.0622920  74.6131300  53.9696700  16.0628440  74.0723740
  50.7071840  29.1669350  78.0776780  51.3030910  28.8453920  77.4011200
  50.9649990  28.6941170  78.8690050  37.0070040  12.4267660  84.0614220
  36.6584860  12.8831480  84.8272400  36.6757740  11.5324790  84.1436650
  38.6134410  25.5987260  88.2267410  38.5704040  25.2280170  89.1081870
  38.7445420  26.5364830  88.3669230  42.3140440  27.1546850  83.8277130
  42.0731800  27.4221410  82.9407650  43.2543080  27.3252580  83.8827990
  44.5194860  13.6179540  87.5833640  44.4583750  14.2101370  88.3329050
  45.4595240  13.5105500  87.4383900  47.1569420  13.2749600  87.2225930
  47.7709830  13.5928890  86.5607010  47.7018980  12.7898190  87.8421790
  53.5744600  29.1741230  84.6287770  53.0802880  29.5710100  83.9114900
  52.9657890  28.5490440  85.0225050  37.6790680  11.9543860  87.3364990
  38.2273670  11.7731910  86.5731100  37.7445990  11.1637970  87.8721300
  38.4522440  28.5449510  85.3465190  37.8582760  28.4134210  86.0855230
  38.4446280  27.7087650  84.8807290  47.8977460  11.8381740  83.5495220
  47.0237300  12.1716850  83.3468150  47.7888210  11.3654920  84.3747090
  48.8049440  14.0452610  84.9336940  48.4762800  13.2304370  84.5538670
  49.7531740  14.0022420  84.8102630  51.2584050  29.8164650  81.9074510
  50.7987020  30.5680460  81.5332530  50.6296510  29.0971120  81.8489310
  38.0834670  25.9107890  84.2973230  37.3568730  25.2913180  84.2299180
  38.1443820  26.3048500  83.4271310  41.6879770  28.1252890  81.0822640
  42.2044790  27.5140250  80.5570900  42.3377150  28.6281670  81.5733650
  44.4275270  29.0161380  81.9091620  44.7153080  28.7615680  81.0324630
  44.9398490  28.4638740  82.4997190  45.6452280  12.7551580  82.4888130
  44.8624070  13.2297080  82.7684890  45.3515210  11.8506410  82.3801310
  50.1973350  13.4574680  80.5337220  50.6381440  13.4019780  79.6858820
  49.9280940  14.3732690  80.6047400  52.0611920  13.0889920  78.5446040
  52.0000320  12.1451140  78.3977060  52.8403950  13.1970010  79.0899500
  36.3664670  29.2282280  77.5069990  36.1986710  28.5952960  78.2051880
  35.4999180  29.4341680  77.1564180  36.9892690  13.0599060  75.0101850
  37.7472050  13.1727940  74.4365880  36.5269860  13.8968260  74.9645280
  43.5306500  15.1738330  78.0004160  42.7181010  14.7995220  77.6600040
  44.0348140  14.4183410  78.3025350  48.0331480  11.8380780  79.2387230
  48.6360850  12.4100990  79.7135750  47.2924470  12.4020220  79.0161130
  51.1766080  12.2402340  74.5127510  51.3716710  13.1385790  74.7794940
  50.3895950  12.0089420  75.0060460  37.9727370  27.9215510  74.9520130
  37.4474990  28.3023540  74.2482090  37.8971950  28.5466280  75.6729840
  39.3617840  13.5863110  73.5503820  39.8910600  12.7992910  73.4211770
  39.9946160  14.2654300  73.7839350  41.5555680  13.3238250  76.6049210
  40.9258420  12.6225560  76.7719340  41.0160820  14.0842380  76.3882370
  44.4947630  29.9377480  89.2759820  45.4214940  29.7021750  89.3195780
  44.4798060  30.7649480  88.7945850  52.7292690  29.4803050  76.2734070
  52.9044880  28.7940790  75.6294990  52.0314260  30.0050100  75.8810740
  41.6811240  12.6022230  89.0401700  41.3995510  13.1055830  88.2762520
  42.0630940  11.8043980  88.6743830  39.7335130  25.9862620  73.8315710
  39.1044010  26.4547720  74.3801540  39.8482960  25.1411840  74.2661900
  48.2826700  12.0175810  89.6182170  48.1692150  12.3370420  90.5133690
  49.0996440  12.4188320  89.3219450  51.0625190  29.1647340  89.1000860
  51.8550510  28.6696570  88.8926820  51.3558340  29.8437480  89.7076470
  47.1884850  20.0368280  59.9816910  47.1078900  19.1222890  59.7108620
  46.7749270  20.5335350  59.2756620  45.3202890  21.8147300  61.8626180
  44.5444990  21.3347740  62.1524750  45.9715820  21.1352950  61.6882340
  39.3368720  22.1267110  62.7401940  38.5053600  21.8715820  63.1398450
  39.9449700  22.1977880  63.4759860  49.3410320  26.2207490  60.6425310
  48.8791850  25.4494730  60.9712480  50.1535870  26.2473560  61.1477760
  39.3169980  26.1607200  62.9359960  39.6198020  25.2704940  62.7570180
  40.0613570  26.7177420  62.7082210  37.7460670  17.0869000  56.5244330
  36.8577370  17.4284970  56.4224210  38.0301860  16.8869320  55.6325160
  35.7093680  19.6874650  62.4084030  36.2809790  18.9196850  62.4087670
  35.7095220  19.9863410  61.4990640  45.5673630  28.5065500  60.2629300
  44.9485070  28.9623000  59.6923740  46.4225410  28.6616960  59.8619000
  44.7611880  24.4904490  61.8696340  44.6920160  23.5494430  61.7085470
  45.5231740  24.5805900  62.4418910  36.9518550  15.0959010  64.1952960
  36.7721390  14.1984760  64.4755720  36.5498630  15.6430880  64.8699910
  45.7917050  17.2974870  62.0965270  46.1681870  16.4246750  61.9838940
  45.6936560  17.6333570  61.2055710  39.9222060  15.6700500  57.5582710
  40.0288810  16.5704230  57.8651470  39.0114420  15.6218470  57.2677360
  49.5741170  14.7925310  59.0293610  50.3950790  14.3021880  59.0719090
  49.6075250  15.3822970  59.7825450  37.5705220  17.5919510  62.8035300
  38.2515330  17.8557880  63.4222700  37.2553270  16.7520380  63.1373310
  41.7629790  18.6386870  61.8907890  42.2708010  19.1367840  62.5312910
  42.2943030  17.8622070  61.7147250  53.8640720  16.8092060  65.5937240
  53.1592890  17.1973770  65.0752350  54.1298640  17.5042350  66.1958170
  40.0465890  13.2785430  66.1571310  40.0484330  13.7957820  65.3517210
  39.2170200  12.8015610  66.1341240  46.4336980  23.3904740  57.6561210
  45.8154250  23.8554190  57.0923930  46.9460230  24.0832220  58.0730720
  41.2968740  22.9180610  64.3344810  40.9638120  23.5449530  64.9765880
  41.4735420  23.4442490  63.5546480  49.8102650  16.7325690  61.8021150
  49.1058220  17.0210580  62.3824260  50.1714810  17.5425800  61.4420710
  39.7281220  14.9895390  64.1641760  40.0698030  15.8337440  63.8695630
  38.7897030  15.1379130  64.2807100  40.5087840  24.8861410  66.1493990
  41.1261840  25.5612490  65.8678440  39.6480960  25.2949390  66.0581490
  51.4265430  26.3500820  64.0648630  50.7428950  27.0199930  64.0565300
  51.9659720  26.5481470  63.2993490  52.8789570  16.1780480  62.1930360
  51.9314480  16.2119460  62.3245790  53.2039560  16.9919430  62.5779720
  43.4109110  12.4777660  60.4886350  43.7184090  11.9224550  59.7721850
  42.4809810  12.6122120  60.3059340  48.9624170  28.1944950  62.7793810
  48.9751330  27.7907240  61.9116070  48.4099390  28.9692240  62.6755240
  50.2569590  24.9161170  57.8683980  50.1465920  23.9735500  57.9933400
  50.2537840  25.2776810  58.7546740  48.3609610  23.0974790  64.1076420
  48.7778400  22.8834900  63.2729880  49.0849430  23.3547580  64.6785040
  45.7989870  20.5426490  57.2246470  44.8719150  20.4763870  57.4534940
  45.9514690  21.4806620  57.1101710  45.7858950  16.8143490  54.2213630
  44.8462620  16.9757450  54.3066090  46.1042210  17.5329170  53.6749620
  52.3071710  21.4962010  64.1992660  51.4790340  21.5655100  63.7242790
  52.9022190  22.0816320  63.7308490  49.8287160  22.1046790  57.7281720
  49.2099580  21.7666340  57.0808020  49.8111610  21.4606550  58.4360910
  49.2713720  18.2831330  65.1447530  48.8584900  19.1085040  65.3987520
  48.5389670  17.6976370  64.9523890  41.4046510  21.0691230  60.0066200
  41.0003510  20.3568480  59.5112100  41.4909630  20.7244470  60.8954240
  41.8728210  24.7558790  62.1705410  41.5756500  24.1504260  61.4913190
  42.8228030  24.7936100  62.0594770  40.1175130  17.8434440  63.7865240
  40.6689720  17.9529780  63.0118490  40.6318640  18.2172040  64.5020470
  49.9613820  28.3290660  65.8328510  49.4844380  29.1362850  65.6401120
  49.2775610  27.6768990  65.9854720  40.9646640  24.4940480  68.8213210
  40.0675170  24.7180450  69.0686610  40.9899510  24.6175420  67.8724610
  48.0051860  21.3433600  54.7354470  48.4445140  20.5056030  54.5892290
  48.7180280  21.9763000  54.8218610  39.7917860  21.3653800  67.3970580
  39.6525630  22.2376600  67.7657980  38.9099220  21.0226610  67.2518520
  46.1147240  26.2829670  58.7035710  46.5543150  27.0254000  58.2891100
  46.0534130  26.5256240  59.6274670  41.5898210  27.3075500  69.6055730
  41.5613640  27.7118450  68.7384160  41.4263180  26.3785860  69.4427330
  51.5869000  12.5976410  53.0495510  51.2741660  12.6903240  53.9494580
  52.3481470  13.1757440  52.9992940  53.5413030  28.0902600  70.9019900
  54.0172750  28.5685490  71.5808980  54.1620190  28.0220090  70.1765400
  35.7436510  23.1351350  63.3141490  35.8216930  23.2700120  62.3697210
  36.3578190  22.4267240  63.5069610  52.9446280  25.2815450  68.0619910
  53.0709340  25.0427330  67.1437090  52.9867660  24.4499990  68.5341990
  46.8063020  28.9843450  66.6314720  47.3207690  28.8951460  67.4337150
  45.9632100  29.3303150  66.9242630  48.7817420  29.2698790  56.0598720
  48.6218560  28.9801730  56.9580550  48.6164130  28.4938920  55.5243950
  41.2605800  29.0497320  57.8370340  41.0848280  28.1332860  57.6238140
  40.4061540  29.4084610  58.0768140  48.4843550  26.7786350  54.6196720
  47.7908710  26.7763640  53.9599000  49.2266410  26.3545670  54.1890890
  48.0493480  28.4049060  58.6945210  48.5050430  27.6238440  59.0083830
  48.3886000  29.1155880  59.2386390  52.7970290  17.3347910  69.0269650
  52.1814560  17.8427580  68.4985110  52.4766710  16.4346240  68.9695590
  35.7996030  24.1765520  65.8535950  35.9627070  23.7070880  65.0355320
  36.2648480  23.6689080  66.5184790  40.5714800  13.3071280  60.8896520
  40.1282950  14.0880820  60.5581040  41.1299790  13.6301170  61.5967460
  44.8584610  16.1739800  66.4931840  44.3963980  16.3822820  67.3051780
  44.4562720  15.3599150  66.1902510  49.8589120  17.3948750  67.6228500
  49.0082710  17.0954500  67.9437570  49.6990910  17.6390760  66.7112320
  46.9538830  18.8950500  69.7227290  47.2792240  18.0614250  69.3829520
  47.7419160  19.4179020  69.8705620  43.6873620  12.9281980  55.7702350
  43.0627800  12.9241850  56.4955660  43.6003740  12.0612940  55.3738320
  42.6090700  13.8518610  62.7486120  42.9063030  14.7581440  62.6678140
  43.1576260  13.3637390  62.1345690  40.3629020  18.4304850  58.6177770
  40.1369940  18.2142020  59.5224390  39.5821550  18.8633310  58.2723740
  47.5926780  18.4368220  57.2168420  46.9935670  19.1604020  57.0332040
  48.1406390  18.3745000  56.4344870  42.8028230  19.3290430  69.2838040
  42.7071830  18.3885160  69.1338440  43.6460210  19.5505500  68.8886110
  46.1991650  17.0731760  59.2471700  46.5921220  17.3903960  58.4340390
  46.5608500  16.1943640  59.3616220  37.9338770  15.7404100  67.4371820
  37.5402160  16.5879310  67.6444600  37.2457170  15.1030470  67.6280460
  44.5083820  15.8239070  70.5068560  43.8182140  15.6311270  71.1414650
  45.2516120  16.1073710  71.0392860  35.2355820  13.6632560  61.4701900
  34.9468870  14.2335420  62.1826880  35.9801580  13.1837010  61.8333130
  35.4226050  17.6052680  52.6804620  35.3400720  18.5483440  52.8219610
  35.0709110  17.4627590  51.8016970  46.7846790  19.6637510  63.3422480
  46.0527910  20.1724320  63.6912580  46.3871130  18.8467490  63.0411260
  43.2224180  16.3391710  61.7474970  43.2260240  15.8981660  60.8979510
  44.1175300  16.6609040  61.8546790  39.0726560  16.2218200  60.7069180
  38.7326610  16.6993430  61.4636230  38.3103880  15.7683320  60.3470280
  43.2844330  17.3403790  54.7381730  43.4057150  17.2990270  55.6867550
  42.8992840  18.2027940  54.5828460  47.2472700  15.1171190  62.7545420
  47.2645440  15.5679840  63.5987270  46.9988280  14.2176830  62.9678860
  42.2965830  19.6504930  54.1365030  41.7282730  19.2023180  53.5100940
  43.0054830  20.0097710  53.6030180  50.6743450  12.5303370  68.5931800
  50.9989220  11.7993030  69.1189780  50.7099960  12.2117010  67.6912790
  37.3735010  23.5516950  68.0131760  36.9889800  22.9110620  68.6114720
  37.6847200  24.2553070  68.5826490  43.5232150  20.3993490  63.4940380
  43.8902280  19.9252060  64.2401720  43.3337210  21.2735060  63.8348720
  36.3872640  15.1437180  59.6233850  36.1019560  14.7792850  60.4612470
  36.3251500  14.4117640  59.0096990  41.3131520  19.4402130  65.8124590
  41.0088590  20.3194110  66.0374950  42.2677980  19.5001920  65.8482030
  39.8413310  23.6463120  56.4091440  39.0675570  23.1060740  56.2490160
  40.5707940  23.1269730  56.0709200  50.6001290  22.6428480  62.2017830
  51.3200410  23.1383770  61.8113940  50.3983110  21.9646370  61.5571700
  46.0611230  14.0366440  56.3447220  45.2475840  13.5379610  56.2692530
  45.8673180  14.8764690  55.9283570  45.9820090  22.7137540  68.0886830
  45.9157400  21.7933210  67.8344420  45.3525230  22.8112980  68.8031470
  48.7759620  18.4086090  54.6409380  49.6639240  18.7203320  54.4660720
  48.7464710  17.5358340  54.2489960  39.8850710  23.3143500  60.0470250
  40.4029380  22.5111760  59.9927140  39.4334730  23.2522640  60.8887080
  44.7720210  24.5809780  55.3197550  45.1135910  25.3252010  54.8240870
  43.9432920  24.8940900  55.6822380  37.3695250  20.2804870  66.9595950
  37.0110190  20.9458720  67.5469290  37.0749810  19.4488420  67.3308570
  40.5708370  20.7389110  69.8435500  40.2708510  20.8846290  68.9463320
  41.3419610  20.1794400  69.7508890  45.9136820  25.5358110  67.8390630
  45.9281360  24.6039070  67.6209540  45.2061920  25.6217870  68.4780400
  51.0473890  19.7197930  54.1089240  50.9637610  20.1512150  53.2585680
  51.7668080  20.1796280  54.5416060  52.1248030  22.1765450  67.1859210
  51.3996220  22.7694230  66.9888600  52.6523490  22.1688990  66.3872580
  52.0761140  26.5740190  56.8371370  51.4337300  25.9195810  57.1115090
  51.6891800  26.9795280  56.0612040  47.6547620  23.9025620  60.6843060
  48.0071440  23.3053750  60.0244430  46.7709950  23.5769850  60.8551310
  43.7410900  24.6623310  58.0913470  44.4282030  25.2092520  58.4721060
  42.9543320  25.2064040  58.1263080  35.8803300  20.2796130  53.5830550
  36.7498150  20.5620930  53.8666470  35.3893620  21.0932000  53.4679360
  43.0438110  21.6669340  57.7038830  43.5000890  22.4774590  57.9299020
  42.6926320  21.3492480  58.5357320  45.3470720  27.1775680  64.9331130
  45.9912940  27.3835060  65.6104550  45.7100160  26.4164080  64.4801980
  38.9449890  12.0106990  58.1761350  38.8164520  12.0024890  59.1246270
  38.1211910  12.3490080  57.8252360  46.6202800  25.1808030  63.6508580
  47.2625030  24.4801190  63.7640750  47.1452150  25.9606470  63.4705470
  50.4658520  25.4656650  53.3747720  50.2396100  24.7487090  53.9672360
  50.0754720  25.2169090  52.5369470  48.3940420  25.9802930  66.8544640
  48.7296660  26.5669620  67.5322560  47.4740760  25.8495640  67.0842430
  36.2474550  29.4923510  54.1492180  36.6072190  30.0912850  53.4949450
  36.1066890  30.0383400  54.9227210  35.9443820  13.7698110  67.6368050
  35.2302340  13.9695030  68.2420660  36.3638860  12.9937680  68.0082850
  50.0474770  23.3828590  55.0361880  49.7596470  23.8441280  55.8239760
  50.8426940  22.9226360  55.3046100  36.2316410  27.7578370  68.6234580
  36.3407530  26.8173110  68.4829970  35.5796970  28.0233120  67.9748310
  44.2229000  26.0294260  70.0232700  43.9025870  25.3103500  70.5678390
  43.5487360  26.7049330  70.0968760  42.2643170  26.8754710  54.9665850
  42.2553270  27.6084400  54.3510360  41.3441530  26.6286290  55.0592810
  47.4382600  16.2620420  65.3869500  47.8063420  15.4415630  65.7149070
  46.5780800  16.3222310  65.8025150  50.8044630  15.2177360  56.1957060
  50.1757790  15.3223030  55.4815290  50.3096550  15.4374140  56.9850940
  45.2502770  26.9382950  53.6291040  45.3514750  26.7346940  52.6993020
  44.3504510  26.6841230  53.8338820  42.7728660  17.4963310  57.6114940
  42.0644810  17.9649650  58.0528550  43.0573140  16.8385320  58.2460130
  44.3984590  18.9160010  65.6107470  44.8969840  19.3905830  66.2759320
  44.5407540  17.9923530  65.8177500  46.8044090  14.2213970  59.0510730
  46.6811870  14.2400100  58.1020240  47.7528650  14.2692910  59.1709130
  43.8920880  29.4569270  58.3238710  44.1462380  29.4190660  57.4018080
  42.9433360  29.3302600  58.3166960  40.9763680  15.8048390  54.9865650
  41.8254210  16.2418540  54.9205840  40.6094950  16.1168650  55.8137710
  51.6051450  15.1327970  66.4535860  51.1025050  15.8733370  66.7929670
  52.4208110  15.5211970  66.1372650  49.8973460  20.3761150  59.8997220
  48.9563600  20.3911380  60.0744910  50.2117530  19.5897110  60.3457520
  39.8755100  22.0580750  53.4601180  40.6418370  21.9462110  54.0226610
  39.9529790  21.3618720  52.8077950  38.5701860  19.4905820  54.1434070
  38.6505450  18.5433330  54.2551470  39.4621610  19.8212700  54.2494730
  51.8999040  27.5470000  61.5751480  52.0246460  28.3701170  62.0475290
  52.7664600  27.3360730  61.2275630  39.3716570  29.6401210  61.2468610
  40.1079050  29.0916670  61.5177180  39.7557490  30.5057220  61.1074600
  38.3774850  28.8247280  70.4354190  39.1787580  29.1459330  70.8489590
  37.8626670  28.4642860  71.1574100  42.4818880  28.8131520  53.0694180
  43.2747490  29.1020350  52.6175970  41.9623230  28.3823690  52.3906660
  47.2139480  24.9327150  70.3829600  46.6077640  24.9558750  69.6425350
  46.9093590  24.2010190  70.9196850  48.6439850  28.6607440  68.9939010
  49.5961600  28.5765460  68.9439250  48.4968070  29.3249150  69.6672800
  51.5349050  28.0401650  54.4930920  51.2490560  27.6266790  53.6785100
  51.3368600  28.9689360  54.3731440  36.0972660  21.3120740  69.3790240
  36.6011680  20.7328020  69.9506470  35.3580080  21.5960970  69.9166610
  42.9996280  24.0334930  52.9336530  42.8946920  23.4187280  53.6597910
  42.8320500  23.5100820  52.1499540  43.1510600  22.7191730  68.9125760
  42.3856270  23.2876730  68.8280430  43.3326560  22.4267940  68.0193990
  46.2399010  23.0954960  53.5378520  45.6909110  23.5424260  54.1821260
  46.8618270  22.5904210  54.0616190  50.2933950  24.4497060  69.4700780
  51.0343420  24.7872820  68.9668240  49.5306630  24.6189120  68.9170550
  38.1295740  19.4550330  70.2740310  38.1701080  19.1564200  71.1825540
  38.9841240  19.8557940  70.1147830  41.9074130  22.0545880  55.4343820
  42.3290550  21.8885750  56.2775210  42.0324970  21.2446110  54.9398960
  40.0701550  18.0342430  68.2414800  39.5398010  17.5433380  67.6138140
  40.7389620  18.4626630  67.7072730  44.4201770  21.0783490  52.6820920
  44.9407430  20.3632510  52.3162070  45.0670170  21.7169360  52.9821430
  48.9679610  22.5011890  68.0055990  49.3820630  22.6556970  68.8546410
  48.0330610  22.6267110  68.1681770  49.4401780  19.8408050  70.0095140
  50.0222550  19.0860370  69.9215620  49.6163550  20.3715490  69.2326620
  40.5573850  15.0004800  68.3212090  40.4630720  14.3825550  67.5962960
  39.9771240  15.7271090  68.0942000  43.3235290  13.5578040  65.3539480
  42.8752590  13.5802300  64.5085030  42.6900490  13.1597060  65.9509780
  43.7294840  22.4532370  65.9751920  44.1482950  23.2965100  65.8028160
  42.8103470  22.5904410  65.7458700  46.0658740  20.1848550  67.3589760
  46.1854950  19.5889690  68.0984600  46.9252740  20.2218240  66.9391060
  48.4046640  20.7385740  65.9352270  47.8781860  21.2628360  65.3317410
  48.7477980  21.3713130  66.5662000  40.8033030  18.1279110  52.3801980
  40.6022090  17.2646470  52.7415320  40.6325080  18.0412470  51.4423580
  41.5802260  28.7585380  67.0909650  41.0423350  29.4831440  66.7718350
  41.8336220  28.2815720  66.3006990  42.8327510  16.7269900  68.6165580
  43.4227200  16.4185750  69.3043400  42.0147750  16.2549650  68.7725480
  47.6520940  16.3435710  68.8498600  46.9636460  15.6817250  68.7848590
  48.3726960  15.8973980  69.2947060  48.2821340  12.9387340  54.9088860
  48.5623630  12.0955240  55.2648280  47.5087070  13.1710450  55.4227610
  39.6015830  15.2279730  52.3679860  39.9041730  15.2347160  51.4599010
  40.3410420  14.8777590  52.8647520  44.4364470  29.9936590  67.3496300
  44.3623170  30.8971730  67.6568670  43.5343310  29.6748490  67.3218370
  42.8200760  14.1714350  53.3536060  42.4722760  13.4938340  52.7738510
  43.0213530  13.7103860  54.1679450  44.9849800  29.1595100  54.9722660
  45.8800590  29.4980070  54.9941420  45.0167430  28.4374510  54.3446940
  38.6245960  24.5322150  53.2009660  39.0620830  25.0751820  53.8567240
  39.1093690  23.7069100  53.2106000  35.8391760  27.3211180  60.6529920
  36.1694770  26.4532240  60.4208560  36.2682760  27.5269700  61.4834880
  40.4353680  25.6520190  58.3131890  40.1349220  25.5285160  59.2135800
  40.3291170  24.7928780  57.9047620  36.3281970  28.1881770  63.3911550
  35.8912960  28.3682570  64.2235700  36.8959650  28.9456390  63.2493270
  51.9644150  27.6898770  67.6788860  51.3646140  27.7491330  66.9352780
  52.0938050  26.7503750  67.8085710  53.2045600  25.4316590  53.0158570
  52.3738560  25.4993240  53.4865800  53.3817430  26.3220710  52.7125430
  52.6602060  22.1764070  55.5192770  53.4220970  22.7460720  55.6252460
  52.6756430  21.6091270  56.2901080  53.6662030  23.0314170  60.3634700
  54.0370860  22.2481490  59.9570670  54.3063960  23.7203270  60.1852000
  50.6495790  24.4150750  65.7765020  49.8355630  24.8447910  66.0390810
  51.0569990  25.0269160  65.1634070  52.7121230  22.4698440  52.6765290
  52.9870070  23.3777320  52.5484510  52.5231970  22.4060970  53.6127280
  49.1096840  15.4943290  53.9718920  49.5281720  15.3074270  53.1315580
  48.8032900  14.6422340  54.2821850  52.6086570  20.4067430  57.6694720
  52.2330170  19.6395360  57.2376010  51.8789690  20.7890130  58.1569650
  37.1982330  21.0854570  64.2903770  37.5655370  20.9981970  65.1699790
  36.6293150  20.3221120  64.1910630  51.9986190  19.5538950  67.3034240
  51.7672280  19.3251700  66.4032190  52.2590740  20.4738500  67.2579130
  36.7498330  17.9963660  68.1962190  35.8554380  17.9630420  68.5355900
  37.2895880  18.1950450  68.9613440  50.4374260  14.7795380  70.0813940
  51.3144440  14.7878780  70.4647940  50.4495100  14.0426220  69.4706290
  35.3744480  17.9100930  55.6925760  34.4708560  18.1731130  55.5177420
  35.8585100  18.1812100  54.9125720  51.8837530  18.6324920  60.9701960
  52.4075010  18.1387570  60.3392130  52.4696950  18.7675280  61.7149530
  52.0627250  18.7164790  64.4921510  51.1129960  18.6828330  64.6066500
  52.2440260  19.6264900  64.2571280  37.9171690  16.9666470  53.6020140
  38.6263390  16.5449690  53.1167420  37.2011630  17.0341700  52.9703490
  37.5645850  13.0205800  52.6422790  38.2873980  13.5614740  52.9604010
  37.8370370  12.7469220  51.7664330  51.3737500  17.8898270  56.9094370
  51.8696620  17.6569140  57.6943250  51.1753570  17.0510110  56.4932010
  37.2538040  12.2711990  62.5445410  37.9014230  11.7209370  62.1040570
  37.6739880  12.5255140  63.3661220  52.8024660  16.5259220  59.4432050
  52.6923940  16.3715260  60.3814320  53.5632250  15.9980160  59.2007460
  51.1490380  12.4653350  65.9015050  51.7862600  13.0787490  66.2674240
  51.2965270  12.5014010  64.9564280  53.6914930  14.3567140  52.6838190
  54.6164240  14.2248320  52.4756480  53.6690720  14.4359960  53.6374640
  53.7653420  15.1277800  55.3094900  52.9704920  15.0622920  55.8387810
  53.9696700  16.0628440  55.2980250  50.7071840  29.1669350  59.3033290
  51.3030910  28.8453920  58.6267710  50.9649990  28.6941170  60.0946560
  37.0070040  12.4267660  65.2870730  36.6584860  12.8831480  66.0528910
  36.6757740  11.5324790  65.3693160  38.6134410  25.5987260  69.4523920
  38.5704040  25.2280170  70.3338380  38.7445420  26.5364830  69.5925740
  42.3140440  27.1546850  65.0533640  42.0731800  27.4221410  64.1664160
  43.2543080  27.3252580  65.1084500  44.5194860  13.6179540  68.8090150
  44.4583750  14.2101370  69.5585560  45.4595240  13.5105500  68.6640410
  47.1569420  13.2749600  68.4482440  47.7709830  13.5928890  67.7863520
  47.7018980  12.7898190  69.0678300  53.5744600  29.1741230  65.8544280
  53.0802880  29.5710100  65.1371410  52.9657890  28.5490440  66.2481560
  37.6790680  11.9543860  68.5621500  38.2273670  11.7731910  67.7987610
  37.7445990  11.1637970  69.0977810  38.4522440  28.5449510  66.5721700
  37.8582760  28.4134210  67.3111740  38.4446280  27.7087650  66.1063800
  47.8977460  11.8381740  64.7751730  47.0237300  12.1716850  64.5724660
  47.7888210  11.3654920  65.6003600  48.8049440  14.0452610  66.1593450
  48.4762800  13.2304370  65.7795180  49.7531740  14.0022420  66.0359140
  51.2584050  29.8164650  63.1331020  50.7987020  30.5680460  62.7589040
  50.6296510  29.0971120  63.0745820  38.0834670  25.9107890  65.5229740
  37.3568730  25.2913180  65.4555690  38.1443820  26.3048500  64.6527820
  41.6879770  28.1252890  62.3079150  42.2044790  27.5140250  61.7827410
  42.3377150  28.6281670  62.7990160  44.4275270  29.0161380  63.1348130
  44.7153080  28.7615680  62.2581140  44.9398490  28.4638740  63.7253700
  45.6452280  12.7551580  63.7144640  44.8624070  13.2297080  63.9941400
  45.3515210  11.8506410  63.6057820  50.1973350  13.4574680  61.7593730
  50.6381440  13.4019780  60.9115330  49.9280940  14.3732690  61.8303910
  52.0611920  13.0889920  59.7702550  52.0000320  12.1451140  59.6233570
  52.8403950  13.1970010  60.3156010  36.3664670  29.2282280  58.7326500
  36.1986710  28.5952960  59.4308390  35.4999180  29.4341680  58.3820690
  36.9892690  13.0599060  56.2358360  37.7472050  13.1727940  55.6622390
  36.5269860  13.8968260  56.1901790  43.5306500  15.1738330  59.2260670
  42.7181010  14.7995220  58.8856550  44.0348140  14.4183410  59.5281860
  48.0331480  11.8380780  60.4643740  48.6360850  12.4100990  60.9392260
  47.2924470  12.4020220  60.2417640  51.1766080  12.2402340  55.7384020
  51.3716710  13.1385790  56.0051450  50.3895950  12.0089420  56.2316970
  37.9727370  27.9215510  56.1776640  37.4474990  28.3023540  55.4738600
  37.8971950  28.5466280  56.8986350  39.3617840  13.5863110  54.7760330
  39.8910600  12.7992910  54.6468280  39.9946160  14.2654300  55.0095860
  41.5555680  13.3238250  57.8305720  40.9258420  12.6225560  57.9975850
  41.0160820  14.0842380  57.6138880  44.4947630  29.9377480  70.5016330
  45.4214940  29.7021750  70.5452290  44.4798060  30.7649480  70.0202360
  52.7292690  29.4803050  57.4990580  52.9044880  28.7940790  56.8551500
  52.0314260  30.0050100  57.1067250  41.6811240  12.6022230  70.2658210
  41.3995510  13.1055830  69.5019030  42.0630940  11.8043980  69.9000340
  40.5720340  29.8697890  55.0525890  41.3039160  29.5857170  54.5049780
  40.8314010  29.6311170  55.9425270  39.7335130  25.9862620  55.0572220
  39.1044010  26.4547720  55.6058050  39.8482960  25.1411840  55.4918410
  48.2826700  12.0175810  70.8438680  48.1692150  12.3370420  71.7390200
  49.0996440  12.4188320  70.5475960  51.0625190  29.1647340  70.3257370
  51.8550510  28.6696570  70.1183330  51.3558340  29.8437480  70.9332980
  47.1884850  20.0368280  41.2073420  47.1078900  19.1222890  40.9365130
  46.7749270  20.5335350  40.5013130  45.3202890  21.8147300  43.0882690
  44.5444990  21.3347740  43.3781260  45.9715820  21.1352950  42.9138850
  39.3368720  22.1267110  43.9658450  38.5053600  21.8715820  44.3654960
  39.9449700  22.1977880  44.7016370  49.3410320  26.2207490  41.8681820
  48.8791850  25.4494730  42.1968990  50.1535870  26.2473560  42.3734270
  39.3169980  26.1607200  44.1616470  39.6198020  25.2704940  43.9826690
  40.0613570  26.7177420  43.9338720  37.7460670  17.0869000  37.7500840
  36.8577370  17.4284970  37.6480720  38.0301860  16.8869320  36.8581670
  35.7093680  19.6874650  43.6340540  36.2809790  18.9196850  43.6344180
  35.7095220  19.9863410  42.7247150  45.5673630  28.5065500  41.4885810
  44.9485070  28.9623000  40.9180250  46.4225410  28.6616960  41.0875510
  44.7611880  24.4904490  43.0952850  44.6920160  23.5494430  42.9341980
  45.5231740  24.5805900  43.6675420  36.9518550  15.0959010  45.4209470
  36.7721390  14.1984760  45.7012230  36.5498630  15.6430880  46.0956420
  45.7917050  17.2974870  43.3221780  46.1681870  16.4246750  43.2095450
  45.6936560  17.6333570  42.4312220  39.9222060  15.6700500  38.7839220
  40.0288810  16.5704230  39.0907980  39.0114420  15.6218470  38.4933870
  49.5741170  14.7925310  40.2550120  50.3950790  14.3021880  40.2975600
  49.6075250  15.3822970  41.0081960  37.5705220  17.5919510  44.0291810
  38.2515330  17.8557880  44.6479210  37.2553270  16.7520380  44.3629820
  41.7629790  18.6386870  43.1164400  42.2708010  19.1367840  43.7569420
  42.2943030  17.8622070  42.9403760  53.8640720  16.8092060  46.8193750
  53.1592890  17.1973770  46.3008860  54.1298640  17.5042350  47.4214680
  40.0465890  13.2785430  47.3827820  40.0484330  13.7957820  46.5773720
  39.2170200  12.8015610  47.3597750  46.4336980  23.3904740  38.8817720
  45.8154250  23.8554190  38.3180440  46.9460230  24.0832220  39.2987230
  41.2968740  22.9180610  45.5601320  40.9638120  23.5449530  46.2022390
  41.4735420  23.4442490  44.7802990  49.8102650  16.7325690  43.0277660
  49.1058220  17.0210580  43.6080770  50.1714810  17.5425800  42.6677220
  39.7281220  14.9895390  45.3898270  40.0698030  15.8337440  45.0952140
  38.7897030  15.1379130  45.5063610  40.5087840  24.8861410  47.3750500
  41.1261840  25.5612490  47.0934950  39.6480960  25.2949390  47.2838000
  35.8020180  24.0761270  36.2557350  35.4248160  24.5648370  35.5242250
  36.0593250  24.7486550  36.8863880  51.4265430  26.3500820  45.2905140
  50.7428950  27.0199930  45.2821810  51.9659720  26.5481470  44.5250000
  52.8789570  16.1780480  43.4186870  51.9314480  16.2119460  43.5502300
  53.2039560  16.9919430  43.8036230  43.4109110  12.4777660  41.7142860
  43.7184090  11.9224550  40.9978360  42.4809810  12.6122120  41.5315850
  48.9624170  28.1944950  44.0050320  48.9751330  27.7907240  43.1372580
  48.4099390  28.9692240  43.9011750  50.2569590  24.9161170  39.0940490
  50.1465920  23.9735500  39.2189910  50.2537840  25.2776810  39.9803250
  48.3609610  23.0974790  45.3332930  48.7778400  22.8834900  44.4986390
  49.0849430  23.3547580  45.9041550  45.7989870  20.5426490  38.4502980
  44.8719150  20.4763870  38.6791450  45.9514690  21.4806620  38.3358220
  45.7858950  16.8143490  35.4470140  44.8462620  16.9757450  35.5322600
  46.1042210  17.5329170  34.9006130  52.3071710  21.4962010  45.4249170
  51.4790340  21.5655100  44.9499300  52.9022190  22.0816320  44.9565000
  49.8287160  22.1046790  38.9538230  49.2099580  21.7666340  38.3064530
  49.8111610  21.4606550  39.6617420  49.2713720  18.2831330  46.3704040
  48.8584900  19.1085040  46.6244030  48.5389670  17.6976370  46.1780400
  41.4046510  21.0691230  41.2322710  41.0003510  20.3568480  40.7368610
  41.4909630  20.7244470  42.1210750  41.8728210  24.7558790  43.3961920
  41.5756500  24.1504260  42.7169700  42.8228030  24.7936100  43.2851280
  40.1175130  17.8434440  45.0121750  40.6689720  17.9529780  44.2375000
  40.6318640  18.2172040  45.7276980  49.9613820  28.3290660  47.0585020
  49.4844380  29.1362850  46.8657630  49.2775610  27.6768990  47.2111230
  40.9646640  24.4940480  50.0469720  40.0675170  24.7180450  50.2943120
  40.9899510  24.6175420  49.0981120  48.0051860  21.3433600  35.9610980
  48.4445140  20.5056030  35.8148800  48.7180280  21.9763000  36.0475120
  39.7917860  21.3653800  48.6227090  39.6525630  22.2376600  48.9914490
  38.9099220  21.0226610  48.4775030  46.1147240  26.2829670  39.9292220
  46.5543150  27.0254000  39.5147610  46.0534130  26.5256240  40.8531180
  41.5898210  27.3075500  50.8312240  41.5613640  27.7118450  49.9640670
  41.4263180  26.3785860  50.6683840  51.5869000  12.5976410  34.2752020
  51.2741660  12.6903240  35.1751090  52.3481470  13.1757440  34.2249450
  38.1051140  19.9636210  38.7329360  37.9848740  20.6898300  38.1210630
  37.7952030  19.1939120  38.2557270  53.5413030  28.0902600  52.1276410
  54.0172750  28.5685490  52.8065490  54.1620190  28.0220090  51.4021910
  35.7436510  23.1351350  44.5398000  35.8216930  23.2700120  43.5953720
  36.3578190  22.4267240  44.7326120  36.9884140  24.8351540  40.9504180
  36.5812220  24.9766130  40.0957780  37.8797150  24.5511700  40.7475390
  52.9446280  25.2815450  49.2876420  53.0709340  25.0427330  48.3693600
  52.9867660  24.4499990  49.7598500  46.8063020  28.9843450  47.8571230
  47.3207690  28.8951460  48.6593660  45.9632100  29.3303150  48.1499140
  48.7817420  29.2698790  37.2855230  48.6218560  28.9801730  38.1837060
  48.6164130  28.4938920  36.7500460  41.2605800  29.0497320  39.0626850
  41.0848280  28.1332860  38.8494650  40.4061540  29.4084610  39.3024650
  48.4843550  26.7786350  35.8453230  47.7908710  26.7763640  35.1855510
  49.2266410  26.3545670  35.4147400  48.0493480  28.4049060  39.9201720
  48.5050430  27.6238440  40.2340340  48.3886000  29.1155880  40.4642900
  52.7970290  17.3347910  50.2526160  52.1814560  17.8427580  49.7241620
  52.4766710  16.4346240  50.1952100  35.7996030  24.1765520  47.0792460
  35.9627070  23.7070880  46.2611830  36.2648480  23.6689080  47.7441300
  40.5714800  13.3071280  42.1153030  40.1282950  14.0880820  41.7837550
  41.1299790  13.6301170  42.8223970  44.8584610  16.1739800  47.7188350
  44.3963980  16.3822820  48.5308290  44.4562720  15.3599150  47.4159020
  49.8589120  17.3948750  48.8485010  49.0082710  17.0954500  49.1694080
  49.6990910  17.6390760  47.9368830  46.9538830  18.8950500  50.9483800
  47.2792240  18.0614250  50.6086030  47.7419160  19.4179020  51.0962130
  43.6873620  12.9281980  36.9958860  43.0627800  12.9241850  37.7212170
  43.6003740  12.0612940  36.5994830  42.6090700  13.8518610  43.9742630
  42.9063030  14.7581440  43.8934650  43.1576260  13.3637390  43.3602200
  40.3629020  18.4304850  39.8434280  40.1369940  18.2142020  40.7480900
  39.5821550  18.8633310  39.4980250  47.5926780  18.4368220  38.4424930
  46.9935670  19.1604020  38.2588550  48.1406390  18.3745000  37.6601380
  42.8028230  19.3290430  50.5094550  42.7071830  18.3885160  50.3594950
  43.6460210  19.5505500  50.1142620  46.1991650  17.0731760  40.4728210
  46.5921220  17.3903960  39.6596900  46.5608500  16.1943640  40.5872730
  37.9338770  15.7404100  48.6628330  37.5402160  16.5879310  48.8701110
  37.2457170  15.1030470  48.8536970  44.5083820  15.8239070  51.7325070
  43.8182140  15.6311270  52.3671160  45.2516120  16.1073710  52.2649370
  35.2355820  13.6632560  42.6958410  34.9468870  14.2335420  43.4083390
  35.9801580  13.1837010  43.0589640  35.4226050  17.6052680  33.9061130
  35.3400720  18.5483440  34.0476120  35.0709110  17.4627590  33.0273480
  46.7846790  19.6637510  44.5678990  46.0527910  20.1724320  44.9169090
  46.3871130  18.8467490  44.2667770  43.2224180  16.3391710  42.9731480
  43.2260240  15.8981660  42.1236020  44.1175300  16.6609040  43.0803300
  39.0726560  16.2218200  41.9325690  38.7326610  16.6993430  42.6892740
  38.3103880  15.7683320  41.5726790  43.2844330  17.3403790  35.9638240
  43.4057150  17.2990270  36.9124060  42.8992840  18.2027940  35.8084970
  47.2472700  15.1171190  43.9801930  47.2645440  15.5679840  44.8243780
  46.9988280  14.2176830  44.1935370  42.2965830  19.6504930  35.3621540
  41.7282730  19.2023180  34.7357450  43.0054830  20.0097710  34.8286690
  50.6743450  12.5303370  49.8188310  50.9989220  11.7993030  50.3446290
  50.7099960  12.2117010  48.9169300  37.3735010  23.5516950  49.2388270
  36.9889800  22.9110620  49.8371230  37.6847200  24.2553070  49.8083000
  43.5232150  20.3993490  44.7196890  43.8902280  19.9252060  45.4658230
  43.3337210  21.2735060  45.0605230  36.3872640  15.1437180  40.8490360
  36.1019560  14.7792850  41.6868980  36.3251500  14.4117640  40.2353500
  41.3131520  19.4402130  47.0381100  41.0088590  20.3194110  47.2631460
  42.2677980  19.5001920  47.0738540  39.8413310  23.6463120  37.6347950
  39.0675570  23.1060740  37.4746670  40.5707940  23.1269730  37.2965710
  50.6001290  22.6428480  43.4274340  51.3200410  23.1383770  43.0370450
  50.3983110  21.9646370  42.7828210  46.0611230  14.0366440  37.5703730
  45.2475840  13.5379610  37.4949040  45.8673180  14.8764690  37.1540080
  45.9820090  22.7137540  49.3143340  45.9157400  21.7933210  49.0600930
  45.3525230  22.8112980  50.0287980  48.7759620  18.4086090  35.8665890
  49.6639240  18.7203320  35.6917230  48.7464710  17.5358340  35.4746470
  39.8850710  23.3143500  41.2726760  40.4029380  22.5111760  41.2183650
  39.4334730  23.2522640  42.1143590  44.7720210  24.5809780  36.5454060
  45.1135910  25.3252010  36.0497380  43.9432920  24.8940900  36.9078890
  37.3695250  20.2804870  48.1852460  37.0110190  20.9458720  48.7725800
  37.0749810  19.4488420  48.5565080  40.5708370  20.7389110  51.0692010
  40.2708510  20.8846290  50.1719830  41.3419610  20.1794400  50.9765400
  45.9136820  25.5358110  49.0647140  45.9281360  24.6039070  48.8466050
  45.2061920  25.6217870  49.7036910  51.0473890  19.7197930  35.3345750
  50.9637610  20.1512150  34.4842190  51.7668080  20.1796280  35.7672570
  52.1248030  22.1765450  48.4115720  51.3996220  22.7694230  48.2145110
  52.6523490  22.1688990  47.6129090  52.0761140  26.5740190  38.0627880
  51.4337300  25.9195810  38.3371600  51.6891800  26.9795280  37.2868550
  47.6547620  23.9025620  41.9099570  48.0071440  23.3053750  41.2500940
  46.7709950  23.5769850  42.0807820  43.7410900  24.6623310  39.3169980
  44.4282030  25.2092520  39.6977570  42.9543320  25.2064040  39.3519590
  35.8803300  20.2796130  34.8087060  36.7498150  20.5620930  35.0922980
  35.3893620  21.0932000  34.6935870  43.0438110  21.6669340  38.9295340
  43.5000890  22.4774590  39.1555530  42.6926320  21.3492480  39.7613830
  45.3470720  27.1775680  46.1587640  45.9912940  27.3835060  46.8361060
  45.7100160  26.4164080  45.7058490  38.9449890  12.0106990  39.4017860
  38.8164520  12.0024890  40.3502780  38.1211910  12.3490080  39.0508870
  46.6202800  25.1808030  44.8765090  47.2625030  24.4801190  44.9897260
  47.1452150  25.9606470  44.6961980  50.4658520  25.4656650  34.6004230
  50.2396100  24.7487090  35.1928870  50.0754720  25.2169090  33.7625980
  48.3940420  25.9802930  48.0801150  48.7296660  26.5669620  48.7579070
  47.4740760  25.8495640  48.3098940  36.2474550  29.4923510  35.3748690
  36.6072190  30.0912850  34.7205960  36.1066890  30.0383400  36.1483720
  35.9443820  13.7698110  48.8624560  35.2302340  13.9695030  49.4677170
  36.3638860  12.9937680  49.2339360  50.0474770  23.3828590  36.2618390
  49.7596470  23.8441280  37.0496270  50.8426940  22.9226360  36.5302610
  36.2316410  27.7578370  49.8491090  36.3407530  26.8173110  49.7086480
  35.5796970  28.0233120  49.2004820  44.2229000  26.0294260  51.2489210
  43.9025870  25.3103500  51.7934900  43.5487360  26.7049330  51.3225270
  42.2643170  26.8754710  36.1922360  42.2553270  27.6084400  35.5766870
  41.3441530  26.6286290  36.2849320  37.8649810  22.0969600  36.9369120
  37.2577760  22.8368500  36.9464420  38.3399160  22.1868960  36.1107320
  47.4382600  16.2620420  46.6126010  47.8063420  15.4415630  46.9405580
  46.5780800  16.3222310  47.0281660  50.8044630  15.2177360  37.4213570
  50.1757790  15.3223030  36.7071800  50.3096550  15.4374140  38.2107450
  45.2502770  26.9382950  34.8547550  45.3514750  26.7346940  33.9249530
  44.3504510  26.6841230  35.0595330  42.7728660  17.4963310  38.8371450
  42.0644810  17.9649650  39.2785060  43.0573140  16.8385320  39.4716640
  44.3984590  18.9160010  46.8363980  44.8969840  19.3905830  47.5015830
  44.5407540  17.9923530  47.0434010  46.8044090  14.2213970  40.2767240
  46.6811870  14.2400100  39.3276750  47.7528650  14.2692910  40.3965640
  43.8920880  29.4569270  39.5495220  44.1462380  29.4190660  38.6274590
  42.9433360  29.3302600  39.5423470  40.9763680  15.8048390  36.2122160
  41.8254210  16.2418540  36.1462350  40.6094950  16.1168650  37.0394220
  51.6051450  15.1327970  47.6792370  51.1025050  15.8733370  48.0186180
  52.4208110  15.5211970  47.3629160  49.8973460  20.3761150  41.1253730
  48.9563600  20.3911380  41.3001420  50.2117530  19.5897110  41.5714030
  39.8755100  22.0580750  34.6857690  40.6418370  21.9462110  35.2483120
  39.9529790  21.3618720  34.0334460  38.5701860  19.4905820  35.3690580
  38.6505450  18.5433330  35.4807980  39.4621610  19.8212700  35.4751240
  51.8999040  27.5470000  42.8007990  52.0246460  28.3701170  43.2731800
  52.7664600  27.3360730  42.4532140  39.3716570  29.6401210  42.4725120
  40.1079050  29.0916670  42.7433690  39.7557490  30.5057220  42.3331110
  36.2562050  25.7074780  38.3466630  35.3301830  25.9495920  38.3372040
  36.7218480  26.5349040  38.2251380  38.3774850  28.8247280  51.6610700
  39.1787580  29.1459330  52.0746100  37.8626670  28.4642860  52.3830610
  42.4818880  28.8131520  34.2950690  43.2747490  29.1020350  33.8432480
  41.9623230  28.3823690  33.6163170  47.2139480  24.9327150  51.6086110
  46.6077640  24.9558750  50.8681860  46.9093590  24.2010190  52.1453360
  48.6439850  28.6607440  50.2195520  49.5961600  28.5765460  50.1695760
  48.4968070  29.3249150  50.8929310  51.5349050  28.0401650  35.7187430
  51.2490560  27.6266790  34.9041610  51.3368600  28.9689360  35.5987950
  36.0972660  21.3120740  50.6046750  36.6011680  20.7328020  51.1762980
  35.3580080  21.5960970  51.1423120  42.9996280  24.0334930  34.1593040
  42.8946920  23.4187280  34.8854420  42.8320500  23.5100820  33.3756050
  43.1510600  22.7191730  50.1382270  42.3856270  23.2876730  50.0536940
  43.3326560  22.4267940  49.2450500  46.2399010  23.0954960  34.7635030
  45.6909110  23.5424260  35.4077770  46.8618270  22.5904210  35.2872700
  50.2933950  24.4497060  50.6957290  51.0343420  24.7872820  50.1924750
  49.5306630  24.6189120  50.1427060  38.1295740  19.4550330  51.4996820
  38.1701080  19.1564200  52.4082050  38.9841240  19.8557940  51.3404340
  41.9074130  22.0545880  36.6600330  42.3290550  21.8885750  37.5031720
  42.0324970  21.2446110  36.1655470  40.0701550  18.0342430  49.4671310
  39.5398010  17.5433380  48.8394650  40.7389620  18.4626630  48.9329240
  44.4201770  21.0783490  33.9077430  44.9407430  20.3632510  33.5418580
  45.0670170  21.7169360  34.2077940  48.9679610  22.5011890  49.2312500
  49.3820630  22.6556970  50.0802920  48.0330610  22.6267110  49.3938280
  49.4401780  19.8408050  51.2351650  50.0222550  19.0860370  51.1472130
  49.6163550  20.3715490  50.4583130  40.5573850  15.0004800  49.5468600
  40.4630720  14.3825550  48.8219470  39.9771240  15.7271090  49.3198510
  43.3235290  13.5578040  46.5795990  42.8752590  13.5802300  45.7341540
  42.6900490  13.1597060  47.1766290  43.7294840  22.4532370  47.2008430
  44.1482950  23.2965100  47.0284670  42.8103470  22.5904410  46.9715210
  46.0658740  20.1848550  48.5846270  46.1854950  19.5889690  49.3241110
  46.9252740  20.2218240  48.1647570  48.4046640  20.7385740  47.1608780
  47.8781860  21.2628360  46.5573920  48.7477980  21.3713130  47.7918510
  40.8033030  18.1279110  33.6058490  40.6022090  17.2646470  33.9671830
  40.6325080  18.0412470  32.6680090  41.5802260  28.7585380  48.3166160
  41.0423350  29.4831440  47.9974860  41.8336220  28.2815720  47.5263500
  42.8327510  16.7269900  49.8422090  43.4227200  16.4185750  50.5299910
  42.0147750  16.2549650  49.9981990  47.6520940  16.3435710  50.0755110
  46.9636460  15.6817250  50.0105100  48.3726960  15.8973980  50.5203570
  48.2821340  12.9387340  36.1345370  48.5623630  12.0955240  36.4904790
  47.5087070  13.1710450  36.6484120  39.6015830  15.2279730  33.5936370
  39.9041730  15.2347160  32.6855520  40.3410420  14.8777590  34.0904030
  44.4364470  29.9936590  48.5752810  44.3623170  30.8971730  48.8825180
  43.5343310  29.6748490  48.5474880  42.8200760  14.1714350  34.5792570
  42.4722760  13.4938340  33.9995020  43.0213530  13.7103860  35.3935960
  44.9849800  29.1595100  36.1979170  45.8800590  29.4980070  36.2197930
  45.0167430  28.4374510  35.5703450  38.6245960  24.5322150  34.4266170
  39.0620830  25.0751820  35.0823750  39.1093690  23.7069100  34.4362510
  35.8391760  27.3211180  41.8786430  36.1694770  26.4532240  41.6465070
  36.2682760  27.5269700  42.7091390  40.4353680  25.6520190  39.5388400
  40.1349220  25.5285160  40.4392310  40.3291170  24.7928780  39.1304130
  36.3281970  28.1881770  44.6168060  35.8912960  28.3682570  45.4492210
  36.8959650  28.9456390  44.4749780  51.9644150  27.6898770  48.9045370
  51.3646140  27.7491330  48.1609290  52.0938050  26.7503750  49.0342220
  53.2045600  25.4316590  34.2415080  52.3738560  25.4993240  34.7122310
  53.3817430  26.3220710  33.9381940  52.6602060  22.1764070  36.7449280
  53.4220970  22.7460720  36.8508970  52.6756430  21.6091270  37.5157590
  36.1606400  20.7002000  40.9756940  35.5055240  20.4313640  40.3316640
  36.9984350  20.5906480  40.5258920  53.6662030  23.0314170  41.5891210
  54.0370860  22.2481490  41.1827180  54.3063960  23.7203270  41.4108510
  50.6495790  24.4150750  47.0021530  49.8355630  24.8447910  47.2647320
  51.0569990  25.0269160  46.3890580  52.7121230  22.4698440  33.9021800
  52.9870070  23.3777320  33.7741020  52.5231970  22.4060970  34.8383790
  49.1096840  15.4943290  35.1975430  49.5281720  15.3074270  34.3572090
  48.8032900  14.6422340  35.5078360  52.6086570  20.4067430  38.8951230
  52.2330170  19.6395360  38.4632520  51.8789690  20.7890130  39.3826160
  37.1982330  21.0854570  45.5160280  37.5655370  20.9981970  46.3956300
  36.6293150  20.3221120  45.4167140  51.9986190  19.5538950  48.5290750
  51.7672280  19.3251700  47.6288700  52.2590740  20.4738500  48.4835640
  36.7498330  17.9963660  49.4218700  35.8554380  17.9630420  49.7612410
  37.2895880  18.1950450  50.1869950  50.4374260  14.7795380  51.3070450
  51.3144440  14.7878780  51.6904450  50.4495100  14.0426220  50.6962800
  35.3744480  17.9100930  36.9182270  34.4708560  18.1731130  36.7433930
  35.8585100  18.1812100  36.1382230  51.8837530  18.6324920  42.1958470
  52.4075010  18.1387570  41.5648640  52.4696950  18.7675280  42.9406040
  52.0627250  18.7164790  45.7178020  51.1129960  18.6828330  45.8323010
  52.2440260  19.6264900  45.4827790  37.9171690  16.9666470  34.8276650
  38.6263390  16.5449690  34.3423930  37.2011630  17.0341700  34.1960000
  37.5645850  13.0205800  33.8679300  38.2873980  13.5614740  34.1860520
  37.8370370  12.7469220  32.9920840  51.3737500  17.8898270  38.1350880
  51.8696620  17.6569140  38.9199760  51.1753570  17.0510110  37.7188520
  37.2538040  12.2711990  43.7701920  37.9014230  11.7209370  43.3297080
  37.6739880  12.5255140  44.5917730  52.8024660  16.5259220  40.6688560
  52.6923940  16.3715260  41.6070830  53.5632250  15.9980160  40.4263970
  51.1490380  12.4653350  47.1271560  51.7862600  13.0787490  47.4930750
  51.2965270  12.5014010  46.1820790  53.6914930  14.3567140  33.9094700
  54.6164240  14.2248320  33.7012990  53.6690720  14.4359960  34.8631150
  53.7653420  15.1277800  36.5351410  52.9704920  15.0622920  37.0644320
  53.9696700  16.0628440  36.5236760  50.7071840  29.1669350  40.5289800
  51.3030910  28.8453920  39.8524220  50.9649990  28.6941170  41.3203070
  37.0070040  12.4267660  46.5127240  36.6584860  12.8831480  47.2785420
  36.6757740  11.5324790  46.5949670  38.6134410  25.5987260  50.6780430
  38.5704040  25.2280170  51.5594890  38.7445420  26.5364830  50.8182250
  42.3140440  27.1546850  46.2790150  42.0731800  27.4221410  45.3920670
  43.2543080  27.3252580  46.3341010  44.5194860  13.6179540  50.0346660
  44.4583750  14.2101370  50.7842070  45.4595240  13.5105500  49.8896920
  47.1569420  13.2749600  49.6738950  47.7709830  13.5928890  49.0120030
  47.7018980  12.7898190  50.2934810  53.5744600  29.1741230  47.0800790
  53.0802880  29.5710100  46.3627920  52.9657890  28.5490440  47.4738070
  37.6790680  11.9543860  49.7878010  38.2273670  11.7731910  49.0244120
  37.7445990  11.1637970  50.3234320  38.4522440  28.5449510  47.7978210
  37.8582760  28.4134210  48.5368250  38.4446280  27.7087650  47.3320310
  47.8977460  11.8381740  46.0008240  47.0237300  12.1716850  45.7981170
  47.7888210  11.3654920  46.8260110  48.8049440  14.0452610  47.3849960
  48.4762800  13.2304370  47.0051690  49.7531740  14.0022420  47.2615650
  51.2584050  29.8164650  44.3587530  50.7987020  30.5680460  43.9845550
  50.6296510  29.0971120  44.3002330  38.0834670  25.9107890  46.7486250
  37.3568730  25.2913180  46.6812200  38.1443820  26.3048500  45.8784330
  41.6879770  28.1252890  43.5335660  42.2044790  27.5140250  43.0083920
  42.3377150  28.6281670  44.0246670  44.4275270  29.0161380  44.3604640
  44.7153080  28.7615680  43.4837650  44.9398490  28.4638740  44.9510210
  45.6452280  12.7551580  44.9401150  44.8624070  13.2297080  45.2197910
  45.3515210  11.8506410  44.8314330  50.1973350  13.4574680  42.9850240
  50.6381440  13.4019780  42.1371840  49.9280940  14.3732690  43.0560420
  52.0611920  13.0889920  40.9959060  52.0000320  12.1451140  40.8490080
  52.8403950  13.1970010  41.5412520  36.3664670  29.2282280  39.9583010
  36.1986710  28.5952960  40.6564900  35.4999180  29.4341680  39.6077200
  36.9892690  13.0599060  37.4614870  37.7472050  13.1727940  36.8878900
  36.5269860  13.8968260  37.4158300  43.5306500  15.1738330  40.4517180
  42.7181010  14.7995220  40.1113060  44.0348140  14.4183410  40.7538370
  48.0331480  11.8380780  41.6900250  48.6360850  12.4100990  42.1648770
  47.2924470  12.4020220  41.4674150  51.1766080  12.2402340  36.9640530
  51.3716710  13.1385790  37.2307960  50.3895950  12.0089420  37.4573480
  37.9727370  27.9215510  37.4033150  37.4474990  28.3023540  36.6995110
  37.8971950  28.5466280  38.1242860  39.3617840  13.5863110  36.0016840
  39.8910600  12.7992910  35.8724790  39.9946160  14.2654300  36.2352370
  41.5555680  13.3238250  39.0562230  40.9258420  12.6225560  39.2232360
  41.0160820  14.0842380  38.8395390  44.4947630  29.9377480  51.7272840
  45.4214940  29.7021750  51.7708800  44.4798060  30.7649480  51.2458870
  52.7292690  29.4803050  38.7247090  52.9044880  28.7940790  38.0808010
  52.0314260  30.0050100  38.3323760  41.6811240  12.6022230  51.4914720
  41.3995510  13.1055830  50.7275540  42.0630940  11.8043980  51.1256850
  40.5720340  29.8697890  36.2782400  41.3039160  29.5857170  35.7306290
  40.8314010  29.6311170  37.1681780  39.7335130  25.9862620  36.2828730
  39.1044010  26.4547720  36.8314560  39.8482960  25.1411840  36.7174920
  48.2826700  12.0175810  52.0695190  48.1692150  12.3370420  52.9646710
  49.0996440  12.4188320  51.7732470  51.0625190  29.1647340  51.5513880
  51.8550510  28.6696570  51.3439840  51.3558340  29.8437480  52.1589490
  47.1884850  20.0368280  22.4329930  47.1078900  19.1222890  22.1621640
  46.7749270  20.5335350  21.7269640  45.3202890  21.8147300  24.3139200
  44.5444990  21.3347740  24.6037770  45.9715820  21.1352950  24.1395360
  39.3368720  22.1267110  25.1914960  38.5053600  21.8715820  25.5911470
  39.9449700  22.1977880  25.9272880  49.3410320  26.2207490  23.0938330
  48.8791850  25.4494730  23.4225500  50.1535870  26.2473560  23.5990780
  39.3169980  26.1607200  25.3872980  39.6198020  25.2704940  25.2083200
  40.0613570  26.7177420  25.1595230  37.7460670  17.0869000  18.9757350
  36.8577370  17.4284970  18.8737230  38.0301860  16.8869320  18.0838180
  35.7093680  19.6874650  24.8597050  36.2809790  18.9196850  24.8600690
  35.7095220  19.9863410  23.9503660  45.5673630  28.5065500  22.7142320
  44.9485070  28.9623000  22.1436760  46.4225410  28.6616960  22.3132020
  44.7611880  24.4904490  24.3209360  44.6920160  23.5494430  24.1598490
  45.5231740  24.5805900  24.8931930  36.9518550  15.0959010  26.6465980
  36.7721390  14.1984760  26.9268740  36.5498630  15.6430880  27.3212930
  45.7917050  17.2974870  24.5478290  46.1681870  16.4246750  24.4351960
  45.6936560  17.6333570  23.6568730  39.9222060  15.6700500  20.0095730
  40.0288810  16.5704230  20.3164490  39.0114420  15.6218470  19.7190380
  49.5741170  14.7925310  21.4806630  50.3950790  14.3021880  21.5232110
  49.6075250  15.3822970  22.2338470  37.5705220  17.5919510  25.2548320
  38.2515330  17.8557880  25.8735720  37.2553270  16.7520380  25.5886330
  41.7629790  18.6386870  24.3420910  42.2708010  19.1367840  24.9825930
  42.2943030  17.8622070  24.1660270  53.8640720  16.8092060  28.0450260
  53.1592890  17.1973770  27.5265370  54.1298640  17.5042350  28.6471190
  40.0465890  13.2785430  28.6084330  40.0484330  13.7957820  27.8030230
  39.2170200  12.8015610  28.5854260  46.4336980  23.3904740  20.1074230
  45.8154250  23.8554190  19.5436950  46.9460230  24.0832220  20.5243740
  41.2968740  22.9180610  26.7857830  40.9638120  23.5449530  27.4278900
  41.4735420  23.4442490  26.0059500  49.8102650  16.7325690  24.2534170
  49.1058220  17.0210580  24.8337280  50.1714810  17.5425800  23.8933730
  39.7281220  14.9895390  26.6154780  40.0698030  15.8337440  26.3208650
  38.7897030  15.1379130  26.7320120  40.5087840  24.8861410  28.6007010
  41.1261840  25.5612490  28.3191460  39.6480960  25.2949390  28.5094510
  35.8020180  24.0761270  17.4813860  35.4248160  24.5648370  16.7498760
  36.0593250  24.7486550  18.1120390  51.4265430  26.3500820  26.5161650
  50.7428950  27.0199930  26.5078320  51.9659720  26.5481470  25.7506510
  52.8789570  16.1780480  24.6443380  51.9314480  16.2119460  24.7758810
  53.2039560  16.9919430  25.0292740  43.4109110  12.4777660  22.9399370
  43.7184090  11.9224550  22.2234870  42.4809810  12.6122120  22.7572360
  48.9624170  28.1944950  25.2306830  48.9751330  27.7907240  24.3629090
  48.4099390  28.9692240  25.1268260  50.2569590  24.9161170  20.3197000
  50.1465920  23.9735500  20.4446420  50.2537840  25.2776810  21.2059760
  48.3609610  23.0974790  26.5589440  48.7778400  22.8834900  25.7242900
  49.0849430  23.3547580  27.1298060  45.7989870  20.5426490  19.6759490
  44.8719150  20.4763870  19.9047960  45.9514690  21.4806620  19.5614730
  45.7858950  16.8143490  16.6726650  44.8462620  16.9757450  16.7579110
  46.1042210  17.5329170  16.1262640  52.3071710  21.4962010  26.6505680
  51.4790340  21.5655100  26.1755810  52.9022190  22.0816320  26.1821510
  49.8287160  22.1046790  20.1794740  49.2099580  21.7666340  19.5321040
  49.8111610  21.4606550  20.8873930  49.2713720  18.2831330  27.5960550
  48.8584900  19.1085040  27.8500540  48.5389670  17.6976370  27.4036910
  41.4046510  21.0691230  22.4579220  41.0003510  20.3568480  21.9625120
  41.4909630  20.7244470  23.3467260  41.8728210  24.7558790  24.6218430
  41.5756500  24.1504260  23.9426210  42.8228030  24.7936100  24.5107790
  40.1175130  17.8434440  26.2378260  40.6689720  17.9529780  25.4631510
  40.6318640  18.2172040  26.9533490  49.9613820  28.3290660  28.2841530
  49.4844380  29.1362850  28.0914140  49.2775610  27.6768990  28.4367740
  40.9646640  24.4940480  31.2726230  40.0675170  24.7180450  31.5199630
  40.9899510  24.6175420  30.3237630  48.0051860  21.3433600  17.1867490
  48.4445140  20.5056030  17.0405310  48.7180280  21.9763000  17.2731630
  39.7917860  21.3653800  29.8483600  39.6525630  22.2376600  30.2171000
  38.9099220  21.0226610  29.7031540  46.1147240  26.2829670  21.1548730
  46.5543150  27.0254000  20.7404120  46.0534130  26.5256240  22.0787690
  41.5898210  27.3075500  32.0568750  41.5613640  27.7118450  31.1897180
  41.4263180  26.3785860  31.8940350  51.5869000  12.5976410  15.5008530
  51.2741660  12.6903240  16.4007600  52.3481470  13.1757440  15.4505960
  38.1051140  19.9636210  19.9585870  37.9848740  20.6898300  19.3467140
  37.7952030  19.1939120  19.4813780  53.5413030  28.0902600  33.3532920
  54.0172750  28.5685490  34.0322000  54.1620190  28.0220090  32.6278420
  35.7436510  23.1351350  25.7654510  35.8216930  23.2700120  24.8210230
  36.3578190  22.4267240  25.9582630  36.9884140  24.8351540  22.1760690
  36.5812220  24.9766130  21.3214290  37.8797150  24.5511700  21.9731900
  52.9446280  25.2815450  30.5132930  53.0709340  25.0427330  29.5950110
  52.9867660  24.4499990  30.9855010  46.8063020  28.9843450  29.0827740
  47.3207690  28.8951460  29.8850170  45.9632100  29.3303150  29.3755650
  48.7817420  29.2698790  18.5111740  48.6218560  28.9801730  19.4093570
  48.6164130  28.4938920  17.9756970  41.2605800  29.0497320  20.2883360
  41.0848280  28.1332860  20.0751160  40.4061540  29.4084610  20.5281160
  48.4843550  26.7786350  17.0709740  47.7908710  26.7763640  16.4112020
  49.2266410  26.3545670  16.6403910  48.0493480  28.4049060  21.1458230
  48.5050430  27.6238440  21.4596850  48.3886000  29.1155880  21.6899410
  52.7970290  17.3347910  31.4782670  52.1814560  17.8427580  30.9498130
  52.4766710  16.4346240  31.4208610  35.7996030  24.1765520  28.3048970
  35.9627070  23.7070880  27.4868340  36.2648480  23.6689080  28.9697810
  40.5714800  13.3071280  23.3409540  40.1282950  14.0880820  23.0094060
  41.1299790  13.6301170  24.0480480  44.8584610  16.1739800  28.9444860
  44.3963980  16.3822820  29.7564800  44.4562720  15.3599150  28.6415530
  49.8589120  17.3948750  30.0741520  49.0082710  17.0954500  30.3950590
  49.6990910  17.6390760  29.1625340  46.9538830  18.8950500  32.1740310
  47.2792240  18.0614250  31.8342540  47.7419160  19.4179020  32.3218640
  43.6873620  12.9281980  18.2215370  43.0627800  12.9241850  18.9468680
  43.6003740  12.0612940  17.8251340  42.6090700  13.8518610  25.1999140
  42.9063030  14.7581440  25.1191160  43.1576260  13.3637390  24.5858710
  40.3629020  18.4304850  21.0690790  40.1369940  18.2142020  21.9737410
  39.5821550  18.8633310  20.7236760  47.5926780  18.4368220  19.6681440
  46.9935670  19.1604020  19.4845060  48.1406390  18.3745000  18.8857890
  42.8028230  19.3290430  31.7351060  42.7071830  18.3885160  31.5851460
  43.6460210  19.5505500  31.3399130  46.1991650  17.0731760  21.6984720
  46.5921220  17.3903960  20.8853410  46.5608500  16.1943640  21.8129240
  37.9338770  15.7404100  29.8884840  37.5402160  16.5879310  30.0957620
  37.2457170  15.1030470  30.0793480  44.5083820  15.8239070  32.9581580
  43.8182140  15.6311270  33.5927670  45.2516120  16.1073710  33.4905880
  35.2355820  13.6632560  23.9214920  34.9468870  14.2335420  24.6339900
  35.9801580  13.1837010  24.2846150  35.4226050  17.6052680  15.1317640
  35.3400720  18.5483440  15.2732630  35.0709110  17.4627590  14.2529990
  46.7846790  19.6637510  25.7935500  46.0527910  20.1724320  26.1425600
  46.3871130  18.8467490  25.4924280  43.2224180  16.3391710  24.1987990
  43.2260240  15.8981660  23.3492530  44.1175300  16.6609040  24.3059810
  39.0726560  16.2218200  23.1582200  38.7326610  16.6993430  23.9149250
  38.3103880  15.7683320  22.7983300  43.2844330  17.3403790  17.1894750
  43.4057150  17.2990270  18.1380570  42.8992840  18.2027940  17.0341480
  47.2472700  15.1171190  25.2058440  47.2645440  15.5679840  26.0500290
  46.9988280  14.2176830  25.4191880  42.2965830  19.6504930  16.5878050
  41.7282730  19.2023180  15.9613960  43.0054830  20.0097710  16.0543200
  50.6743450  12.5303370  31.0444820  50.9989220  11.7993030  31.5702800
  50.7099960  12.2117010  30.1425810  37.3735010  23.5516950  30.4644780
  36.9889800  22.9110620  31.0627740  37.6847200  24.2553070  31.0339510
  43.5232150  20.3993490  25.9453400  43.8902280  19.9252060  26.6914740
  43.3337210  21.2735060  26.2861740  36.3872640  15.1437180  22.0746870
  36.1019560  14.7792850  22.9125490  36.3251500  14.4117640  21.4610010
  41.3131520  19.4402130  28.2637610  41.0088590  20.3194110  28.4887970
  42.2677980  19.5001920  28.2995050  39.8413310  23.6463120  18.8604460
  39.0675570  23.1060740  18.7003180  40.5707940  23.1269730  18.5222220
  50.6001290  22.6428480  24.6530850  51.3200410  23.1383770  24.2626960
  50.3983110  21.9646370  24.0084720  46.0611230  14.0366440  18.7960240
  45.2475840  13.5379610  18.7205550  45.8673180  14.8764690  18.3796590
  45.9820090  22.7137540  30.5399850  45.9157400  21.7933210  30.2857440
  45.3525230  22.8112980  31.2544490  48.7759620  18.4086090  17.0922400
  49.6639240  18.7203320  16.9173740  48.7464710  17.5358340  16.7002980
  39.8850710  23.3143500  22.4983270  40.4029380  22.5111760  22.4440160
  39.4334730  23.2522640  23.3400100  44.7720210  24.5809780  17.7710570
  45.1135910  25.3252010  17.2753890  43.9432920  24.8940900  18.1335400
  37.3695250  20.2804870  29.4108970  37.0110190  20.9458720  29.9982310
  37.0749810  19.4488420  29.7821590  40.5708370  20.7389110  32.2948520
  40.2708510  20.8846290  31.3976340  41.3419610  20.1794400  32.2021910
  45.9136820  25.5358110  30.2903650  45.9281360  24.6039070  30.0722560
  45.2061920  25.6217870  30.9293420  51.0473890  19.7197930  16.5602260
  50.9637610  20.1512150  15.7098700  51.7668080  20.1796280  16.9929080
  52.1248030  22.1765450  29.6372230  51.3996220  22.7694230  29.4401620
  52.6523490  22.1688990  28.8385600  52.0761140  26.5740190  19.2884390
  51.4337300  25.9195810  19.5628110  51.6891800  26.9795280  18.5125060
  47.6547620  23.9025620  23.1356080  48.0071440  23.3053750  22.4757450
  46.7709950  23.5769850  23.3064330  43.7410900  24.6623310  20.5426490
  44.4282030  25.2092520  20.9234080  42.9543320  25.2064040  20.5776100
  35.8803300  20.2796130  16.0343570  36.7498150  20.5620930  16.3179490
  35.3893620  21.0932000  15.9192380  43.0438110  21.6669340  20.1551850
  43.5000890  22.4774590  20.3812040  42.6926320  21.3492480  20.9870340
  45.3470720  27.1775680  27.3844150  45.9912940  27.3835060  28.0617570
  45.7100160  26.4164080  26.9315000  38.9449890  12.0106990  20.6274370
  38.8164520  12.0024890  21.5759290  38.1211910  12.3490080  20.2765380
  46.6202800  25.1808030  26.1021600  47.2625030  24.4801190  26.2153770
  47.1452150  25.9606470  25.9218490  50.4658520  25.4656650  15.8260740
  50.2396100  24.7487090  16.4185380  50.0754720  25.2169090  14.9882490
  48.3940420  25.9802930  29.3057660  48.7296660  26.5669620  29.9835580
  47.4740760  25.8495640  29.5355450  36.2474550  29.4923510  16.6005200
  36.6072190  30.0912850  15.9462470  36.1066890  30.0383400  17.3740230
  35.9443820  13.7698110  30.0881070  35.2302340  13.9695030  30.6933680
  36.3638860  12.9937680  30.4595870  50.0474770  23.3828590  17.4874900
  49.7596470  23.8441280  18.2752780  50.8426940  22.9226360  17.7559120
  36.2316410  27.7578370  31.0747600  36.3407530  26.8173110  30.9342990
  35.5796970  28.0233120  30.4261330  44.2229000  26.0294260  32.4745720
  43.9025870  25.3103500  33.0191410  43.5487360  26.7049330  32.5481780
  42.2643170  26.8754710  17.4178870  42.2553270  27.6084400  16.8023380
  41.3441530  26.6286290  17.5105830  37.8649810  22.0969600  18.1625630
  37.2577760  22.8368500  18.1720930  38.3399160  22.1868960  17.3363830
  47.4382600  16.2620420  27.8382520  47.8063420  15.4415630  28.1662090
  46.5780800  16.3222310  28.2538170  50.8044630  15.2177360  18.6470080
  50.1757790  15.3223030  17.9328310  50.3096550  15.4374140  19.4363960
  45.2502770  26.9382950  16.0804060  45.3514750  26.7346940  15.1506040
  44.3504510  26.6841230  16.2851840  42.7728660  17.4963310  20.0627960
  42.0644810  17.9649650  20.5041570  43.0573140  16.8385320  20.6973150
  44.3984590  18.9160010  28.0620490  44.8969840  19.3905830  28.7272340
  44.5407540  17.9923530  28.2690520  46.8044090  14.2213970  21.5023750
  46.6811870  14.2400100  20.5533260  47.7528650  14.2692910  21.6222150
  43.8920880  29.4569270  20.7751730  44.1462380  29.4190660  19.8531100
  42.9433360  29.3302600  20.7679980  40.9763680  15.8048390  17.4378670
  41.8254210  16.2418540  17.3718860  40.6094950  16.1168650  18.2650730
  51.6051450  15.1327970  28.9048880  51.1025050  15.8733370  29.2442690
  52.4208110  15.5211970  28.5885670  49.8973460  20.3761150  22.3510240
  48.9563600  20.3911380  22.5257930  50.2117530  19.5897110  22.7970540
  39.8755100  22.0580750  15.9114200  40.6418370  21.9462110  16.4739630
  39.9529790  21.3618720  15.2590970  38.5701860  19.4905820  16.5947090
  38.6505450  18.5433330  16.7064490  39.4621610  19.8212700  16.7007750
  51.8999040  27.5470000  24.0264500  52.0246460  28.3701170  24.4988310
  52.7664600  27.3360730  23.6788650  39.3716570  29.6401210  23.6981630
  40.1079050  29.0916670  23.9690200  39.7557490  30.5057220  23.5587620
  36.2562050  25.7074780  19.5723140  35.3301830  25.9495920  19.5628550
  36.7218480  26.5349040  19.4507890  38.3774850  28.8247280  32.8867210
  39.1787580  29.1459330  33.3002610  37.8626670  28.4642860  33.6087120
  42.4818880  28.8131520  15.5207200  43.2747490  29.1020350  15.0688990
  41.9623230  28.3823690  14.8419680  47.2139480  24.9327150  32.8342620
  46.6077640  24.9558750  32.0938370  46.9093590  24.2010190  33.3709870
  48.6439850  28.6607440  31.4452030  49.5961600  28.5765460  31.3952270
  48.4968070  29.3249150  32.1185820  51.5349050  28.0401650  16.9443940
  51.2490560  27.6266790  16.1298120  51.3368600  28.9689360  16.8244460
  36.0972660  21.3120740  31.8303260  36.6011680  20.7328020  32.4019490
  35.3580080  21.5960970  32.3679630  42.9996280  24.0334930  15.3849550
  42.8946920  23.4187280  16.1110930  42.8320500  23.5100820  14.6012560
  43.1510600  22.7191730  31.3638780  42.3856270  23.2876730  31.2793450
  43.3326560  22.4267940  30.4707010  46.2399010  23.0954960  15.9891540
  45.6909110  23.5424260  16.6334280  46.8618270  22.5904210  16.5129210
  50.2933950  24.4497060  31.9213800  51.0343420  24.7872820  31.4181260
  49.5306630  24.6189120  31.3683570  38.1295740  19.4550330  32.7253330
  38.1701080  19.1564200  33.6338560  38.9841240  19.8557940  32.5660850
  41.9074130  22.0545880  17.8856840  42.3290550  21.8885750  18.7288230
  42.0324970  21.2446110  17.3911980  40.0701550  18.0342430  30.6927820
  39.5398010  17.5433380  30.0651160  40.7389620  18.4626630  30.1585750
  44.4201770  21.0783490  15.1333940  44.9407430  20.3632510  14.7675090
  45.0670170  21.7169360  15.4334450  48.9679610  22.5011890  30.4569010
  49.3820630  22.6556970  31.3059430  48.0330610  22.6267110  30.6194790
  49.4401780  19.8408050  32.4608160  50.0222550  19.0860370  32.3728640
  49.6163550  20.3715490  31.6839640  40.5573850  15.0004800  30.7725110
  40.4630720  14.3825550  30.0475980  39.9771240  15.7271090  30.5455020
  43.3235290  13.5578040  27.8052500  42.8752590  13.5802300  26.9598050
  42.6900490  13.1597060  28.4022800  43.7294840  22.4532370  28.4264940
  44.1482950  23.2965100  28.2541180  42.8103470  22.5904410  28.1971720
  46.0658740  20.1848550  29.8102780  46.1854950  19.5889690  30.5497620
  46.9252740  20.2218240  29.3904080  48.4046640  20.7385740  28.3865290
  47.8781860  21.2628360  27.7830430  48.7477980  21.3713130  29.0175020
  40.8033030  18.1279110  14.8315000  40.6022090  17.2646470  15.1928340
  40.6325080  18.0412470  13.8936600  41.5802260  28.7585380  29.5422670
  41.0423350  29.4831440  29.2231370  41.8336220  28.2815720  28.7520010
  42.8327510  16.7269900  31.0678600  43.4227200  16.4185750  31.7556420
  42.0147750  16.2549650  31.2238500  47.6520940  16.3435710  31.3011620
  46.9636460  15.6817250  31.2361610  48.3726960  15.8973980  31.7460080
  48.2821340  12.9387340  17.3601880  48.5623630  12.0955240  17.7161300
  47.5087070  13.1710450  17.8740630  39.6015830  15.2279730  14.8192880
  39.9041730  15.2347160  13.9112030  40.3410420  14.8777590  15.3160540
  44.4364470  29.9936590  29.8009320  44.3623170  30.8971730  30.1081690
  43.5343310  29.6748490  29.7731390  42.8200760  14.1714350  15.8049080
  42.4722760  13.4938340  15.2251530  43.0213530  13.7103860  16.6192470
  44.9849800  29.1595100  17.4235680  45.8800590  29.4980070  17.4454440
  45.0167430  28.4374510  16.7959960  38.6245960  24.5322150  15.6522680
  39.0620830  25.0751820  16.3080260  39.1093690  23.7069100  15.6619020
  35.8391760  27.3211180  23.1042940  36.1694770  26.4532240  22.8721580
  36.2682760  27.5269700  23.9347900  40.4353680  25.6520190  20.7644910
  40.1349220  25.5285160  21.6648820  40.3291170  24.7928780  20.3560640
  36.3281970  28.1881770  25.8424570  35.8912960  28.3682570  26.6748720
  36.8959650  28.9456390  25.7006290  51.9644150  27.6898770  30.1301880
  51.3646140  27.7491330  29.3865800  52.0938050  26.7503750  30.2598730
  53.2045600  25.4316590  15.4671590  52.3738560  25.4993240  15.9378820
  53.3817430  26.3220710  15.1638450  52.6602060  22.1764070  17.9705790
  53.4220970  22.7460720  18.0765480  52.6756430  21.6091270  18.7414100
  36.1606400  20.7002000  22.2013450  35.5055240  20.4313640  21.5573150
  36.9984350  20.5906480  21.7515430  53.6662030  23.0314170  22.8147720
  54.0370860  22.2481490  22.4083690  54.3063960  23.7203270  22.6365020
  50.6495790  24.4150750  28.2278040  49.8355630  24.8447910  28.4903830
  51.0569990  25.0269160  27.6147090  52.7121230  22.4698440  15.1278310
  52.9870070  23.3777320  14.9997530  52.5231970  22.4060970  16.0640300
  49.1096840  15.4943290  16.4231940  49.5281720  15.3074270  15.5828600
  48.8032900  14.6422340  16.7334870  52.6086570  20.4067430  20.1207740
  52.2330170  19.6395360  19.6889030  51.8789690  20.7890130  20.6082670
  37.1982330  21.0854570  26.7416790  37.5655370  20.9981970  27.6212810
  36.6293150  20.3221120  26.6423650  51.9986190  19.5538950  29.7547260
  51.7672280  19.3251700  28.8545210  52.2590740  20.4738500  29.7092150
  36.7498330  17.9963660  30.6475210  35.8554380  17.9630420  30.9868920
  37.2895880  18.1950450  31.4126460  50.4374260  14.7795380  32.5326960
  51.3144440  14.7878780  32.9160960  50.4495100  14.0426220  31.9219310
  35.3744480  17.9100930  18.1438780  34.4708560  18.1731130  17.9690440
  35.8585100  18.1812100  17.3638740  51.8837530  18.6324920  23.4214980
  52.4075010  18.1387570  22.7905150  52.4696950  18.7675280  24.1662550
  52.0627250  18.7164790  26.9434530  51.1129960  18.6828330  27.0579520
  52.2440260  19.6264900  26.7084300  37.9171690  16.9666470  16.0533160
  38.6263390  16.5449690  15.5680440  37.2011630  17.0341700  15.4216510
  37.5645850  13.0205800  15.0935810  38.2873980  13.5614740  15.4117030
  37.8370370  12.7469220  14.2177350  51.3737500  17.8898270  19.3607390
  51.8696620  17.6569140  20.1456270  51.1753570  17.0510110  18.9445030
  37.2538040  12.2711990  24.9958430  37.9014230  11.7209370  24.5553590
  37.6739880  12.5255140  25.8174240  52.8024660  16.5259220  21.8945070
  52.6923940  16.3715260  22.8327340  53.5632250  15.9980160  21.6520480
  51.1490380  12.4653350  28.3528070  51.7862600  13.0787490  28.7187260
  51.2965270  12.5014010  27.4077300  53.6914930  14.3567140  15.1351210
  54.6164240  14.2248320  14.9269500  53.6690720  14.4359960  16.0887660
  53.7653420  15.1277800  17.7607920  52.9704920  15.0622920  18.2900830
  53.9696700  16.0628440  17.7493270  50.7071840  29.1669350  21.7546310
  51.3030910  28.8453920  21.0780730  50.9649990  28.6941170  22.5459580
  37.0070040  12.4267660  27.7383750  36.6584860  12.8831480  28.5041930
  36.6757740  11.5324790  27.8206180  38.6134410  25.5987260  31.9036940
  38.5704040  25.2280170  32.7851400  38.7445420  26.5364830  32.0438760
  42.3140440  27.1546850  27.5046660  42.0731800  27.4221410  26.6177180
  43.2543080  27.3252580  27.5597520  44.5194860  13.6179540  31.2603170
  44.4583750  14.2101370  32.0098580  45.4595240  13.5105500  31.1153430
  47.1569420  13.2749600  30.8995460  47.7709830  13.5928890  30.2376540
  47.7018980  12.7898190  31.5191320  53.5744600  29.1741230  28.3057300
  53.0802880  29.5710100  27.5884430  52.9657890  28.5490440  28.6994580
  37.6790680  11.9543860  31.0134520  38.2273670  11.7731910  30.2500630
  37.7445990  11.1637970  31.5490830  38.4522440  28.5449510  29.0234720
  37.8582760  28.4134210  29.7624760  38.4446280  27.7087650  28.5576820
  47.8977460  11.8381740  27.2264750  47.0237300  12.1716850  27.0237680
  47.7888210  11.3654920  28.0516620  48.8049440  14.0452610  28.6106470
  48.4762800  13.2304370  28.2308200  49.7531740  14.0022420  28.4872160
  51.2584050  29.8164650  25.5844040  50.7987020  30.5680460  25.2102060
  50.6296510  29.0971120  25.5258840  38.0834670  25.9107890  27.9742760
  37.3568730  25.2913180  27.9068710  38.1443820  26.3048500  27.1040840
  41.6879770  28.1252890  24.7592170  42.2044790  27.5140250  24.2340430
  42.3377150  28.6281670  25.2503180  44.4275270  29.0161380  25.5861150
  44.7153080  28.7615680  24.7094160  44.9398490  28.4638740  26.1766720
  45.6452280  12.7551580  26.1657660  44.8624070  13.2297080  26.4454420
  45.3515210  11.8506410  26.0570840  50.1973350  13.4574680  24.2106750
  50.6381440  13.4019780  23.3628350  49.9280940  14.3732690  24.2816930
  52.0611920  13.0889920  22.2215570  52.0000320  12.1451140  22.0746590
  52.8403950  13.1970010  22.7669030  36.3664670  29.2282280  21.1839520
  36.1986710  28.5952960  21.8821410  35.4999180  29.4341680  20.8333710
  36.9892690  13.0599060  18.6871380  37.7472050  13.1727940  18.1135410
  36.5269860  13.8968260  18.6414810  43.5306500  15.1738330  21.6773690
  42.7181010  14.7995220  21.3369570  44.0348140  14.4183410  21.9794880
  48.0331480  11.8380780  22.9156760  48.6360850  12.4100990  23.3905280
  47.2924470  12.4020220  22.6930660  51.1766080  12.2402340  18.1897040
  51.3716710  13.1385790  18.4564470  50.3895950  12.0089420  18.6829990
  37.9727370  27.9215510  18.6289660  37.4474990  28.3023540  17.9251620
  37.8971950  28.5466280  19.3499370  39.3617840  13.5863110  17.2273350
  39.8910600  12.7992910  17.0981300  39.9946160  14.2654300  17.4608880
  41.5555680  13.3238250  20.2818740  40.9258420  12.6225560  20.4488870
  41.0160820  14.0842380  20.0651900  44.4947630  29.9377480  32.9529350
  45.4214940  29.7021750  32.9965310  44.4798060  30.7649480  32.4715380
  52.7292690  29.4803050  19.9503600  52.9044880  28.7940790  19.3064520
  52.0314260  30.0050100  19.5580270  41.6811240  12.6022230  32.7171230
  41.3995510  13.1055830  31.9532050  42.0630940  11.8043980  32.3513360
  40.5720340  29.8697890  17.5038910  41.3039160  29.5857170  16.9562800
  40.8314010  29.6311170  18.3938290  39.7335130  25.9862620  17.5085240
  39.1044010  26.4547720  18.0571070  39.8482960  25.1411840  17.9431430
  48.2826700  12.0175810  33.2951700  48.1692150  12.3370420  34.1903220
  49.0996440  12.4188320  32.9988980  51.0625190  29.1647340  32.7770390
  51.8550510  28.6696570  32.5696350  51.3558340  29.8437480  33.3846000
  47.1884850  20.0368280   3.6586440  47.1078900  19.1222890   3.3878150
  46.7749270  20.5335350   2.9526150  45.3202890  21.8147300   5.5395710
  44.5444990  21.3347740   5.8294280  45.9715820  21.1352950   5.3651870
  39.3368720  22.1267110   6.4171470  38.5053600  21.8715820   6.8167980
  39.9449700  22.1977880   7.1529390  49.3410320  26.2207490   4.3194840
  48.8791850  25.4494730   4.6482010  50.1535870  26.2473560   4.8247290
  39.3169980  26.1607200   6.6129490  39.6198020  25.2704940   6.4339710
  40.0613570  26.7177420   6.3851740  35.7093680  19.6874650   6.0853560
  36.2809790  18.9196850   6.0857200  35.7095220  19.9863410   5.1760170
  45.5673630  28.5065500   3.9398830  44.9485070  28.9623000   3.3693270
  46.4225410  28.6616960   3.5388530  44.7611880  24.4904490   5.5465870
  44.6920160  23.5494430   5.3855000  45.5231740  24.5805900   6.1188440
  36.9518550  15.0959010   7.8722490  36.7721390  14.1984760   8.1525250
  36.5498630  15.6430880   8.5469440  45.7917050  17.2974870   5.7734800
  46.1681870  16.4246750   5.6608470  45.6936560  17.6333570   4.8825240
  49.5741170  14.7925310   2.7063140  50.3950790  14.3021880   2.7488620
  49.6075250  15.3822970   3.4594980  37.5705220  17.5919510   6.4804830
  38.2515330  17.8557880   7.0992230  37.2553270  16.7520380   6.8142840
  41.7629790  18.6386870   5.5677420  42.2708010  19.1367840   6.2082440
  42.2943030  17.8622070   5.3916780  53.8640720  16.8092060   9.2706770
  53.1592890  17.1973770   8.7521880  54.1298640  17.5042350   9.8727700
  40.0465890  13.2785430   9.8340840  40.0484330  13.7957820   9.0286740
  39.2170200  12.8015610   9.8110770  41.2968740  22.9180610   8.0114340
  40.9638120  23.5449530   8.6535410  41.4735420  23.4442490   7.2316010
  49.8102650  16.7325690   5.4790680  49.1058220  17.0210580   6.0593790
  50.1714810  17.5425800   5.1190240  39.7281220  14.9895390   7.8411290
  40.0698030  15.8337440   7.5465160  38.7897030  15.1379130   7.9576630
  40.5087840  24.8861410   9.8263520  41.1261840  25.5612490   9.5447970
  39.6480960  25.2949390   9.7351020  51.4265430  26.3500820   7.7418160
  50.7428950  27.0199930   7.7334830  51.9659720  26.5481470   6.9763020
  52.8789570  16.1780480   5.8699890  51.9314480  16.2119460   6.0015320
  53.2039560  16.9919430   6.2549250  43.4109110  12.4777660   4.1655880
  43.7184090  11.9224550   3.4491380  42.4809810  12.6122120   3.9828870
  48.9624170  28.1944950   6.4563340  48.9751330  27.7907240   5.5885600
  48.4099390  28.9692240   6.3524770  48.3609610  23.0974790   7.7845950
  48.7778400  22.8834900   6.9499410  49.0849430  23.3547580   8.3554570
  52.3071710  21.4962010   7.8762190  51.4790340  21.5655100   7.4012320
  52.9022190  22.0816320   7.4078020  49.2713720  18.2831330   8.8217060
  48.8584900  19.1085040   9.0757050  48.5389670  17.6976370   8.6293420
  41.4046510  21.0691230   3.6835730  41.0003510  20.3568480   3.1881630
  41.4909630  20.7244470   4.5723770  41.8728210  24.7558790   5.8474940
  41.5756500  24.1504260   5.1682720  42.8228030  24.7936100   5.7364300
  40.1175130  17.8434440   7.4634770  40.6689720  17.9529780   6.6888020
  40.6318640  18.2172040   8.1790000  49.9613820  28.3290660   9.5098040
  49.4844380  29.1362850   9.3170650  49.2775610  27.6768990   9.6624250
  40.9646640  24.4940480  12.4982740  40.0675170  24.7180450  12.7456140
  40.9899510  24.6175420  11.5494140  39.7917860  21.3653800  11.0740110
  39.6525630  22.2376600  11.4427510  38.9099220  21.0226610  10.9288050
  46.1147240  26.2829670   2.3805240  46.5543150  27.0254000   1.9660630
  46.0534130  26.5256240   3.3044200  41.5898210  27.3075500  13.2825260
  41.5613640  27.7118450  12.4153690  41.4263180  26.3785860  13.1196860
  53.5413030  28.0902600  14.5789430  54.0172750  28.5685490  15.2578510
  54.1620190  28.0220090  13.8534930  35.7436510  23.1351350   6.9911020
  35.8216930  23.2700120   6.0466740  36.3578190  22.4267240   7.1839140
  36.9884140  24.8351540   3.4017200  36.5812220  24.9766130   2.5470800
  37.8797150  24.5511700   3.1988410  52.9446280  25.2815450  11.7389440
  53.0709340  25.0427330  10.8206620  52.9867660  24.4499990  12.2111520
  46.8063020  28.9843450  10.3084250  47.3207690  28.8951460  11.1106680
  45.9632100  29.3303150  10.6012160  48.0493480  28.4049060   2.3714740
  48.5050430  27.6238440   2.6853360  48.3886000  29.1155880   2.9155920
  52.7970290  17.3347910  12.7039180  52.1814560  17.8427580  12.1754640
  52.4766710  16.4346240  12.6465120  35.7996030  24.1765520   9.5305480
  35.9627070  23.7070880   8.7124850  36.2648480  23.6689080  10.1954320
  40.5714800  13.3071280   4.5666050  40.1282950  14.0880820   4.2350570
  41.1299790  13.6301170   5.2736990  44.8584610  16.1739800  10.1701370
  44.3963980  16.3822820  10.9821310  44.4562720  15.3599150   9.8672040
  49.8589120  17.3948750  11.2998030  49.0082710  17.0954500  11.6207100
  49.6990910  17.6390760  10.3881850  46.9538830  18.8950500  13.3996820
  47.2792240  18.0614250  13.0599050  47.7419160  19.4179020  13.5475150
  42.6090700  13.8518610   6.4255650  42.9063030  14.7581440   6.3447670
  43.1576260  13.3637390   5.8115220  40.3629020  18.4304850   2.2947300
  40.1369940  18.2142020   3.1993920  39.5821550  18.8633310   1.9493270
  42.8028230  19.3290430  12.9607570  42.7071830  18.3885160  12.8107970
  43.6460210  19.5505500  12.5655640  46.1991650  17.0731760   2.9241230
  46.5921220  17.3903960   2.1109920  46.5608500  16.1943640   3.0385750
  37.9338770  15.7404100  11.1141350  37.5402160  16.5879310  11.3214130
  37.2457170  15.1030470  11.3049990  44.5083820  15.8239070  14.1838090
  43.8182140  15.6311270  14.8184180  45.2516120  16.1073710  14.7162390
  35.2355820  13.6632560   5.1471430  34.9468870  14.2335420   5.8596410
  35.9801580  13.1837010   5.5102660  46.7846790  19.6637510   7.0192010
  46.0527910  20.1724320   7.3682110  46.3871130  18.8467490   6.7180790
  43.2224180  16.3391710   5.4244500  43.2260240  15.8981660   4.5749040
  44.1175300  16.6609040   5.5316320  39.0726560  16.2218200   4.3838710
  38.7326610  16.6993430   5.1405760  38.3103880  15.7683320   4.0239810
  47.2472700  15.1171190   6.4314950  47.2645440  15.5679840   7.2756800
  46.9988280  14.2176830   6.6448390  50.6743450  12.5303370  12.2701330
  50.9989220  11.7993030  12.7959310  50.7099960  12.2117010  11.3682320
  37.3735010  23.5516950  11.6901290  36.9889800  22.9110620  12.2884250
  37.6847200  24.2553070  12.2596020  43.5232150  20.3993490   7.1709910
  43.8902280  19.9252060   7.9171250  43.3337210  21.2735060   7.5118250
  36.3872640  15.1437180   3.3003380  36.1019560  14.7792850   4.1382000
  36.3251500  14.4117640   2.6866520  41.3131520  19.4402130   9.4894120
  41.0088590  20.3194110   9.7144480  42.2677980  19.5001920   9.5251560
  50.6001290  22.6428480   5.8787360  51.3200410  23.1383770   5.4883470
  50.3983110  21.9646370   5.2341230  45.9820090  22.7137540  11.7656360
  45.9157400  21.7933210  11.5113950  45.3525230  22.8112980  12.4801000
  39.8850710  23.3143500   3.7239780  40.4029380  22.5111760   3.6696670
  39.4334730  23.2522640   4.5656610  37.3695250  20.2804870  10.6365480
  37.0110190  20.9458720  11.2238820  37.0749810  19.4488420  11.0078100
  40.5708370  20.7389110  13.5205030  40.2708510  20.8846290  12.6232850
  41.3419610  20.1794400  13.4278420  45.9136820  25.5358110  11.5160160
  45.9281360  24.6039070  11.2979070  45.2061920  25.6217870  12.1549930
  52.1248030  22.1765450  10.8628740  51.3996220  22.7694230  10.6658130
  52.6523490  22.1688990  10.0642110  47.6547620  23.9025620   4.3612590
  48.0071440  23.3053750   3.7013960  46.7709950  23.5769850   4.5320840
  43.7410900  24.6623310   1.7683000  44.4282030  25.2092520   2.1490590
  42.9543320  25.2064040   1.8032610  45.3470720  27.1775680   8.6100660
  45.9912940  27.3835060   9.2874080  45.7100160  26.4164080   8.1571510
  46.6202800  25.1808030   7.3278110  47.2625030  24.4801190   7.4410280
  47.1452150  25.9606470   7.1475000  48.3940420  25.9802930  10.5314170
  48.7296660  26.5669620  11.2092090  47.4740760  25.8495640  10.7611960
  35.9443820  13.7698110  11.3137580  35.2302340  13.9695030  11.9190190
  36.3638860  12.9937680  11.6852380  36.2316410  27.7578370  12.3004110
  36.3407530  26.8173110  12.1599500  35.5796970  28.0233120  11.6517840
  44.2229000  26.0294260  13.7002230  43.9025870  25.3103500  14.2447920
  43.5487360  26.7049330  13.7738290  47.4382600  16.2620420   9.0639030
  47.8063420  15.4415630   9.3918600  46.5780800  16.3222310   9.4794680
  44.3984590  18.9160010   9.2877000  44.8969840  19.3905830   9.9528850
  44.5407540  17.9923530   9.4947030  46.8044090  14.2213970   2.7280260
  46.6811870  14.2400100   1.7789770  47.7528650  14.2692910   2.8478660
  51.6051450  15.1327970  10.1305390  51.1025050  15.8733370  10.4699200
  52.4208110  15.5211970   9.8142180  49.8973460  20.3761150   3.5766750
  48.9563600  20.3911380   3.7514440  50.2117530  19.5897110   4.0227050
  51.8999040  27.5470000   5.2521010  52.0246460  28.3701170   5.7244820
  52.7664600  27.3360730   4.9045160  39.3716570  29.6401210   4.9238140
  40.1079050  29.0916670   5.1946710  39.7557490  30.5057220   4.7844130
  38.3774850  28.8247280  14.1123720  39.1787580  29.1459330  14.5259120
  37.8626670  28.4642860  14.8343630  47.2139480  24.9327150  14.0599130
  46.6077640  24.9558750  13.3194880  46.9093590  24.2010190  14.5966380
  48.6439850  28.6607440  12.6708540  49.5961600  28.5765460  12.6208780
  48.4968070  29.3249150  13.3442330  36.0972660  21.3120740  13.0559770
  36.6011680  20.7328020  13.6276000  35.3580080  21.5960970  13.5936140
  43.1510600  22.7191730  12.5895290  42.3856270  23.2876730  12.5049960
  43.3326560  22.4267940  11.6963520  50.2933950  24.4497060  13.1470310
  51.0343420  24.7872820  12.6437770  49.5306630  24.6189120  12.5940080
  38.1295740  19.4550330  13.9509840  38.1701080  19.1564200  14.8595070
  38.9841240  19.8557940  13.7917360  40.0701550  18.0342430  11.9184330
  39.5398010  17.5433380  11.2907670  40.7389620  18.4626630  11.3842260
  48.9679610  22.5011890  11.6825520  49.3820630  22.6556970  12.5315940
  48.0330610  22.6267110  11.8451300  49.4401780  19.8408050  13.6864670
  50.0222550  19.0860370  13.5985150  49.6163550  20.3715490  12.9096150
  40.5573850  15.0004800  11.9981620  40.4630720  14.3825550  11.2732490
  39.9771240  15.7271090  11.7711530  43.3235290  13.5578040   9.0309010
  42.8752590  13.5802300   8.1854560  42.6900490  13.1597060   9.6279310
  43.7294840  22.4532370   9.6521450  44.1482950  23.2965100   9.4797690
  42.8103470  22.5904410   9.4228230  46.0658740  20.1848550  11.0359290
  46.1854950  19.5889690  11.7754130  46.9252740  20.2218240  10.6160590
  48.4046640  20.7385740   9.6121800  47.8781860  21.2628360   9.0086940
  48.7477980  21.3713130  10.2431530  41.5802260  28.7585380  10.7679180
  41.0423350  29.4831440  10.4487880  41.8336220  28.2815720   9.9776520
  42.8327510  16.7269900  12.2935110  43.4227200  16.4185750  12.9812930
  42.0147750  16.2549650  12.4495010  47.6520940  16.3435710  12.5268130
  46.9636460  15.6817250  12.4618120  48.3726960  15.8973980  12.9716590
  44.4364470  29.9936590  11.0265830  44.3623170  30.8971730  11.3338200
  43.5343310  29.6748490  10.9987900  35.8391760  27.3211180   4.3299450
  36.1694770  26.4532240   4.0978090  36.2682760  27.5269700   5.1604410
  36.3281970  28.1881770   7.0681080  35.8912960  28.3682570   7.9005230
  36.8959650  28.9456390   6.9262800  51.9644150  27.6898770  11.3558390
  51.3646140  27.7491330  10.6122310  52.0938050  26.7503750  11.4855240
  36.1606400  20.7002000   3.4269960  35.5055240  20.4313640   2.7829660
  36.9984350  20.5906480   2.9771940  53.6662030  23.0314170   4.0404230
  54.0370860  22.2481490   3.6340200  54.3063960  23.7203270   3.8621530
  50.6495790  24.4150750   9.4534550  49.8355630  24.8447910   9.7160340
  51.0569990  25.0269160   8.8403600  37.1982330  21.0854570   7.9673300
  37.5655370  20.9981970   8.8469320  36.6293150  20.3221120   7.8680160
  51.9986190  19.5538950  10.9803770  51.7672280  19.3251700  10.0801720
  52.2590740  20.4738500  10.9348660  36.7498330  17.9963660  11.8731720
  35.8554380  17.9630420  12.2125430  37.2895880  18.1950450  12.6382970
  50.4374260  14.7795380  13.7583470  51.3144440  14.7878780  14.1417470
  50.4495100  14.0426220  13.1475820  51.8837530  18.6324920   4.6471490
  52.4075010  18.1387570   4.0161660  52.4696950  18.7675280   5.3919060
  52.0627250  18.7164790   8.1691040  51.1129960  18.6828330   8.2836030
  52.2440260  19.6264900   7.9340810  37.2538040  12.2711990   6.2214940
  37.9014230  11.7209370   5.7810100  37.6739880  12.5255140   7.0430750
  52.8024660  16.5259220   3.1201580  52.6923940  16.3715260   4.0583850
  53.5632250  15.9980160   2.8776990  51.1490380  12.4653350   9.5784580
  51.7862600  13.0787490   9.9443770  51.2965270  12.5014010   8.6333810
  50.7071840  29.1669350   2.9802820  51.3030910  28.8453920   2.3037240
  50.9649990  28.6941170   3.7716090  37.0070040  12.4267660   8.9640260
  36.6584860  12.8831480   9.7298440  36.6757740  11.5324790   9.0462690
  38.6134410  25.5987260  13.1293450  38.5704040  25.2280170  14.0107910
  38.7445420  26.5364830  13.2695270  42.3140440  27.1546850   8.7303170
  42.0731800  27.4221410   7.8433690  43.2543080  27.3252580   8.7854030
  44.5194860  13.6179540  12.4859680  44.4583750  14.2101370  13.2355090
  45.4595240  13.5105500  12.3409940  47.1569420  13.2749600  12.1251970
  47.7709830  13.5928890  11.4633050  47.7018980  12.7898190  12.7447830
  53.5744600  29.1741230   9.5313810  53.0802880  29.5710100   8.8140940
  52.9657890  28.5490440   9.9251090  37.6790680  11.9543860  12.2391030
  38.2273670  11.7731910  11.4757140  37.7445990  11.1637970  12.7747340
  38.4522440  28.5449510  10.2491230  37.8582760  28.4134210  10.9881270
  38.4446280  27.7087650   9.7833330  47.8977460  11.8381740   8.4521260
  47.0237300  12.1716850   8.2494190  47.7888210  11.3654920   9.2773130
  48.8049440  14.0452610   9.8362980  48.4762800  13.2304370   9.4564710
  49.7531740  14.0022420   9.7128670  51.2584050  29.8164650   6.8100550
  50.7987020  30.5680460   6.4358570  50.6296510  29.0971120   6.7515350
  38.0834670  25.9107890   9.1999270  37.3568730  25.2913180   9.1325220
  38.1443820  26.3048500   8.3297350  41.6879770  28.1252890   5.9848680
  42.2044790  27.5140250   5.4596940  42.3377150  28.6281670   6.4759690
  44.4275270  29.0161380   6.8117660  44.7153080  28.7615680   5.9350670
  44.9398490  28.4638740   7.4023230  45.6452280  12.7551580   7.3914170
  44.8624070  13.2297080   7.6710930  45.3515210  11.8506410   7.2827350
  50.1973350  13.4574680   5.4363260  50.6381440  13.4019780   4.5884860
  49.9280940  14.3732690   5.5073440  52.0611920  13.0889920   3.4472080
  52.0000320  12.1451140   3.3003100  52.8403950  13.1970010   3.9925540
  36.3664670  29.2282280   2.4096030  36.1986710  28.5952960   3.1077920
  35.4999180  29.4341680   2.0590220  43.5306500  15.1738330   2.9030200
  42.7181010  14.7995220   2.5626080  44.0348140  14.4183410   3.2051390
  48.0331480  11.8380780   4.1413270  48.6360850  12.4100990   4.6161790
  47.2924470  12.4020220   3.9187170  44.4947630  29.9377480  14.1785860
  45.4214940  29.7021750  14.2221820  44.4798060  30.7649480  13.6971890
  41.6811240  12.6022230  13.9427740  41.3995510  13.1055830  13.1788560
  42.0630940  11.8043980  13.5769870  48.2826700  12.0175810  14.5208210
  48.1692150  12.3370420  15.4159730  49.0996440  12.4188320  14.2245490
  51.0625190  29.1647340  14.0026900  51.8550510  28.6696570  13.7952860
  51.3558340  29.8437480  14.6102510  45.3202890   3.0403810  99.4113160
  44.5444990   2.5604250  99.7011730  45.9715820   2.3609460  99.2369320
  39.3368720   3.3523620 100.2888920  38.5053600   3.0972330 100.6885430
  39.9449700   3.4234390 101.0246840  49.3410320   7.4464000  98.1912290
  48.8791850   6.6751240  98.5199460  50.1535870   7.4730070  98.6964740
  39.3169980   7.3863710 100.4846940  39.6198020   6.4961450 100.3057160
  40.0613570   7.9433930 100.2569190  45.5673630   9.7322010  97.8116280
  44.9485070  10.1879510  97.2410720  46.4225410   9.8873470  97.4105980
  44.7611880   5.7161000  99.4183320  44.6920160   4.7750940  99.2572450
  45.5231740   5.8062410  99.9905890  46.4336980   4.6161250  95.2048190
  45.8154250   5.0810700  94.6410910  46.9460230   5.3088730  95.6217700
  41.2968740   4.1437120 101.8831790  40.9638120   4.7706040 102.5252860
  41.4735420   4.6699000 101.1033460  35.8020180   5.3017780  92.5787820
  35.4248160   5.7904880  91.8472720  36.0593250   5.9743060  93.2094350
  51.4265430   7.5757330 101.6135610  50.7428950   8.2456440 101.6052280
  51.9659720   7.7737980 100.8480470  48.9624170   9.4201460 100.3280790
  48.9751330   9.0163750  99.4603050  48.4099390  10.1948750 100.2242220
  50.2569590   6.1417680  95.4170960  50.1465920   5.1992010  95.5420380
  50.2537840   6.5033320  96.3033720  48.3609610   4.3231300 101.6563400
  48.7778400   4.1091410 100.8216860  49.0849430   4.5804090 102.2272020
  45.7989870   1.7683000  94.7733450  44.8719150   1.7020380  95.0021920
  45.9514690   2.7063130  94.6588690  52.3071710   2.7218520 101.7479640
  51.4790340   2.7911610 101.2729770  52.9022190   3.3072830 101.2795470
  49.8287160   3.3303300  95.2768700  49.2099580   2.9922850  94.6295000
  49.8111610   2.6863060  95.9847890  41.4046510   2.2947740  97.5553180
  41.0003510   1.5824990  97.0599080  41.4909630   1.9500980  98.4441220
  41.8728210   5.9815300  99.7192390  41.5756500   5.3760770  99.0400170
  42.8228030   6.0192610  99.6081750  48.0051860   2.5690110  92.2841450
  48.4445140   1.7312540  92.1379270  48.7180280   3.2019510  92.3705590
  46.1147240   7.5086180  96.2522690  46.5543150   8.2510510  95.8378080
  46.0534130   7.7512750  97.1761650  35.7436510   4.3607860 100.8628470
  35.8216930   4.4956630  99.9184190  36.3578190   3.6523750 101.0556590
  36.9884140   6.0608050  97.2734650  36.5812220   6.2022640  96.4188250
  37.8797150   5.7768210  97.0705860  48.7817420  10.4955300  93.6085700
  48.6218560  10.2058240  94.5067530  48.6164130   9.7195430  93.0730930
  41.2605800  10.2753830  95.3857320  41.0848280   9.3589370  95.1725120
  40.4061540  10.6341120  95.6255120  48.4843550   8.0042860  92.1683700
  47.7908710   8.0020150  91.5085980  49.2266410   7.5802180  91.7377870
  48.0493480   9.6305570  96.2432190  48.5050430   8.8494950  96.5570810
  48.3886000  10.3412390  96.7873370  39.8413310   4.8719630  93.9578420
  39.0675570   4.3317250  93.7977140  40.5707940   4.3526240  93.6196180
  50.6001290   3.8684990  99.7504810  51.3200410   4.3640280  99.3600920
  50.3983110   3.1902880  99.1058680  39.8850710   4.5400010  97.5957230
  40.4029380   3.7368270  97.5414120  39.4334730   4.4779150  98.4374060
  44.7720210   5.8066290  92.8684530  45.1135910   6.5508520  92.3727850
  43.9432920   6.1197410  93.2309360  52.0761140   7.7996700  94.3858350
  51.4337300   7.1452320  94.6602070  51.6891800   8.2051790  93.6099020
  47.6547620   5.1282130  98.2330040  48.0071440   4.5310260  97.5731410
  46.7709950   4.8026360  98.4038290  43.7410900   5.8879820  95.6400450
  44.4282030   6.4349030  96.0208040  42.9543320   6.4320550  95.6750060
  43.0438110   2.8925850  95.2525810  43.5000890   3.7031100  95.4786000
  42.6926320   2.5748990  96.0844300  46.6202800   6.4064540 101.1995560
  47.2625030   5.7057700 101.3127730  47.1452150   7.1862980 101.0192450
  50.4658520   6.6913160  90.9234700  50.2396100   5.9743600  91.5159340
  50.0754720   6.4425600  90.0856450  36.2474550  10.7180020  91.6979160
  36.6072190  11.3169360  91.0436430  36.1066890  11.2639910  92.4714190
  50.0474770   4.6085100  92.5848860  49.7596470   5.0697790  93.3726740
  50.8426940   4.1482870  92.8533080  42.2643170   8.1011220  92.5152830
  42.2553270   8.8340910  91.8997340  41.3441530   7.8542800  92.6079790
  37.8649810   3.3226110  93.2599590  37.2577760   4.0625010  93.2694890
  38.3399160   3.4125470  92.4337790  45.2502770   8.1639460  91.1778020
  45.3514750   7.9603450  90.2480000  44.3504510   7.9097740  91.3825800
  43.8920880  10.6825780  95.8725690  44.1462380  10.6447170  94.9505060
  42.9433360  10.5559110  95.8653940  39.8755100   3.2837260  91.0088160
  40.6418370   3.1718620  91.5713590  39.9529790   2.5875230  90.3564930
  51.8999040   8.7726510  99.1238460  52.0246460   9.5957680  99.5962270
  52.7664600   8.5617240  98.7762610  39.3716570  10.8657720  98.7955590
  40.1079050  10.3173180  99.0664160  39.7557490  11.7313730  98.6561580
  36.2562050   6.9331290  94.6697100  35.3301830   7.1752430  94.6602510
  36.7218480   7.7605550  94.5481850  42.4818880  10.0388030  90.6181160
  43.2747490  10.3276860  90.1662950  41.9623230   9.6080200  89.9393640
  51.5349050   9.2658160  92.0417900  51.2490560   8.8523300  91.2272080
  51.3368600  10.1945870  91.9218420  42.9996280   5.2591440  90.4823510
  42.8946920   4.6443790  91.2084890  42.8320500   4.7357330  89.6986520
  46.2399010   4.3211470  91.0865500  45.6909110   4.7680770  91.7308240
  46.8618270   3.8160720  91.6103170  41.9074130   3.2802390  92.9830800
  42.3290550   3.1142260  93.8262190  42.0324970   2.4702620  92.4885940
  44.4201770   2.3040000  90.2307900  44.9407430   1.5889020  89.8649050
  45.0670170   2.9425870  90.5308410  44.9849800  10.3851610  92.5209640
  45.8800590  10.7236580  92.5428400  45.0167430   9.6631020  91.8933920
  38.6245960   5.7578660  90.7496640  39.0620830   6.3008330  91.4054220
  39.1093690   4.9325610  90.7592980  35.8391760   8.5467690  98.2016900
  36.1694770   7.6788750  97.9695540  36.2682760   8.7526210  99.0321860
  40.4353680   6.8776700  95.8618870  40.1349220   6.7541670  96.7622780
  40.3291170   6.0185290  95.4534600  36.3281970   9.4138280 100.9398530
  35.8912960   9.5939080 101.7722680  36.8959650  10.1712900 100.7980250
  53.2045600   6.6573100  90.5645550  52.3738560   6.7249750  91.0352780
  53.3817430   7.5477220  90.2612410  52.6602060   3.4020580  93.0679750
  53.4220970   3.9717230  93.1739440  52.6756430   2.8347780  93.8388060
  36.1606400   1.9258510  97.2987410  35.5055240   1.6570150  96.6547110
  36.9984350   1.8162990  96.8489390  53.6662030   4.2570680  97.9121680
  54.0370860   3.4738000  97.5057650  54.3063960   4.9459780  97.7338980
  52.7121230   3.6954950  90.2252270  52.9870070   4.6033830  90.0971490
  52.5231970   3.6317480  91.1614260  37.1982330   2.3111080 101.8390750
  37.5655370   2.2238480 102.7186770  36.6293150   1.5477630 101.7397610
  50.7071840  10.3925860  96.8520270  51.3030910  10.0710430  96.1754690
  50.9649990   9.9197680  97.6433540  42.3140440   8.3803360 102.6020620
  42.0731800   8.6477920 101.7151140  43.2543080   8.5509090 102.6571480
  51.2584050  11.0421160 100.6818000  50.7987020  11.7936970 100.3076020
  50.6296510  10.3227630 100.6232800  41.6879770   9.3509400  99.8566130
  42.2044790   8.7396760  99.3314390  42.3377150   9.8538180 100.3477140
  44.4275270  10.2417890 100.6835110  44.7153080   9.9872190  99.8068120
  44.9398490   9.6895250 101.2740680  36.3664670  10.4538790  96.2813480
  36.1986710   9.8209470  96.9795370  35.4999180  10.6598190  95.9307670
  37.9727370   9.1472020  93.7263620  37.4474990   9.5280050  93.0225580
  37.8971950   9.7722790  94.4473330  52.7292690  10.7059560  95.0477560
  52.9044880  10.0197300  94.4038480  52.0314260  11.2306610  94.6554230
  40.5720340  11.0954400  92.6012870  41.3039160  10.8113680  92.0536760
  40.8314010  10.8567680  93.4912250  39.7335130   7.2119130  92.6059200
  39.1044010   7.6804230  93.1545030  39.8482960   6.3668350  93.0405390
  45.3202890   3.0403810  80.6369670  44.5444990   2.5604250  80.9268240
  45.9715820   2.3609460  80.4625830  39.3368720   3.3523620  81.5145430
  38.5053600   3.0972330  81.9141940  39.9449700   3.4234390  82.2503350
  49.3410320   7.4464000  79.4168800  48.8791850   6.6751240  79.7455970
  50.1535870   7.4730070  79.9221250  39.3169980   7.3863710  81.7103450
  39.6198020   6.4961450  81.5313670  40.0613570   7.9433930  81.4825700
  45.5673630   9.7322010  79.0372790  44.9485070  10.1879510  78.4667230
  46.4225410   9.8873470  78.6362490  44.7611880   5.7161000  80.6439830
  44.6920160   4.7750940  80.4828960  45.5231740   5.8062410  81.2162400
  46.4336980   4.6161250  76.4304700  45.8154250   5.0810700  75.8667420
  46.9460230   5.3088730  76.8474210  41.2968740   4.1437120  83.1088300
  40.9638120   4.7706040  83.7509370  41.4735420   4.6699000  82.3289970
  40.5087840   6.1117920  84.9237480  41.1261840   6.7869000  84.6421930
  39.6480960   6.5205900  84.8324980  35.8020180   5.3017780  73.8044330
  35.4248160   5.7904880  73.0729230  36.0593250   5.9743060  74.4350860
  51.4265430   7.5757330  82.8392120  50.7428950   8.2456440  82.8308790
  51.9659720   7.7737980  82.0736980  48.9624170   9.4201460  81.5537300
  48.9751330   9.0163750  80.6859560  48.4099390  10.1948750  81.4498730
  50.2569590   6.1417680  76.6427470  50.1465920   5.1992010  76.7676890
  50.2537840   6.5033320  77.5290230  48.3609610   4.3231300  82.8819910
  48.7778400   4.1091410  82.0473370  49.0849430   4.5804090  83.4528530
  45.7989870   1.7683000  75.9989960  44.8719150   1.7020380  76.2278430
  45.9514690   2.7063130  75.8845200  52.3071710   2.7218520  82.9736150
  51.4790340   2.7911610  82.4986280  52.9022190   3.3072830  82.5051980
  49.8287160   3.3303300  76.5025210  49.2099580   2.9922850  75.8551510
  49.8111610   2.6863060  77.2104400  41.4046510   2.2947740  78.7809690
  41.0003510   1.5824990  78.2855590  41.4909630   1.9500980  79.6697730
  41.8728210   5.9815300  80.9448900  41.5756500   5.3760770  80.2656680
  42.8228030   6.0192610  80.8338260  49.9613820   9.5547170  84.6072000
  49.4844380  10.3619360  84.4144610  49.2775610   8.9025500  84.7598210
  40.9646640   5.7196990  87.5956700  40.0675170   5.9436960  87.8430100
  40.9899510   5.8431930  86.6468100  48.0051860   2.5690110  73.5097960
  48.4445140   1.7312540  73.3635780  48.7180280   3.2019510  73.5962100
  39.7917860   2.5910310  86.1714070  39.6525630   3.4633110  86.5401470
  38.9099220   2.2483120  86.0262010  46.1147240   7.5086180  77.4779200
  46.5543150   8.2510510  77.0634590  46.0534130   7.7512750  78.4018160
  41.5898210   8.5332010  88.3799220  41.5613640   8.9374960  87.5127650
  41.4263180   7.6042370  88.2170820  53.5413030   9.3159110  89.6763390
  54.0172750   9.7942000  90.3552470  54.1620190   9.2476600  88.9508890
  35.7436510   4.3607860  82.0884980  35.8216930   4.4956630  81.1440700
  36.3578190   3.6523750  82.2813100  36.9884140   6.0608050  78.4991160
  36.5812220   6.2022640  77.6444760  37.8797150   5.7768210  78.2962370
  52.9446280   6.5071960  86.8363400  53.0709340   6.2683840  85.9180580
  52.9867660   5.6756500  87.3085480  46.8063020  10.2099960  85.4058210
  47.3207690  10.1207970  86.2080640  45.9632100  10.5559660  85.6986120
  48.7817420  10.4955300  74.8342210  48.6218560  10.2058240  75.7324040
  48.6164130   9.7195430  74.2987440  41.2605800  10.2753830  76.6113830
  41.0848280   9.3589370  76.3981630  40.4061540  10.6341120  76.8511630
  48.4843550   8.0042860  73.3940210  47.7908710   8.0020150  72.7342490
  49.2266410   7.5802180  72.9634380  48.0493480   9.6305570  77.4688700
  48.5050430   8.8494950  77.7827320  48.3886000  10.3412390  78.0129880
  35.7996030   5.4022030  84.6279440  35.9627070   4.9327390  83.8098810
  36.2648480   4.8945590  85.2928280  37.3735010   4.7773460  86.7875250
  36.9889800   4.1367130  87.3858210  37.6847200   5.4809580  87.3569980
  39.8413310   4.8719630  75.1834930  39.0675570   4.3317250  75.0233650
  40.5707940   4.3526240  74.8452690  50.6001290   3.8684990  80.9761320
  51.3200410   4.3640280  80.5857430  50.3983110   3.1902880  80.3315190
  45.9820090   3.9394050  86.8630320  45.9157400   3.0189720  86.6087910
  45.3525230   4.0369490  87.5774960  39.8850710   4.5400010  78.8213740
  40.4029380   3.7368270  78.7670630  39.4334730   4.4779150  79.6630570
  44.7720210   5.8066290  74.0941040  45.1135910   6.5508520  73.5984360
  43.9432920   6.1197410  74.4565870  45.9136820   6.7614620  86.6134120
  45.9281360   5.8295580  86.3953030  45.2061920   6.8474380  87.2523890
  52.1248030   3.4021960  85.9602700  51.3996220   3.9950740  85.7632090
  52.6523490   3.3945500  85.1616070  52.0761140   7.7996700  75.6114860
  51.4337300   7.1452320  75.8858580  51.6891800   8.2051790  74.8355530
  47.6547620   5.1282130  79.4586550  48.0071440   4.5310260  78.7987920
  46.7709950   4.8026360  79.6294800  43.7410900   5.8879820  76.8656960
  44.4282030   6.4349030  77.2464550  42.9543320   6.4320550  76.9006570
  43.0438110   2.8925850  76.4782320  43.5000890   3.7031100  76.7042510
  42.6926320   2.5748990  77.3100810  45.3470720   8.4032190  83.7074620
  45.9912940   8.6091570  84.3848040  45.7100160   7.6420590  83.2545470
  46.6202800   6.4064540  82.4252070  47.2625030   5.7057700  82.5384240
  47.1452150   7.1862980  82.2448960  50.4658520   6.6913160  72.1491210
  50.2396100   5.9743600  72.7415850  50.0754720   6.4425600  71.3112960
  48.3940420   7.2059440  85.6288130  48.7296660   7.7926130  86.3066050
  47.4740760   7.0752150  85.8585920  36.2474550  10.7180020  72.9235670
  36.6072190  11.3169360  72.2692940  36.1066890  11.2639910  73.6970700
  50.0474770   4.6085100  73.8105370  49.7596470   5.0697790  74.5983250
  50.8426940   4.1482870  74.0789590  36.2316410   8.9834880  87.3978070
  36.3407530   8.0429620  87.2573460  35.5796970   9.2489630  86.7491800
  44.2229000   7.2550770  88.7976190  43.9025870   6.5360010  89.3421880
  43.5487360   7.9305840  88.8712250  42.2643170   8.1011220  73.7409340
  42.2553270   8.8340910  73.1253850  41.3441530   7.8542800  73.8336300
  37.8649810   3.3226110  74.4856100  37.2577760   4.0625010  74.4951400
  38.3399160   3.4125470  73.6594300  45.2502770   8.1639460  72.4034530
  45.3514750   7.9603450  71.4736510  44.3504510   7.9097740  72.6082310
  43.8920880  10.6825780  77.0982200  44.1462380  10.6447170  76.1761570
  42.9433360  10.5559110  77.0910450  39.8755100   3.2837260  72.2344670
  40.6418370   3.1718620  72.7970100  39.9529790   2.5875230  71.5821440
  51.8999040   8.7726510  80.3494970  52.0246460   9.5957680  80.8218780
  52.7664600   8.5617240  80.0019120  39.3716570  10.8657720  80.0212100
  40.1079050  10.3173180  80.2920670  39.7557490  11.7313730  79.8818090
  36.2562050   6.9331290  75.8953610  35.3301830   7.1752430  75.8859020
  36.7218480   7.7605550  75.7738360  38.3774850  10.0503790  89.2097680
  39.1787580  10.3715840  89.6233080  37.8626670   9.6899370  89.9317590
  42.4818880  10.0388030  71.8437670  43.2747490  10.3276860  71.3919460
  41.9623230   9.6080200  71.1650150  47.2139480   6.1583660  89.1573090
  46.6077640   6.1815260  88.4168840  46.9093590   5.4266700  89.6940340
  48.6439850   9.8863950  87.7682500  49.5961600   9.8021970  87.7182740
  48.4968070  10.5505660  88.4416290  51.5349050   9.2658160  73.2674410
  51.2490560   8.8523300  72.4528590  51.3368600  10.1945870  73.1474930
  36.0972660   2.5377250  88.1533730  36.6011680   1.9584530  88.7249960
  35.3580080   2.8217480  88.6910100  42.9996280   5.2591440  71.7080020
  42.8946920   4.6443790  72.4341400  42.8320500   4.7357330  70.9243030
  43.1510600   3.9448240  87.6869250  42.3856270   4.5133240  87.6023920
  43.3326560   3.6524450  86.7937480  46.2399010   4.3211470  72.3122010
  45.6909110   4.7680770  72.9564750  46.8618270   3.8160720  72.8359680
  50.2933950   5.6753570  88.2444270  51.0343420   6.0129330  87.7411730
  49.5306630   5.8445630  87.6914040  41.9074130   3.2802390  74.2087310
  42.3290550   3.1142260  75.0518700  42.0324970   2.4702620  73.7142450
  44.4201770   2.3040000  71.4564410  44.9407430   1.5889020  71.0905560
  45.0670170   2.9425870  71.7564920  48.9679610   3.7268400  86.7799480
  49.3820630   3.8813480  87.6289900  48.0330610   3.8523620  86.9425260
  43.7294840   3.6788880  84.7495410  44.1482950   4.5221610  84.5771650
  42.8103470   3.8160920  84.5202190  48.4046640   1.9642250  84.7095760
  47.8781860   2.4884870  84.1060900  48.7477980   2.5969640  85.3405490
  41.5802260   9.9841890  85.8653140  41.0423350  10.7087950  85.5461840
  41.8336220   9.5072230  85.0750480  44.4364470  11.2193100  86.1239790
  44.3623170  12.1228240  86.4312160  43.5343310  10.9005000  86.0961860
  44.9849800  10.3851610  73.7466150  45.8800590  10.7236580  73.7684910
  45.0167430   9.6631020  73.1190430  38.6245960   5.7578660  71.9753150
  39.0620830   6.3008330  72.6310730  39.1093690   4.9325610  71.9849490
  35.8391760   8.5467690  79.4273410  36.1694770   7.6788750  79.1952050
  36.2682760   8.7526210  80.2578370  40.4353680   6.8776700  77.0875380
  40.1349220   6.7541670  77.9879290  40.3291170   6.0185290  76.6791110
  36.3281970   9.4138280  82.1655040  35.8912960   9.5939080  82.9979190
  36.8959650  10.1712900  82.0236760  51.9644150   8.9155280  86.4532350
  51.3646140   8.9747840  85.7096270  52.0938050   7.9760260  86.5829200
  53.2045600   6.6573100  71.7902060  52.3738560   6.7249750  72.2609290
  53.3817430   7.5477220  71.4868920  52.6602060   3.4020580  74.2936260
  53.4220970   3.9717230  74.3995950  52.6756430   2.8347780  75.0644570
  36.1606400   1.9258510  78.5243920  35.5055240   1.6570150  77.8803620
  36.9984350   1.8162990  78.0745900  53.6662030   4.2570680  79.1378190
  54.0370860   3.4738000  78.7314160  54.3063960   4.9459780  78.9595490
  50.6495790   5.6407260  84.5508510  49.8355630   6.0704420  84.8134300
  51.0569990   6.2525670  83.9377560  52.7121230   3.6954950  71.4508780
  52.9870070   4.6033830  71.3228000  52.5231970   3.6317480  72.3870770
  37.1982330   2.3111080  83.0647260  37.5655370   2.2238480  83.9443280
  36.6293150   1.5477630  82.9654120  50.7071840  10.3925860  78.0776780
  51.3030910  10.0710430  77.4011200  50.9649990   9.9197680  78.8690050
  38.6134410   6.8243770  88.2267410  38.5704040   6.4536680  89.1081870
  38.7445420   7.7621340  88.3669230  42.3140440   8.3803360  83.8277130
  42.0731800   8.6477920  82.9407650  43.2543080   8.5509090  83.8827990
  53.5744600  10.3997740  84.6287770  53.0802880  10.7966610  83.9114900
  52.9657890   9.7746950  85.0225050  38.4522440   9.7706020  85.3465190
  37.8582760   9.6390720  86.0855230  38.4446280   8.9344160  84.8807290
  51.2584050  11.0421160  81.9074510  50.7987020  11.7936970  81.5332530
  50.6296510  10.3227630  81.8489310  38.0834670   7.1364400  84.2973230
  37.3568730   6.5169690  84.2299180  38.1443820   7.5305010  83.4271310
  41.6879770   9.3509400  81.0822640  42.2044790   8.7396760  80.5570900
  42.3377150   9.8538180  81.5733650  44.4275270  10.2417890  81.9091620
  44.7153080   9.9872190  81.0324630  44.9398490   9.6895250  82.4997190
  36.3664670  10.4538790  77.5069990  36.1986710   9.8209470  78.2051880
  35.4999180  10.6598190  77.1564180  37.9727370   9.1472020  74.9520130
  37.4474990   9.5280050  74.2482090  37.8971950   9.7722790  75.6729840
  44.4947630  11.1633990  89.2759820  45.4214940  10.9278260  89.3195780
  44.4798060  11.9905990  88.7945850  52.7292690  10.7059560  76.2734070
  52.9044880  10.0197300  75.6294990  52.0314260  11.2306610  75.8810740
  40.5720340  11.0954400  73.8269380  41.3039160  10.8113680  73.2793270
  40.8314010  10.8567680  74.7168760  39.7335130   7.2119130  73.8315710
  39.1044010   7.6804230  74.3801540  39.8482960   6.3668350  74.2661900
  51.0625190  10.3903850  89.1000860  51.8550510   9.8953080  88.8926820
  51.3558340  11.0693990  89.7076470  45.3202890   3.0403810  61.8626180
  44.5444990   2.5604250  62.1524750  45.9715820   2.3609460  61.6882340
  39.3368720   3.3523620  62.7401940  38.5053600   3.0972330  63.1398450
  39.9449700   3.4234390  63.4759860  49.3410320   7.4464000  60.6425310
  48.8791850   6.6751240  60.9712480  50.1535870   7.4730070  61.1477760
  39.3169980   7.3863710  62.9359960  39.6198020   6.4961450  62.7570180
  40.0613570   7.9433930  62.7082210  45.5673630   9.7322010  60.2629300
  44.9485070  10.1879510  59.6923740  46.4225410   9.8873470  59.8619000
  44.7611880   5.7161000  61.8696340  44.6920160   4.7750940  61.7085470
  45.5231740   5.8062410  62.4418910  46.4336980   4.6161250  57.6561210
  45.8154250   5.0810700  57.0923930  46.9460230   5.3088730  58.0730720
  41.2968740   4.1437120  64.3344810  40.9638120   4.7706040  64.9765880
  41.4735420   4.6699000  63.5546480  40.5087840   6.1117920  66.1493990
  41.1261840   6.7869000  65.8678440  39.6480960   6.5205900  66.0581490
  35.8020180   5.3017780  55.0300840  35.4248160   5.7904880  54.2985740
  36.0593250   5.9743060  55.6607370  51.4265430   7.5757330  64.0648630
  50.7428950   8.2456440  64.0565300  51.9659720   7.7737980  63.2993490
  48.9624170   9.4201460  62.7793810  48.9751330   9.0163750  61.9116070
  48.4099390  10.1948750  62.6755240  50.2569590   6.1417680  57.8683980
  50.1465920   5.1992010  57.9933400  50.2537840   6.5033320  58.7546740
  48.3609610   4.3231300  64.1076420  48.7778400   4.1091410  63.2729880
  49.0849430   4.5804090  64.6785040  45.7989870   1.7683000  57.2246470
  44.8719150   1.7020380  57.4534940  45.9514690   2.7063130  57.1101710
  52.3071710   2.7218520  64.1992660  51.4790340   2.7911610  63.7242790
  52.9022190   3.3072830  63.7308490  49.8287160   3.3303300  57.7281720
  49.2099580   2.9922850  57.0808020  49.8111610   2.6863060  58.4360910
  41.4046510   2.2947740  60.0066200  41.0003510   1.5824990  59.5112100
  41.4909630   1.9500980  60.8954240  41.8728210   5.9815300  62.1705410
  41.5756500   5.3760770  61.4913190  42.8228030   6.0192610  62.0594770
  49.9613820   9.5547170  65.8328510  49.4844380  10.3619360  65.6401120
  49.2775610   8.9025500  65.9854720  40.9646640   5.7196990  68.8213210
  40.0675170   5.9436960  69.0686610  40.9899510   5.8431930  67.8724610
  48.0051860   2.5690110  54.7354470  48.4445140   1.7312540  54.5892290
  48.7180280   3.2019510  54.8218610  39.7917860   2.5910310  67.3970580
  39.6525630   3.4633110  67.7657980  38.9099220   2.2483120  67.2518520
  46.1147240   7.5086180  58.7035710  46.5543150   8.2510510  58.2891100
  46.0534130   7.7512750  59.6274670  41.5898210   8.5332010  69.6055730
  41.5613640   8.9374960  68.7384160  41.4263180   7.6042370  69.4427330
  53.5413030   9.3159110  70.9019900  54.0172750   9.7942000  71.5808980
  54.1620190   9.2476600  70.1765400  35.7436510   4.3607860  63.3141490
  35.8216930   4.4956630  62.3697210  36.3578190   3.6523750  63.5069610
  36.9884140   6.0608050  59.7247670  36.5812220   6.2022640  58.8701270
  37.8797150   5.7768210  59.5218880  52.9446280   6.5071960  68.0619910
  53.0709340   6.2683840  67.1437090  52.9867660   5.6756500  68.5341990
  46.8063020  10.2099960  66.6314720  47.3207690  10.1207970  67.4337150
  45.9632100  10.5559660  66.9242630  48.7817420  10.4955300  56.0598720
  48.6218560  10.2058240  56.9580550  48.6164130   9.7195430  55.5243950
  41.2605800  10.2753830  57.8370340  41.0848280   9.3589370  57.6238140
  40.4061540  10.6341120  58.0768140  48.4843550   8.0042860  54.6196720
  47.7908710   8.0020150  53.9599000  49.2266410   7.5802180  54.1890890
  48.0493480   9.6305570  58.6945210  48.5050430   8.8494950  59.0083830
  48.3886000  10.3412390  59.2386390  35.7996030   5.4022030  65.8535950
  35.9627070   4.9327390  65.0355320  36.2648480   4.8945590  66.5184790
  37.3735010   4.7773460  68.0131760  36.9889800   4.1367130  68.6114720
  37.6847200   5.4809580  68.5826490  39.8413310   4.8719630  56.4091440
  39.0675570   4.3317250  56.2490160  40.5707940   4.3526240  56.0709200
  50.6001290   3.8684990  62.2017830  51.3200410   4.3640280  61.8113940
  50.3983110   3.1902880  61.5571700  45.9820090   3.9394050  68.0886830
  45.9157400   3.0189720  67.8344420  45.3525230   4.0369490  68.8031470
  39.8850710   4.5400010  60.0470250  40.4029380   3.7368270  59.9927140
  39.4334730   4.4779150  60.8887080  44.7720210   5.8066290  55.3197550
  45.1135910   6.5508520  54.8240870  43.9432920   6.1197410  55.6822380
  45.9136820   6.7614620  67.8390630  45.9281360   5.8295580  67.6209540
  45.2061920   6.8474380  68.4780400  52.1248030   3.4021960  67.1859210
  51.3996220   3.9950740  66.9888600  52.6523490   3.3945500  66.3872580
  52.0761140   7.7996700  56.8371370  51.4337300   7.1452320  57.1115090
  51.6891800   8.2051790  56.0612040  47.6547620   5.1282130  60.6843060
  48.0071440   4.5310260  60.0244430  46.7709950   4.8026360  60.8551310
  43.7410900   5.8879820  58.0913470  44.4282030   6.4349030  58.4721060
  42.9543320   6.4320550  58.1263080  43.0438110   2.8925850  57.7038830
  43.5000890   3.7031100  57.9299020  42.6926320   2.5748990  58.5357320
  45.3470720   8.4032190  64.9331130  45.9912940   8.6091570  65.6104550
  45.7100160   7.6420590  64.4801980  46.6202800   6.4064540  63.6508580
  47.2625030   5.7057700  63.7640750  47.1452150   7.1862980  63.4705470
  50.4658520   6.6913160  53.3747720  50.2396100   5.9743600  53.9672360
  50.0754720   6.4425600  52.5369470  48.3940420   7.2059440  66.8544640
  48.7296660   7.7926130  67.5322560  47.4740760   7.0752150  67.0842430
  36.2474550  10.7180020  54.1492180  36.6072190  11.3169360  53.4949450
  36.1066890  11.2639910  54.9227210  50.0474770   4.6085100  55.0361880
  49.7596470   5.0697790  55.8239760  50.8426940   4.1482870  55.3046100
  36.2316410   8.9834880  68.6234580  36.3407530   8.0429620  68.4829970
  35.5796970   9.2489630  67.9748310  44.2229000   7.2550770  70.0232700
  43.9025870   6.5360010  70.5678390  43.5487360   7.9305840  70.0968760
  42.2643170   8.1011220  54.9665850  42.2553270   8.8340910  54.3510360
  41.3441530   7.8542800  55.0592810  37.8649810   3.3226110  55.7112610
  37.2577760   4.0625010  55.7207910  38.3399160   3.4125470  54.8850810
  45.2502770   8.1639460  53.6291040  45.3514750   7.9603450  52.6993020
  44.3504510   7.9097740  53.8338820  43.8920880  10.6825780  58.3238710
  44.1462380  10.6447170  57.4018080  42.9433360  10.5559110  58.3166960
  39.8755100   3.2837260  53.4601180  40.6418370   3.1718620  54.0226610
  39.9529790   2.5875230  52.8077950  51.8999040   8.7726510  61.5751480
  52.0246460   9.5957680  62.0475290  52.7664600   8.5617240  61.2275630
  39.3716570  10.8657720  61.2468610  40.1079050  10.3173180  61.5177180
  39.7557490  11.7313730  61.1074600  36.2562050   6.9331290  57.1210120
  35.3301830   7.1752430  57.1115530  36.7218480   7.7605550  56.9994870
  38.3774850  10.0503790  70.4354190  39.1787580  10.3715840  70.8489590
  37.8626670   9.6899370  71.1574100  42.4818880  10.0388030  53.0694180
  43.2747490  10.3276860  52.6175970  41.9623230   9.6080200  52.3906660
  47.2139480   6.1583660  70.3829600  46.6077640   6.1815260  69.6425350
  46.9093590   5.4266700  70.9196850  48.6439850   9.8863950  68.9939010
  49.5961600   9.8021970  68.9439250  48.4968070  10.5505660  69.6672800
  51.5349050   9.2658160  54.4930920  51.2490560   8.8523300  53.6785100
  51.3368600  10.1945870  54.3731440  36.0972660   2.5377250  69.3790240
  36.6011680   1.9584530  69.9506470  35.3580080   2.8217480  69.9166610
  42.9996280   5.2591440  52.9336530  42.8946920   4.6443790  53.6597910
  42.8320500   4.7357330  52.1499540  43.1510600   3.9448240  68.9125760
  42.3856270   4.5133240  68.8280430  43.3326560   3.6524450  68.0193990
  46.2399010   4.3211470  53.5378520  45.6909110   4.7680770  54.1821260
  46.8618270   3.8160720  54.0616190  50.2933950   5.6753570  69.4700780
  51.0343420   6.0129330  68.9668240  49.5306630   5.8445630  68.9170550
  41.9074130   3.2802390  55.4343820  42.3290550   3.1142260  56.2775210
  42.0324970   2.4702620  54.9398960  44.4201770   2.3040000  52.6820920
  44.9407430   1.5889020  52.3162070  45.0670170   2.9425870  52.9821430
  48.9679610   3.7268400  68.0055990  49.3820630   3.8813480  68.8546410
  48.0330610   3.8523620  68.1681770  43.7294840   3.6788880  65.9751920
  44.1482950   4.5221610  65.8028160  42.8103470   3.8160920  65.7458700
  48.4046640   1.9642250  65.9352270  47.8781860   2.4884870  65.3317410
  48.7477980   2.5969640  66.5662000  41.5802260   9.9841890  67.0909650
  41.0423350  10.7087950  66.7718350  41.8336220   9.5072230  66.3006990
  44.4364470  11.2193100  67.3496300  44.3623170  12.1228240  67.6568670
  43.5343310  10.9005000  67.3218370  44.9849800  10.3851610  54.9722660
  45.8800590  10.7236580  54.9941420  45.0167430   9.6631020  54.3446940
  38.6245960   5.7578660  53.2009660  39.0620830   6.3008330  53.8567240
  39.1093690   4.9325610  53.2106000  35.8391760   8.5467690  60.6529920
  36.1694770   7.6788750  60.4208560  36.2682760   8.7526210  61.4834880
  40.4353680   6.8776700  58.3131890  40.1349220   6.7541670  59.2135800
  40.3291170   6.0185290  57.9047620  36.3281970   9.4138280  63.3911550
  35.8912960   9.5939080  64.2235700  36.8959650  10.1712900  63.2493270
  51.9644150   8.9155280  67.6788860  51.3646140   8.9747840  66.9352780
  52.0938050   7.9760260  67.8085710  53.2045600   6.6573100  53.0158570
  52.3738560   6.7249750  53.4865800  53.3817430   7.5477220  52.7125430
  52.6602060   3.4020580  55.5192770  53.4220970   3.9717230  55.6252460
  52.6756430   2.8347780  56.2901080  36.1606400   1.9258510  59.7500430
  35.5055240   1.6570150  59.1060130  36.9984350   1.8162990  59.3002410
  53.6662030   4.2570680  60.3634700  54.0370860   3.4738000  59.9570670
  54.3063960   4.9459780  60.1852000  50.6495790   5.6407260  65.7765020
  49.8355630   6.0704420  66.0390810  51.0569990   6.2525670  65.1634070
  52.7121230   3.6954950  52.6765290  52.9870070   4.6033830  52.5484510
  52.5231970   3.6317480  53.6127280  37.1982330   2.3111080  64.2903770
  37.5655370   2.2238480  65.1699790  36.6293150   1.5477630  64.1910630
  50.7071840  10.3925860  59.3033290  51.3030910  10.0710430  58.6267710
  50.9649990   9.9197680  60.0946560  38.6134410   6.8243770  69.4523920
  38.5704040   6.4536680  70.3338380  38.7445420   7.7621340  69.5925740
  42.3140440   8.3803360  65.0533640  42.0731800   8.6477920  64.1664160
  43.2543080   8.5509090  65.1084500  53.5744600  10.3997740  65.8544280
  53.0802880  10.7966610  65.1371410  52.9657890   9.7746950  66.2481560
  38.4522440   9.7706020  66.5721700  37.8582760   9.6390720  67.3111740
  38.4446280   8.9344160  66.1063800  51.2584050  11.0421160  63.1331020
  50.7987020  11.7936970  62.7589040  50.6296510  10.3227630  63.0745820
  38.0834670   7.1364400  65.5229740  37.3568730   6.5169690  65.4555690
  38.1443820   7.5305010  64.6527820  41.6879770   9.3509400  62.3079150
  42.2044790   8.7396760  61.7827410  42.3377150   9.8538180  62.7990160
  44.4275270  10.2417890  63.1348130  44.7153080   9.9872190  62.2581140
  44.9398490   9.6895250  63.7253700  36.3664670  10.4538790  58.7326500
  36.1986710   9.8209470  59.4308390  35.4999180  10.6598190  58.3820690
  37.9727370   9.1472020  56.1776640  37.4474990   9.5280050  55.4738600
  37.8971950   9.7722790  56.8986350  44.4947630  11.1633990  70.5016330
  45.4214940  10.9278260  70.5452290  44.4798060  11.9905990  70.0202360
  52.7292690  10.7059560  57.4990580  52.9044880  10.0197300  56.8551500
  52.0314260  11.2306610  57.1067250  40.5720340  11.0954400  55.0525890
  41.3039160  10.8113680  54.5049780  40.8314010  10.8567680  55.9425270
  39.7335130   7.2119130  55.0572220  39.1044010   7.6804230  55.6058050
  39.8482960   6.3668350  55.4918410  51.0625190  10.3903850  70.3257370
  51.8550510   9.8953080  70.1183330  51.3558340  11.0693990  70.9332980
  45.3202890   3.0403810  43.0882690  44.5444990   2.5604250  43.3781260
  45.9715820   2.3609460  42.9138850  39.3368720   3.3523620  43.9658450
  38.5053600   3.0972330  44.3654960  39.9449700   3.4234390  44.7016370
  49.3410320   7.4464000  41.8681820  48.8791850   6.6751240  42.1968990
  50.1535870   7.4730070  42.3734270  39.3169980   7.3863710  44.1616470
  39.6198020   6.4961450  43.9826690  40.0613570   7.9433930  43.9338720
  45.5673630   9.7322010  41.4885810  44.9485070  10.1879510  40.9180250
  46.4225410   9.8873470  41.0875510  44.7611880   5.7161000  43.0952850
  44.6920160   4.7750940  42.9341980  45.5231740   5.8062410  43.6675420
  46.4336980   4.6161250  38.8817720  45.8154250   5.0810700  38.3180440
  46.9460230   5.3088730  39.2987230  41.2968740   4.1437120  45.5601320
  40.9638120   4.7706040  46.2022390  41.4735420   4.6699000  44.7802990
  40.5087840   6.1117920  47.3750500  41.1261840   6.7869000  47.0934950
  39.6480960   6.5205900  47.2838000  35.8020180   5.3017780  36.2557350
  35.4248160   5.7904880  35.5242250  36.0593250   5.9743060  36.8863880
  51.4265430   7.5757330  45.2905140  50.7428950   8.2456440  45.2821810
  51.9659720   7.7737980  44.5250000  48.9624170   9.4201460  44.0050320
  48.9751330   9.0163750  43.1372580  48.4099390  10.1948750  43.9011750
  50.2569590   6.1417680  39.0940490  50.1465920   5.1992010  39.2189910
  50.2537840   6.5033320  39.9803250  48.3609610   4.3231300  45.3332930
  48.7778400   4.1091410  44.4986390  49.0849430   4.5804090  45.9041550
  45.7989870   1.7683000  38.4502980  44.8719150   1.7020380  38.6791450
  45.9514690   2.7063130  38.3358220  52.3071710   2.7218520  45.4249170
  51.4790340   2.7911610  44.9499300  52.9022190   3.3072830  44.9565000
  49.8287160   3.3303300  38.9538230  49.2099580   2.9922850  38.3064530
  49.8111610   2.6863060  39.6617420  41.4046510   2.2947740  41.2322710
  41.0003510   1.5824990  40.7368610  41.4909630   1.9500980  42.1210750
  41.8728210   5.9815300  43.3961920  41.5756500   5.3760770  42.7169700
  42.8228030   6.0192610  43.2851280  49.9613820   9.5547170  47.0585020
  49.4844380  10.3619360  46.8657630  49.2775610   8.9025500  47.2111230
  40.9646640   5.7196990  50.0469720  40.0675170   5.9436960  50.2943120
  40.9899510   5.8431930  49.0981120  48.0051860   2.5690110  35.9610980
  48.4445140   1.7312540  35.8148800  48.7180280   3.2019510  36.0475120
  39.7917860   2.5910310  48.6227090  39.6525630   3.4633110  48.9914490
  38.9099220   2.2483120  48.4775030  46.1147240   7.5086180  39.9292220
  46.5543150   8.2510510  39.5147610  46.0534130   7.7512750  40.8531180
  41.5898210   8.5332010  50.8312240  41.5613640   8.9374960  49.9640670
  41.4263180   7.6042370  50.6683840  53.5413030   9.3159110  52.1276410
  54.0172750   9.7942000  52.8065490  54.1620190   9.2476600  51.4021910
  35.7436510   4.3607860  44.5398000  35.8216930   4.4956630  43.5953720
  36.3578190   3.6523750  44.7326120  36.9884140   6.0608050  40.9504180
  36.5812220   6.2022640  40.0957780  37.8797150   5.7768210  40.7475390
  52.9446280   6.5071960  49.2876420  53.0709340   6.2683840  48.3693600
  52.9867660   5.6756500  49.7598500  46.8063020  10.2099960  47.8571230
  47.3207690  10.1207970  48.6593660  45.9632100  10.5559660  48.1499140
  48.7817420  10.4955300  37.2855230  48.6218560  10.2058240  38.1837060
  48.6164130   9.7195430  36.7500460  41.2605800  10.2753830  39.0626850
  41.0848280   9.3589370  38.8494650  40.4061540  10.6341120  39.3024650
  48.4843550   8.0042860  35.8453230  47.7908710   8.0020150  35.1855510
  49.2266410   7.5802180  35.4147400  48.0493480   9.6305570  39.9201720
  48.5050430   8.8494950  40.2340340  48.3886000  10.3412390  40.4642900
  35.7996030   5.4022030  47.0792460  35.9627070   4.9327390  46.2611830
  36.2648480   4.8945590  47.7441300  37.3735010   4.7773460  49.2388270
  36.9889800   4.1367130  49.8371230  37.6847200   5.4809580  49.8083000
  39.8413310   4.8719630  37.6347950  39.0675570   4.3317250  37.4746670
  40.5707940   4.3526240  37.2965710  50.6001290   3.8684990  43.4274340
  51.3200410   4.3640280  43.0370450  50.3983110   3.1902880  42.7828210
  45.9820090   3.9394050  49.3143340  45.9157400   3.0189720  49.0600930
  45.3525230   4.0369490  50.0287980  39.8850710   4.5400010  41.2726760
  40.4029380   3.7368270  41.2183650  39.4334730   4.4779150  42.1143590
  44.7720210   5.8066290  36.5454060  45.1135910   6.5508520  36.0497380
  43.9432920   6.1197410  36.9078890  45.9136820   6.7614620  49.0647140
  45.9281360   5.8295580  48.8466050  45.2061920   6.8474380  49.7036910
  52.1248030   3.4021960  48.4115720  51.3996220   3.9950740  48.2145110
  52.6523490   3.3945500  47.6129090  52.0761140   7.7996700  38.0627880
  51.4337300   7.1452320  38.3371600  51.6891800   8.2051790  37.2868550
  47.6547620   5.1282130  41.9099570  48.0071440   4.5310260  41.2500940
  46.7709950   4.8026360  42.0807820  43.7410900   5.8879820  39.3169980
  44.4282030   6.4349030  39.6977570  42.9543320   6.4320550  39.3519590
  43.0438110   2.8925850  38.9295340  43.5000890   3.7031100  39.1555530
  42.6926320   2.5748990  39.7613830  45.3470720   8.4032190  46.1587640
  45.9912940   8.6091570  46.8361060  45.7100160   7.6420590  45.7058490
  46.6202800   6.4064540  44.8765090  47.2625030   5.7057700  44.9897260
  47.1452150   7.1862980  44.6961980  50.4658520   6.6913160  34.6004230
  50.2396100   5.9743600  35.1928870  50.0754720   6.4425600  33.7625980
  48.3940420   7.2059440  48.0801150  48.7296660   7.7926130  48.7579070
  47.4740760   7.0752150  48.3098940  36.2474550  10.7180020  35.3748690
  36.6072190  11.3169360  34.7205960  36.1066890  11.2639910  36.1483720
  50.0474770   4.6085100  36.2618390  49.7596470   5.0697790  37.0496270
  50.8426940   4.1482870  36.5302610  36.2316410   8.9834880  49.8491090
  36.3407530   8.0429620  49.7086480  35.5796970   9.2489630  49.2004820
  44.2229000   7.2550770  51.2489210  43.9025870   6.5360010  51.7934900
  43.5487360   7.9305840  51.3225270  42.2643170   8.1011220  36.1922360
  42.2553270   8.8340910  35.5766870  41.3441530   7.8542800  36.2849320
  37.8649810   3.3226110  36.9369120  37.2577760   4.0625010  36.9464420
  38.3399160   3.4125470  36.1107320  45.2502770   8.1639460  34.8547550
  45.3514750   7.9603450  33.9249530  44.3504510   7.9097740  35.0595330
  43.8920880  10.6825780  39.5495220  44.1462380  10.6447170  38.6274590
  42.9433360  10.5559110  39.5423470  39.8755100   3.2837260  34.6857690
  40.6418370   3.1718620  35.2483120  39.9529790   2.5875230  34.0334460
  51.8999040   8.7726510  42.8007990  52.0246460   9.5957680  43.2731800
  52.7664600   8.5617240  42.4532140  39.3716570  10.8657720  42.4725120
  40.1079050  10.3173180  42.7433690  39.7557490  11.7313730  42.3331110
  36.2562050   6.9331290  38.3466630  35.3301830   7.1752430  38.3372040
  36.7218480   7.7605550  38.2251380  38.3774850  10.0503790  51.6610700
  39.1787580  10.3715840  52.0746100  37.8626670   9.6899370  52.3830610
  42.4818880  10.0388030  34.2950690  43.2747490  10.3276860  33.8432480
  41.9623230   9.6080200  33.6163170  47.2139480   6.1583660  51.6086110
  46.6077640   6.1815260  50.8681860  46.9093590   5.4266700  52.1453360
  48.6439850   9.8863950  50.2195520  49.5961600   9.8021970  50.1695760
  48.4968070  10.5505660  50.8929310  51.5349050   9.2658160  35.7187430
  51.2490560   8.8523300  34.9041610  51.3368600  10.1945870  35.5987950
  36.0972660   2.5377250  50.6046750  36.6011680   1.9584530  51.1762980
  35.3580080   2.8217480  51.1423120  42.9996280   5.2591440  34.1593040
  42.8946920   4.6443790  34.8854420  42.8320500   4.7357330  33.3756050
  43.1510600   3.9448240  50.1382270  42.3856270   4.5133240  50.0536940
  43.3326560   3.6524450  49.2450500  46.2399010   4.3211470  34.7635030
  45.6909110   4.7680770  35.4077770  46.8618270   3.8160720  35.2872700
  50.2933950   5.6753570  50.6957290  51.0343420   6.0129330  50.1924750
  49.5306630   5.8445630  50.1427060  41.9074130   3.2802390  36.6600330
  42.3290550   3.1142260  37.5031720  42.0324970   2.4702620  36.1655470
  44.4201770   2.3040000  33.9077430  44.9407430   1.5889020  33.5418580
  45.0670170   2.9425870  34.2077940  48.9679610   3.7268400  49.2312500
  49.3820630   3.8813480  50.0802920  48.0330610   3.8523620  49.3938280
  43.7294840   3.6788880  47.2008430  44.1482950   4.5221610  47.0284670
  42.8103470   3.8160920  46.9715210  48.4046640   1.9642250  47.1608780
  47.8781860   2.4884870  46.5573920  48.7477980   2.5969640  47.7918510
  41.5802260   9.9841890  48.3166160  41.0423350  10.7087950  47.9974860
  41.8336220   9.5072230  47.5263500  44.4364470  11.2193100  48.5752810
  44.3623170  12.1228240  48.8825180  43.5343310  10.9005000  48.5474880
  44.9849800  10.3851610  36.1979170  45.8800590  10.7236580  36.2197930
  45.0167430   9.6631020  35.5703450  38.6245960   5.7578660  34.4266170
  39.0620830   6.3008330  35.0823750  39.1093690   4.9325610  34.4362510
  35.8391760   8.5467690  41.8786430  36.1694770   7.6788750  41.6465070
  36.2682760   8.7526210  42.7091390  40.4353680   6.8776700  39.5388400
  40.1349220   6.7541670  40.4392310  40.3291170   6.0185290  39.1304130
  36.3281970   9.4138280  44.6168060  35.8912960   9.5939080  45.4492210
  36.8959650  10.1712900  44.4749780  51.9644150   8.9155280  48.9045370
  51.3646140   8.9747840  48.1609290  52.0938050   7.9760260  49.0342220
  53.2045600   6.6573100  34.2415080  52.3738560   6.7249750  34.7122310
  53.3817430   7.5477220  33.9381940  52.6602060   3.4020580  36.7449280
  53.4220970   3.9717230  36.8508970  52.6756430   2.8347780  37.5157590
  36.1606400   1.9258510  40.9756940  35.5055240   1.6570150  40.3316640
  36.9984350   1.8162990  40.5258920  53.6662030   4.2570680  41.5891210
  54.0370860   3.4738000  41.1827180  54.3063960   4.9459780  41.4108510
  50.6495790   5.6407260  47.0021530  49.8355630   6.0704420  47.2647320
  51.0569990   6.2525670  46.3890580  52.7121230   3.6954950  33.9021800
  52.9870070   4.6033830  33.7741020  52.5231970   3.6317480  34.8383790
  37.1982330   2.3111080  45.5160280  37.5655370   2.2238480  46.3956300
  36.6293150   1.5477630  45.4167140  50.7071840  10.3925860  40.5289800
  51.3030910  10.0710430  39.8524220  50.9649990   9.9197680  41.3203070
  38.6134410   6.8243770  50.6780430  38.5704040   6.4536680  51.5594890
  38.7445420   7.7621340  50.8182250  42.3140440   8.3803360  46.2790150
  42.0731800   8.6477920  45.3920670  43.2543080   8.5509090  46.3341010
  53.5744600  10.3997740  47.0800790  53.0802880  10.7966610  46.3627920
  52.9657890   9.7746950  47.4738070  38.4522440   9.7706020  47.7978210
  37.8582760   9.6390720  48.5368250  38.4446280   8.9344160  47.3320310
  51.2584050  11.0421160  44.3587530  50.7987020  11.7936970  43.9845550
  50.6296510  10.3227630  44.3002330  38.0834670   7.1364400  46.7486250
  37.3568730   6.5169690  46.6812200  38.1443820   7.5305010  45.8784330
  41.6879770   9.3509400  43.5335660  42.2044790   8.7396760  43.0083920
  42.3377150   9.8538180  44.0246670  44.4275270  10.2417890  44.3604640
  44.7153080   9.9872190  43.4837650  44.9398490   9.6895250  44.9510210
  36.3664670  10.4538790  39.9583010  36.1986710   9.8209470  40.6564900
  35.4999180  10.6598190  39.6077200  37.9727370   9.1472020  37.4033150
  37.4474990   9.5280050  36.6995110  37.8971950   9.7722790  38.1242860
  44.4947630  11.1633990  51.7272840  45.4214940  10.9278260  51.7708800
  44.4798060  11.9905990  51.2458870  52.7292690  10.7059560  38.7247090
  52.9044880  10.0197300  38.0808010  52.0314260  11.2306610  38.3323760
  40.5720340  11.0954400  36.2782400  41.3039160  10.8113680  35.7306290
  40.8314010  10.8567680  37.1681780  39.7335130   7.2119130  36.2828730
  39.1044010   7.6804230  36.8314560  39.8482960   6.3668350  36.7174920
  51.0625190  10.3903850  51.5513880  51.8550510   9.8953080  51.3439840
  51.3558340  11.0693990  52.1589490  45.3202890   3.0403810  24.3139200
  44.5444990   2.5604250  24.6037770  45.9715820   2.3609460  24.1395360
  39.3368720   3.3523620  25.1914960  38.5053600   3.0972330  25.5911470
  39.9449700   3.4234390  25.9272880  49.3410320   7.4464000  23.0938330
  48.8791850   6.6751240  23.4225500  50.1535870   7.4730070  23.5990780
  39.3169980   7.3863710  25.3872980  39.6198020   6.4961450  25.2083200
  40.0613570   7.9433930  25.1595230  45.5673630   9.7322010  22.7142320
  44.9485070  10.1879510  22.1436760  46.4225410   9.8873470  22.3132020
  44.7611880   5.7161000  24.3209360  44.6920160   4.7750940  24.1598490
  45.5231740   5.8062410  24.8931930  46.4336980   4.6161250  20.1074230
  45.8154250   5.0810700  19.5436950  46.9460230   5.3088730  20.5243740
  41.2968740   4.1437120  26.7857830  40.9638120   4.7706040  27.4278900
  41.4735420   4.6699000  26.0059500  40.5087840   6.1117920  28.6007010
  41.1261840   6.7869000  28.3191460  39.6480960   6.5205900  28.5094510
  35.8020180   5.3017780  17.4813860  35.4248160   5.7904880  16.7498760
  36.0593250   5.9743060  18.1120390  51.4265430   7.5757330  26.5161650
  50.7428950   8.2456440  26.5078320  51.9659720   7.7737980  25.7506510
  48.9624170   9.4201460  25.2306830  48.9751330   9.0163750  24.3629090
  48.4099390  10.1948750  25.1268260  50.2569590   6.1417680  20.3197000
  50.1465920   5.1992010  20.4446420  50.2537840   6.5033320  21.2059760
  48.3609610   4.3231300  26.5589440  48.7778400   4.1091410  25.7242900
  49.0849430   4.5804090  27.1298060  45.7989870   1.7683000  19.6759490
  44.8719150   1.7020380  19.9047960  45.9514690   2.7063130  19.5614730
  52.3071710   2.7218520  26.6505680  51.4790340   2.7911610  26.1755810
  52.9022190   3.3072830  26.1821510  49.8287160   3.3303300  20.1794740
  49.2099580   2.9922850  19.5321040  49.8111610   2.6863060  20.8873930
  41.4046510   2.2947740  22.4579220  41.0003510   1.5824990  21.9625120
  41.4909630   1.9500980  23.3467260  41.8728210   5.9815300  24.6218430
  41.5756500   5.3760770  23.9426210  42.8228030   6.0192610  24.5107790
  49.9613820   9.5547170  28.2841530  49.4844380  10.3619360  28.0914140
  49.2775610   8.9025500  28.4367740  40.9646640   5.7196990  31.2726230
  40.0675170   5.9436960  31.5199630  40.9899510   5.8431930  30.3237630
  48.0051860   2.5690110  17.1867490  48.4445140   1.7312540  17.0405310
  48.7180280   3.2019510  17.2731630  39.7917860   2.5910310  29.8483600
  39.6525630   3.4633110  30.2171000  38.9099220   2.2483120  29.7031540
  46.1147240   7.5086180  21.1548730  46.5543150   8.2510510  20.7404120
  46.0534130   7.7512750  22.0787690  41.5898210   8.5332010  32.0568750
  41.5613640   8.9374960  31.1897180  41.4263180   7.6042370  31.8940350
  53.5413030   9.3159110  33.3532920  54.0172750   9.7942000  34.0322000
  54.1620190   9.2476600  32.6278420  35.7436510   4.3607860  25.7654510
  35.8216930   4.4956630  24.8210230  36.3578190   3.6523750  25.9582630
  36.9884140   6.0608050  22.1760690  36.5812220   6.2022640  21.3214290
  37.8797150   5.7768210  21.9731900  52.9446280   6.5071960  30.5132930
  53.0709340   6.2683840  29.5950110  52.9867660   5.6756500  30.9855010
  46.8063020  10.2099960  29.0827740  47.3207690  10.1207970  29.8850170
  45.9632100  10.5559660  29.3755650  48.7817420  10.4955300  18.5111740
  48.6218560  10.2058240  19.4093570  48.6164130   9.7195430  17.9756970
  41.2605800  10.2753830  20.2883360  41.0848280   9.3589370  20.0751160
  40.4061540  10.6341120  20.5281160  48.4843550   8.0042860  17.0709740
  47.7908710   8.0020150  16.4112020  49.2266410   7.5802180  16.6403910
  48.0493480   9.6305570  21.1458230  48.5050430   8.8494950  21.4596850
  48.3886000  10.3412390  21.6899410  35.7996030   5.4022030  28.3048970
  35.9627070   4.9327390  27.4868340  36.2648480   4.8945590  28.9697810
  37.3735010   4.7773460  30.4644780  36.9889800   4.1367130  31.0627740
  37.6847200   5.4809580  31.0339510  39.8413310   4.8719630  18.8604460
  39.0675570   4.3317250  18.7003180  40.5707940   4.3526240  18.5222220
  50.6001290   3.8684990  24.6530850  51.3200410   4.3640280  24.2626960
  50.3983110   3.1902880  24.0084720  45.9820090   3.9394050  30.5399850
  45.9157400   3.0189720  30.2857440  45.3525230   4.0369490  31.2544490
  39.8850710   4.5400010  22.4983270  40.4029380   3.7368270  22.4440160
  39.4334730   4.4779150  23.3400100  44.7720210   5.8066290  17.7710570
  45.1135910   6.5508520  17.2753890  43.9432920   6.1197410  18.1335400
  45.9136820   6.7614620  30.2903650  45.9281360   5.8295580  30.0722560
  45.2061920   6.8474380  30.9293420  52.1248030   3.4021960  29.6372230
  51.3996220   3.9950740  29.4401620  52.6523490   3.3945500  28.8385600
  52.0761140   7.7996700  19.2884390  51.4337300   7.1452320  19.5628110
  51.6891800   8.2051790  18.5125060  47.6547620   5.1282130  23.1356080
  48.0071440   4.5310260  22.4757450  46.7709950   4.8026360  23.3064330
  43.7410900   5.8879820  20.5426490  44.4282030   6.4349030  20.9234080
  42.9543320   6.4320550  20.5776100  43.0438110   2.8925850  20.1551850
  43.5000890   3.7031100  20.3812040  42.6926320   2.5748990  20.9870340
  45.3470720   8.4032190  27.3844150  45.9912940   8.6091570  28.0617570
  45.7100160   7.6420590  26.9315000  46.6202800   6.4064540  26.1021600
  47.2625030   5.7057700  26.2153770  47.1452150   7.1862980  25.9218490
  50.4658520   6.6913160  15.8260740  50.2396100   5.9743600  16.4185380
  50.0754720   6.4425600  14.9882490  48.3940420   7.2059440  29.3057660
  48.7296660   7.7926130  29.9835580  47.4740760   7.0752150  29.5355450
  36.2474550  10.7180020  16.6005200  36.6072190  11.3169360  15.9462470
  36.1066890  11.2639910  17.3740230  50.0474770   4.6085100  17.4874900
  49.7596470   5.0697790  18.2752780  50.8426940   4.1482870  17.7559120
  36.2316410   8.9834880  31.0747600  36.3407530   8.0429620  30.9342990
  35.5796970   9.2489630  30.4261330  44.2229000   7.2550770  32.4745720
  43.9025870   6.5360010  33.0191410  43.5487360   7.9305840  32.5481780
  42.2643170   8.1011220  17.4178870  42.2553270   8.8340910  16.8023380
  41.3441530   7.8542800  17.5105830  37.8649810   3.3226110  18.1625630
  37.2577760   4.0625010  18.1720930  38.3399160   3.4125470  17.3363830
  45.2502770   8.1639460  16.0804060  45.3514750   7.9603450  15.1506040
  44.3504510   7.9097740  16.2851840  43.8920880  10.6825780  20.7751730
  44.1462380  10.6447170  19.8531100  42.9433360  10.5559110  20.7679980
  39.8755100   3.2837260  15.9114200  40.6418370   3.1718620  16.4739630
  39.9529790   2.5875230  15.2590970  51.8999040   8.7726510  24.0264500
  52.0246460   9.5957680  24.4988310  52.7664600   8.5617240  23.6788650
  39.3716570  10.8657720  23.6981630  40.1079050  10.3173180  23.9690200
  39.7557490  11.7313730  23.5587620  36.2562050   6.9331290  19.5723140
  35.3301830   7.1752430  19.5628550  36.7218480   7.7605550  19.4507890
  38.3774850  10.0503790  32.8867210  39.1787580  10.3715840  33.3002610
  37.8626670   9.6899370  33.6087120  42.4818880  10.0388030  15.5207200
  43.2747490  10.3276860  15.0688990  41.9623230   9.6080200  14.8419680
  47.2139480   6.1583660  32.8342620  46.6077640   6.1815260  32.0938370
  46.9093590   5.4266700  33.3709870  48.6439850   9.8863950  31.4452030
  49.5961600   9.8021970  31.3952270  48.4968070  10.5505660  32.1185820
  51.5349050   9.2658160  16.9443940  51.2490560   8.8523300  16.1298120
  51.3368600  10.1945870  16.8244460  36.0972660   2.5377250  31.8303260
  36.6011680   1.9584530  32.4019490  35.3580080   2.8217480  32.3679630
  42.9996280   5.2591440  15.3849550  42.8946920   4.6443790  16.1110930
  42.8320500   4.7357330  14.6012560  43.1510600   3.9448240  31.3638780
  42.3856270   4.5133240  31.2793450  43.3326560   3.6524450  30.4707010
  46.2399010   4.3211470  15.9891540  45.6909110   4.7680770  16.6334280
  46.8618270   3.8160720  16.5129210  50.2933950   5.6753570  31.9213800
  51.0343420   6.0129330  31.4181260  49.5306630   5.8445630  31.3683570
  41.9074130   3.2802390  17.8856840  42.3290550   3.1142260  18.7288230
  42.0324970   2.4702620  17.3911980  44.4201770   2.3040000  15.1333940
  44.9407430   1.5889020  14.7675090  45.0670170   2.9425870  15.4334450
  48.9679610   3.7268400  30.4569010  49.3820630   3.8813480  31.3059430
  48.0330610   3.8523620  30.6194790  43.7294840   3.6788880  28.4264940
  44.1482950   4.5221610  28.2541180  42.8103470   3.8160920  28.1971720
  48.4046640   1.9642250  28.3865290  47.8781860   2.4884870  27.7830430
  48.7477980   2.5969640  29.0175020  41.5802260   9.9841890  29.5422670
  41.0423350  10.7087950  29.2231370  41.8336220   9.5072230  28.7520010
  44.4364470  11.2193100  29.8009320  44.3623170  12.1228240  30.1081690
  43.5343310  10.9005000  29.7731390  44.9849800  10.3851610  17.4235680
  45.8800590  10.7236580  17.4454440  45.0167430   9.6631020  16.7959960
  38.6245960   5.7578660  15.6522680  39.0620830   6.3008330  16.3080260
  39.1093690   4.9325610  15.6619020  35.8391760   8.5467690  23.1042940
  36.1694770   7.6788750  22.8721580  36.2682760   8.7526210  23.9347900
  40.4353680   6.8776700  20.7644910  40.1349220   6.7541670  21.6648820
  40.3291170   6.0185290  20.3560640  36.3281970   9.4138280  25.8424570
  35.8912960   9.5939080  26.6748720  36.8959650  10.1712900  25.7006290
  51.9644150   8.9155280  30.1301880  51.3646140   8.9747840  29.3865800
  52.0938050   7.9760260  30.2598730  53.2045600   6.6573100  15.4671590
  52.3738560   6.7249750  15.9378820  53.3817430   7.5477220  15.1638450
  52.6602060   3.4020580  17.9705790  53.4220970   3.9717230  18.0765480
  52.6756430   2.8347780  18.7414100  36.1606400   1.9258510  22.2013450
  35.5055240   1.6570150  21.5573150  36.9984350   1.8162990  21.7515430
  53.6662030   4.2570680  22.8147720  54.0370860   3.4738000  22.4083690
  54.3063960   4.9459780  22.6365020  50.6495790   5.6407260  28.2278040
  49.8355630   6.0704420  28.4903830  51.0569990   6.2525670  27.6147090
  52.7121230   3.6954950  15.1278310  52.9870070   4.6033830  14.9997530
  52.5231970   3.6317480  16.0640300  37.1982330   2.3111080  26.7416790
  37.5655370   2.2238480  27.6212810  36.6293150   1.5477630  26.6423650
  50.7071840  10.3925860  21.7546310  51.3030910  10.0710430  21.0780730
  50.9649990   9.9197680  22.5459580  38.6134410   6.8243770  31.9036940
  38.5704040   6.4536680  32.7851400  38.7445420   7.7621340  32.0438760
  42.3140440   8.3803360  27.5046660  42.0731800   8.6477920  26.6177180
  43.2543080   8.5509090  27.5597520  53.5744600  10.3997740  28.3057300
  53.0802880  10.7966610  27.5884430  52.9657890   9.7746950  28.6994580
  38.4522440   9.7706020  29.0234720  37.8582760   9.6390720  29.7624760
  38.4446280   8.9344160  28.5576820  51.2584050  11.0421160  25.5844040
  50.7987020  11.7936970  25.2102060  50.6296510  10.3227630  25.5258840
  38.0834670   7.1364400  27.9742760  37.3568730   6.5169690  27.9068710
  38.1443820   7.5305010  27.1040840  41.6879770   9.3509400  24.7592170
  42.2044790   8.7396760  24.2340430  42.3377150   9.8538180  25.2503180
  44.4275270  10.2417890  25.5861150  44.7153080   9.9872190  24.7094160
  44.9398490   9.6895250  26.1766720  36.3664670  10.4538790  21.1839520
  36.1986710   9.8209470  21.8821410  35.4999180  10.6598190  20.8333710
  37.9727370   9.1472020  18.6289660  37.4474990   9.5280050  17.9251620
  37.8971950   9.7722790  19.3499370  44.4947630  11.1633990  32.9529350
  45.4214940  10.9278260  32.9965310  44.4798060  11.9905990  32.4715380
  52.7292690  10.7059560  19.9503600  52.9044880  10.0197300  19.3064520
  52.0314260  11.2306610  19.5580270  40.5720340  11.0954400  17.5038910
  41.3039160  10.8113680  16.9562800  40.8314010  10.8567680  18.3938290
  39.7335130   7.2119130  17.5085240  39.1044010   7.6804230  18.0571070
  39.8482960   6.3668350  17.9431430  51.0625190  10.3903850  32.7770390
  51.8550510   9.8953080  32.5696350  51.3558340  11.0693990  33.3846000
  45.3202890   3.0403810   5.5395710  44.5444990   2.5604250   5.8294280
  45.9715820   2.3609460   5.3651870  39.3368720   3.3523620   6.4171470
  38.5053600   3.0972330   6.8167980  39.9449700   3.4234390   7.1529390
  49.3410320   7.4464000   4.3194840  48.8791850   6.6751240   4.6482010
  50.1535870   7.4730070   4.8247290  39.3169980   7.3863710   6.6129490
  39.6198020   6.4961450   6.4339710  40.0613570   7.9433930   6.3851740
  45.5673630   9.7322010   3.9398830  44.9485070  10.1879510   3.3693270
  46.4225410   9.8873470   3.5388530  44.7611880   5.7161000   5.5465870
  44.6920160   4.7750940   5.3855000  45.5231740   5.8062410   6.1188440
  41.2968740   4.1437120   8.0114340  40.9638120   4.7706040   8.6535410
  41.4735420   4.6699000   7.2316010  40.5087840   6.1117920   9.8263520
  41.1261840   6.7869000   9.5447970  39.6480960   6.5205900   9.7351020
  51.4265430   7.5757330   7.7418160  50.7428950   8.2456440   7.7334830
  51.9659720   7.7737980   6.9763020  48.9624170   9.4201460   6.4563340
  48.9751330   9.0163750   5.5885600  48.4099390  10.1948750   6.3524770
  48.3609610   4.3231300   7.7845950  48.7778400   4.1091410   6.9499410
  49.0849430   4.5804090   8.3554570  52.3071710   2.7218520   7.8762190
  51.4790340   2.7911610   7.4012320  52.9022190   3.3072830   7.4078020
  41.4046510   2.2947740   3.6835730  41.0003510   1.5824990   3.1881630
  41.4909630   1.9500980   4.5723770  41.8728210   5.9815300   5.8474940
  41.5756500   5.3760770   5.1682720  42.8228030   6.0192610   5.7364300
  49.9613820   9.5547170   9.5098040  49.4844380  10.3619360   9.3170650
  49.2775610   8.9025500   9.6624250  40.9646640   5.7196990  12.4982740
  40.0675170   5.9436960  12.7456140  40.9899510   5.8431930  11.5494140
  39.7917860   2.5910310  11.0740110  39.6525630   3.4633110  11.4427510
  38.9099220   2.2483120  10.9288050  46.1147240   7.5086180   2.3805240
  46.5543150   8.2510510   1.9660630  46.0534130   7.7512750   3.3044200
  41.5898210   8.5332010  13.2825260  41.5613640   8.9374960  12.4153690
  41.4263180   7.6042370  13.1196860  53.5413030   9.3159110  14.5789430
  54.0172750   9.7942000  15.2578510  54.1620190   9.2476600  13.8534930
  35.7436510   4.3607860   6.9911020  35.8216930   4.4956630   6.0466740
  36.3578190   3.6523750   7.1839140  36.9884140   6.0608050   3.4017200
  36.5812220   6.2022640   2.5470800  37.8797150   5.7768210   3.1988410
  52.9446280   6.5071960  11.7389440  53.0709340   6.2683840  10.8206620
  52.9867660   5.6756500  12.2111520  46.8063020  10.2099960  10.3084250
  47.3207690  10.1207970  11.1106680  45.9632100  10.5559660  10.6012160
  48.0493480   9.6305570   2.3714740  48.5050430   8.8494950   2.6853360
  48.3886000  10.3412390   2.9155920  35.7996030   5.4022030   9.5305480
  35.9627070   4.9327390   8.7124850  36.2648480   4.8945590  10.1954320
  37.3735010   4.7773460  11.6901290  36.9889800   4.1367130  12.2884250
  37.6847200   5.4809580  12.2596020  50.6001290   3.8684990   5.8787360
  51.3200410   4.3640280   5.4883470  50.3983110   3.1902880   5.2341230
  45.9820090   3.9394050  11.7656360  45.9157400   3.0189720  11.5113950
  45.3525230   4.0369490  12.4801000  39.8850710   4.5400010   3.7239780
  40.4029380   3.7368270   3.6696670  39.4334730   4.4779150   4.5656610
  45.9136820   6.7614620  11.5160160  45.9281360   5.8295580  11.2979070
  45.2061920   6.8474380  12.1549930  52.1248030   3.4021960  10.8628740
  51.3996220   3.9950740  10.6658130  52.6523490   3.3945500  10.0642110
  47.6547620   5.1282130   4.3612590  48.0071440   4.5310260   3.7013960
  46.7709950   4.8026360   4.5320840  43.7410900   5.8879820   1.7683000
  44.4282030   6.4349030   2.1490590  42.9543320   6.4320550   1.8032610
  45.3470720   8.4032190   8.6100660  45.9912940   8.6091570   9.2874080
  45.7100160   7.6420590   8.1571510  46.6202800   6.4064540   7.3278110
  47.2625030   5.7057700   7.4410280  47.1452150   7.1862980   7.1475000
  48.3940420   7.2059440  10.5314170  48.7296660   7.7926130  11.2092090
  47.4740760   7.0752150  10.7611960  36.2316410   8.9834880  12.3004110
  36.3407530   8.0429620  12.1599500  35.5796970   9.2489630  11.6517840
  44.2229000   7.2550770  13.7002230  43.9025870   6.5360010  14.2447920
  43.5487360   7.9305840  13.7738290  51.8999040   8.7726510   5.2521010
  52.0246460   9.5957680   5.7244820  52.7664600   8.5617240   4.9045160
  39.3716570  10.8657720   4.9238140  40.1079050  10.3173180   5.1946710
  39.7557490  11.7313730   4.7844130  38.3774850  10.0503790  14.1123720
  39.1787580  10.3715840  14.5259120  37.8626670   9.6899370  14.8343630
  47.2139480   6.1583660  14.0599130  46.6077640   6.1815260  13.3194880
  46.9093590   5.4266700  14.5966380  48.6439850   9.8863950  12.6708540
  49.5961600   9.8021970  12.6208780  48.4968070  10.5505660  13.3442330
  36.0972660   2.5377250  13.0559770  36.6011680   1.9584530  13.6276000
  35.3580080   2.8217480  13.5936140  43.1510600   3.9448240  12.5895290
  42.3856270   4.5133240  12.5049960  43.3326560   3.6524450  11.6963520
  50.2933950   5.6753570  13.1470310  51.0343420   6.0129330  12.6437770
  49.5306630   5.8445630  12.5940080  48.9679610   3.7268400  11.6825520
  49.3820630   3.8813480  12.5315940  48.0330610   3.8523620  11.8451300
  43.7294840   3.6788880   9.6521450  44.1482950   4.5221610   9.4797690
  42.8103470   3.8160920   9.4228230  48.4046640   1.9642250   9.6121800
  47.8781860   2.4884870   9.0086940  48.7477980   2.5969640  10.2431530
  41.5802260   9.9841890  10.7679180  41.0423350  10.7087950  10.4487880
  41.8336220   9.5072230   9.9776520  44.4364470  11.2193100  11.0265830
  44.3623170  12.1228240  11.3338200  43.5343310  10.9005000  10.9987900
  35.8391760   8.5467690   4.3299450  36.1694770   7.6788750   4.0978090
  36.2682760   8.7526210   5.1604410  36.3281970   9.4138280   7.0681080
  35.8912960   9.5939080   7.9005230  36.8959650  10.1712900   6.9262800
  51.9644150   8.9155280  11.3558390  51.3646140   8.9747840  10.6122310
  52.0938050   7.9760260  11.4855240  36.1606400   1.9258510   3.4269960
  35.5055240   1.6570150   2.7829660  36.9984350   1.8162990   2.9771940
  53.6662030   4.2570680   4.0404230  54.0370860   3.4738000   3.6340200
  54.3063960   4.9459780   3.8621530  50.6495790   5.6407260   9.4534550
  49.8355630   6.0704420   9.7160340  51.0569990   6.2525670   8.8403600
  37.1982330   2.3111080   7.9673300  37.5655370   2.2238480   8.8469320
  36.6293150   1.5477630   7.8680160  50.7071840  10.3925860   2.9802820
  51.3030910  10.0710430   2.3037240  50.9649990   9.9197680   3.7716090
  38.6134410   6.8243770  13.1293450  38.5704040   6.4536680  14.0107910
  38.7445420   7.7621340  13.2695270  42.3140440   8.3803360   8.7303170
  42.0731800   8.6477920   7.8433690  43.2543080   8.5509090   8.7854030
  53.5744600  10.3997740   9.5313810  53.0802880  10.7966610   8.8140940
  52.9657890   9.7746950   9.9251090  38.4522440   9.7706020  10.2491230
  37.8582760   9.6390720  10.9881270  38.4446280   8.9344160   9.7833330
  51.2584050  11.0421160   6.8100550  50.7987020  11.7936970   6.4358570
  50.6296510  10.3227630   6.7515350  38.0834670   7.1364400   9.1999270
  37.3568730   6.5169690   9.1325220  38.1443820   7.5305010   8.3297350
  41.6879770   9.3509400   5.9848680  42.2044790   8.7396760   5.4596940
  42.3377150   9.8538180   6.4759690  44.4275270  10.2417890   6.8117660
  44.7153080   9.9872190   5.9350670  44.9398490   9.6895250   7.4023230
  36.3664670  10.4538790   2.4096030  36.1986710   9.8209470   3.1077920
  35.4999180  10.6598190   2.0590220  44.4947630  11.1633990  14.1785860
  45.4214940  10.9278260  14.2221820  44.4798060  11.9905990  13.6971890
  51.0625190  10.3903850  14.0026900  51.8550510   9.8953080  13.7952860
  51.3558340  11.0693990  14.6102510  28.4141360 113.9085730  97.5303890
  28.3335410 112.9940340  97.2595600  28.0005780 114.4052800  96.8243600
  18.9717180 110.9586450  94.0731310  18.0833880 111.3002420  93.9711190
  19.2558370 110.7586770  93.1812140  16.9350190 113.5592100  99.9571010
  17.5066300 112.7914300  99.9574650  16.9351730 113.8580860  99.0477620
  18.1775060 108.9676460 101.7439940  17.9977900 108.0702210 102.0242700
  17.7755140 109.5148330 102.4186890  27.0173560 111.1692320  99.6452250
  27.3938380 110.2964200  99.5325920  26.9193070 111.5051020  98.7542690
  21.1478570 109.5417950  95.1069690  21.2545320 110.4421680  95.4138450
  20.2370930 109.4935920  94.8164340  30.7997680 108.6642760  96.5780590
  31.6207300 108.1739330  96.6206070  30.8331760 109.2540420  97.3312430
  18.7961730 111.4636960 100.3522280  19.4771840 111.7275330 100.9709680
  18.4809780 110.6237830 100.6860290  22.9886300 112.5104320  99.4394870
  23.4964520 113.0085290 100.0799890  23.5199540 111.7339520  99.2634230
  31.0359160 110.6043140  99.3508130  30.3314730 110.8928030  99.9311240
  31.3971320 111.4143250  98.9907690  20.9537730 108.8612840 101.7128740
  21.2954540 109.7054890 101.4182610  20.0153540 109.0096580 101.8294080
  34.1046080 110.0497930  99.7417340  33.1570990 110.0836910  99.8732770
  34.4296070 110.8636880 100.1266700  24.6365620 106.3495110  98.0373330
  24.9440600 105.7942000  97.3208830  23.7066320 106.4839570  97.8546320
  27.0115460 110.6860940  91.7700610  26.0719130 110.8474900  91.8553070
  27.3298720 111.4046620  91.2236600  22.6303020 114.9408680  97.5553180
  22.2260020 114.2285930  97.0599080  22.7166140 114.5961920  98.4441220
  21.3431640 111.7151890 101.3352220  21.8946230 111.8247230 100.5605470
  21.8575150 112.0889490 102.0507450  32.8125510 106.4693860  90.5982490
  32.4998170 106.5620690  91.4981560  33.5737980 107.0474890  90.5479920
  19.3307650 113.8353660  95.0559830  19.2105250 114.5615750  94.4441100
  19.0208540 113.0656570  94.5787740  21.7971310 107.1788730  98.4383500
  21.3539460 107.9598270  98.1068020  22.3556300 107.5018620  99.1454440
  24.9130130 106.7999430  93.3189330  24.2884310 106.7959300  94.0442640
  24.8260250 105.9330390  92.9225300  23.8347210 107.7236060 100.2973100
  24.1319540 108.6298890 100.2165120  24.3832770 107.2354840  99.6832670
  21.5885530 112.3022300  96.1664750  21.3626450 112.0859470  97.0711370
  20.8078060 112.7350760  95.8210720  28.8183290 112.3085670  94.7655400
  28.2192180 113.0321470  94.5819020  29.3662900 112.2462450  93.9831850
  27.4248160 110.9449210  96.7958680  27.8177730 111.2621410  95.9827370
  27.7865010 110.0661090  96.9103200  16.4612330 107.5350010  99.0188880
  16.1725380 108.1052870  99.7313860  17.2058090 107.0554460  99.3820110
  16.6482560 111.4770130  90.2291600  16.5657230 112.4200890  90.3706590
  16.2965620 111.3345040  89.3503950  28.0103300 113.5354960 100.8909460
  27.2784420 114.0441770 101.2399560  27.6127640 112.7184940 100.5898240
  24.4480690 110.2109160  99.2961950  24.4516750 109.7699110  98.4466490
  25.3431810 110.5326490  99.4033770  20.2983070 110.0935650  98.2556160
  19.9583120 110.5710880  99.0123210  19.5360390 109.6400770  97.8957260
  24.5100840 111.2121240  92.2868710  24.6313660 111.1707720  93.2354530
  24.1249350 112.0745390  92.1315440  28.4729210 108.9888640 100.3032400
  28.4901950 109.4397290 101.1474250  28.2244790 108.0894280 100.5165840
  23.5222340 113.5222380  91.6852010  22.9539240 113.0740630  91.0587920
  24.2311340 113.8815160  91.1517160  24.7488660 114.2710940 101.0427360
  25.1158790 113.7969510 101.7888700  24.5593720 115.1452510 101.3835700
  17.6129150 109.0154630  97.1720830  17.3276070 108.6510300  98.0099450
  17.5508010 108.2835090  96.5583970  27.2867740 107.9083890  93.8934200
  26.4732350 107.4097060  93.8179510  27.0929690 108.7482140  93.4770550
  30.0016130 112.2803540  92.1896360  30.8895750 112.5920770  92.0147700
  29.9721220 111.4075790  91.7976940  32.2730400 113.5915380  91.6576220
  32.1894120 114.0229600  90.8072660  32.9924590 114.0513730  92.0903040
  17.1059810 114.1513580  91.1317530  17.9754660 114.4338380  91.4153450
  16.6150130 114.9649450  91.0166340  20.1706400 105.8824440  95.7248330
  20.0421030 105.8742340  96.6733250  19.3468420 106.2207530  95.3739340
  32.0301140 109.0894810  93.7444040  31.4014300 109.1940480  93.0302270
  31.5353060 109.3091590  94.5337920  23.9985170 111.3680760  95.1601920
  23.2901320 111.8367100  95.6015530  24.2829650 110.7102770  95.7947110
  28.0300600 108.0931420  96.5997710  27.9068380 108.1117550  95.6507220
  28.9785160 108.1410360  96.7196110  22.2020190 109.6765840  92.5352630
  23.0510720 110.1135990  92.4692820  21.8351460 109.9886100  93.3624690
  31.1229970 114.2478600  97.4484200  30.1820110 114.2628830  97.6231890
  31.4374040 113.4614560  97.8944500  19.7958370 113.3623270  91.6921050
  19.8761960 112.4150780  91.8038450  20.6878120 113.6930150  91.7981710
  22.0289540 111.9996560  89.9288960  21.8278600 111.1363920  90.2902300
  21.8581590 111.9129920  88.9910560  29.5077850 106.8104790  92.4575840
  29.7880140 105.9672690  92.8135260  28.7343580 107.0427900  92.9714590
  20.8272340 109.0997180  89.9166840  21.1298240 109.1064610  89.0085990
  21.5666930 108.7495040  90.4134500  24.0457270 108.0431800  90.9023040
  23.6979270 107.3655790  90.3225490  24.2470040 107.5821310  91.7166430
  17.3862910 114.5719450  97.2987410  16.7311750 114.3031090  96.6547110
  18.2240860 114.4623930  96.8489390  30.3353350 109.3660740  91.5205900
  30.7538230 109.1791720  90.6802560  30.0289410 108.5139790  91.8308830
  33.8343080 114.2784880  95.2181700  33.4586680 113.5112810  94.7862990
  33.1046200 114.6607580  95.7056630  18.4238840 114.9572020 101.8390750
  18.7911880 114.8699420 102.7186770  17.8549660 114.1938570 101.7397610
  16.6000990 111.7818380  93.2412740  15.6965070 112.0448580  93.0664400
  17.0841610 112.0529550  92.4612700  33.1094040 112.5042370  98.5188940
  33.6331520 112.0105020  97.8879110  33.6953460 112.6392730  99.2636510
  33.2883760 112.5882240 102.0408490  32.3386470 112.5545780 102.1553480
  33.4696770 113.4982350 101.8058260  19.1428200 110.8383920  91.1507120
  19.8519900 110.4167140  90.6654400  18.4268140 110.9059150  90.5190470
  18.7902360 106.8923250  90.1909770  19.5130490 107.4332190  90.5090990
  19.0626880 106.6186670  89.3151310  32.5994010 111.7615720  94.4581350
  33.0953130 111.5286590  95.2430230  32.4010080 110.9227560  94.0418990
  18.4794550 106.1429440 100.0932390  19.1270740 105.5926820  99.6527550
  18.8996390 106.3972590 100.9148200  34.0281170 110.3976670  96.9919030
  33.9180450 110.2432710  97.9301300  34.7888760 109.8697610  96.7494440
  34.9171440 108.2284590  90.2325170  35.8420750 108.0965770  90.0243460
  34.8947230 108.3077410  91.1861620  34.9909930 108.9995250  92.8581880
  34.1961430 108.9340370  93.3874790  35.1953210 109.9345890  92.8467230
  26.8708790 106.6269030 101.2631620  26.0880580 107.1014530 101.5428380
  26.5771720 105.7223860 101.1544800  31.4229860 107.3292130  99.3080710
  31.8637950 107.2737230  98.4602310  31.1537450 108.2450140  99.3790890
  33.2868430 106.9607370  97.3189530  33.2256830 106.0168590  97.1720550
  34.0660460 107.0687460  97.8642990  18.2149200 106.9316510  93.7845340
  18.9728560 107.0445390  93.2109370  17.7526370 107.7685710  93.7388770
  24.7563010 109.0455780  96.7747650  23.9437520 108.6712670  96.4343530
  25.2604650 108.2900860  97.0768840  29.2587990 105.7098230  98.0130720
  29.8617360 106.2818440  98.4879240  28.5180980 106.2737670  97.7904620
  32.4022590 106.1119790  93.2871000  32.5973220 107.0103240  93.5538430
  31.6152460 105.8806870  93.7803950  20.5874350 107.4580560  92.3247310
  21.1167110 106.6710360  92.1955260  21.2202670 108.1371750  92.5582840
  22.7812190 107.1955700  95.3792700  22.1514930 106.4943010  95.5462830
  22.2417330 107.9559830  95.1625860  28.4141360 113.9085730  78.7560400
  28.3335410 112.9940340  78.4852110  28.0005780 114.4052800  78.0500110
  18.9717180 110.9586450  75.2987820  18.0833880 111.3002420  75.1967700
  19.2558370 110.7586770  74.4068650  16.9350190 113.5592100  81.1827520
  17.5066300 112.7914300  81.1831160  16.9351730 113.8580860  80.2734130
  18.1775060 108.9676460  82.9696450  17.9977900 108.0702210  83.2499210
  17.7755140 109.5148330  83.6443400  27.0173560 111.1692320  80.8708760
  27.3938380 110.2964200  80.7582430  26.9193070 111.5051020  79.9799200
  21.1478570 109.5417950  76.3326200  21.2545320 110.4421680  76.6394960
  20.2370930 109.4935920  76.0420850  30.7997680 108.6642760  77.8037100
  31.6207300 108.1739330  77.8462580  30.8331760 109.2540420  78.5568940
  18.7961730 111.4636960  81.5778790  19.4771840 111.7275330  82.1966190
  18.4809780 110.6237830  81.9116800  22.9886300 112.5104320  80.6651380
  23.4964520 113.0085290  81.3056400  23.5199540 111.7339520  80.4890740
  35.0897230 110.6809510  84.3680730  34.3849400 111.0691220  83.8495840
  35.3555150 111.3759800  84.9701660  21.2722400 107.1502880  84.9314800
  21.2740840 107.6675270  84.1260700  20.4426710 106.6733060  84.9084730
  31.0359160 110.6043140  80.5764640  30.3314730 110.8928030  81.1567750
  31.3971320 111.4143250  80.2164200  20.9537730 108.8612840  82.9385250
  21.2954540 109.7054890  82.6439120  20.0153540 109.0096580  83.0550590
  34.1046080 110.0497930  80.9673850  33.1570990 110.0836910  81.0989280
  34.4296070 110.8636880  81.3523210  24.6365620 106.3495110  79.2629840
  24.9440600 105.7942000  78.5465340  23.7066320 106.4839570  79.0802830
  27.0115460 110.6860940  72.9957120  26.0719130 110.8474900  73.0809580
  27.3298720 111.4046620  72.4493110  30.4970230 112.1548780  83.9191020
  30.0841410 112.9802490  84.1731010  29.7646180 111.5693820  83.7267380
  22.6303020 114.9408680  78.7809690  22.2260020 114.2285930  78.2855590
  22.7166140 114.5961920  79.6697730  21.3431640 111.7151890  82.5608730
  21.8946230 111.8247230  81.7861980  21.8575150 112.0889490  83.2763960
  32.8125510 106.4693860  71.8239000  32.4998170 106.5620690  72.7238070
  33.5737980 107.0474890  71.7736430  19.3307650 113.8353660  76.2816340
  19.2105250 114.5615750  75.6697610  19.0208540 113.0656570  75.8044250
  34.0226800 111.2065360  87.8013140  33.4071070 111.7145030  87.2728600
  33.7023220 110.3063690  87.7439080  21.7971310 107.1788730  79.6640010
  21.3539460 107.9598270  79.3324530  22.3556300 107.5018620  80.3710950
  26.0841120 110.0457250  85.2675330  25.6220490 110.2540270  86.0795270
  25.6819230 109.2316600  84.9646000  31.0845630 111.2666200  86.3971990
  30.2339220 110.9671950  86.7181060  30.9247420 111.5108210  85.4855810
  28.1795340 112.7667950  88.4970780  28.5048750 111.9331700  88.1573010
  28.9675670 113.2896470  88.6449110  24.9130130 106.7999430  74.5445840
  24.2884310 106.7959300  75.2699150  24.8260250 105.9330390  74.1481810
  23.8347210 107.7236060  81.5229610  24.1319540 108.6298890  81.4421630
  24.3832770 107.2354840  80.9089180  21.5885530 112.3022300  77.3921260
  21.3626450 112.0859470  78.2967880  20.8078060 112.7350760  77.0467230
  28.8183290 112.3085670  75.9911910  28.2192180 113.0321470  75.8075530
  29.3662900 112.2462450  75.2088360  24.0284740 113.2007880  88.0581530
  23.9328340 112.2602610  87.9081930  24.8716720 113.4222950  87.6629600
  27.4248160 110.9449210  78.0215190  27.8177730 111.2621410  77.2083880
  27.7865010 110.0661090  78.1359710  19.1595280 109.6121550  86.2115310
  18.7658670 110.4596760  86.4188090  18.4713680 108.9747920  86.4023950
  25.7340330 109.6956520  89.2812050  25.0438650 109.5028720  89.9158140
  26.4772630 109.9791160  89.8136350  16.4612330 107.5350010  80.2445390
  16.1725380 108.1052870  80.9570370  17.2058090 107.0554460  80.6076620
  16.6482560 111.4770130  71.4548110  16.5657230 112.4200890  71.5963100
  16.2965620 111.3345040  70.5760460  28.0103300 113.5354960  82.1165970
  27.2784420 114.0441770  82.4656070  27.6127640 112.7184940  81.8154750
  24.4480690 110.2109160  80.5218460  24.4516750 109.7699110  79.6723000
  25.3431810 110.5326490  80.6290280  20.2983070 110.0935650  79.4812670
  19.9583120 110.5710880  80.2379720  19.5360390 109.6400770  79.1213770
  24.5100840 111.2121240  73.5125220  24.6313660 111.1707720  74.4611040
  24.1249350 112.0745390  73.3571950  28.4729210 108.9888640  81.5288910
  28.4901950 109.4397290  82.3730760  28.2244790 108.0894280  81.7422350
  23.5222340 113.5222380  72.9108520  22.9539240 113.0740630  72.2844430
  24.2311340 113.8815160  72.3773670  31.8999960 106.4020820  87.3675290
  32.2245730 105.6710480  87.8933270  31.9356470 106.0834460  86.4656280
  24.7488660 114.2710940  82.2683870  25.1158790 113.7969510  83.0145210
  24.5593720 115.1452510  82.6092210  17.6129150 109.0154630  78.3977340
  17.3276070 108.6510300  79.2355960  17.5508010 108.2835090  77.7840480
  22.5388030 113.3119580  84.5868080  22.2345100 114.1911560  84.8118440
  23.4934490 113.3719370  84.6225520  27.2867740 107.9083890  75.1190710
  26.4732350 107.4097060  75.0436020  27.0929690 108.7482140  74.7027060
  30.0016130 112.2803540  73.4152870  30.8895750 112.5920770  73.2404210
  29.9721220 111.4075790  73.0233450  18.5951760 114.1522320  85.7339440
  18.2366700 114.8176170  86.3212780  18.3006320 113.3205870  86.1052060
  21.7964880 114.6106560  88.6178990  21.4965020 114.7563740  87.7206810
  22.5676120 114.0511850  88.5252380  32.2730400 113.5915380  72.8832730
  32.1894120 114.0229600  72.0329170  32.9924590 114.0513730  73.3159550
  17.1059810 114.1513580  72.3574040  17.9754660 114.4338380  72.6409960
  16.6150130 114.9649450  72.2422850  20.1706400 105.8824440  76.9504840
  20.0421030 105.8742340  77.8989760  19.3468420 106.2207530  76.5995850
  17.1700330 107.6415560  86.4111540  16.4558850 107.8412480  87.0164150
  17.5895370 106.8655130  86.7826340  28.6639110 110.1337870  84.1612990
  29.0319930 109.3133080  84.4892560  27.8037310 110.1939760  84.5768640
  32.0301140 109.0894810  74.9700550  31.4014300 109.1940480  74.2558780
  31.5353060 109.3091590  75.7594430  23.9985170 111.3680760  76.3858430
  23.2901320 111.8367100  76.8272040  24.2829650 110.7102770  77.0203620
  25.6241100 112.7877460  84.3850960  26.1226350 113.2623280  85.0502810
  25.7664050 111.8640980  84.5920990  28.0300600 108.0931420  77.8254220
  27.9068380 108.1117550  76.8763730  28.9785160 108.1410360  77.9452620
  22.2020190 109.6765840  73.7609140  23.0510720 110.1135990  73.6949330
  21.8351460 109.9886100  74.5881200  32.8307960 109.0045420  85.2279350
  32.3281560 109.7450820  85.5673160  33.6464620 109.3929420  84.9116140
  31.1229970 114.2478600  78.6740710  30.1820110 114.2628830  78.8488400
  31.4374040 113.4614560  79.1201010  19.7958370 113.3623270  72.9177560
  19.8761960 112.4150780  73.0294960  20.6878120 113.6930150  73.0238220
  19.3552250 113.3267780  89.0483800  19.3957590 113.0281650  89.9569030
  20.2097750 113.7275390  88.8891320  21.2958060 111.9059880  87.0158290
  20.7654520 111.4150830  86.3881630  21.9646130 112.3344080  86.4816220
  30.6658290 113.7125500  88.7838630  31.2479060 112.9577820  88.6959110
  30.8420060 114.2432940  88.0070110  21.7830360 108.8722250  87.0955580
  21.6887230 108.2543000  86.3706450  21.2027750 109.5988540  86.8685490
  24.5491800 107.4295490  84.1282970  24.1009100 107.4519750  83.2828520
  23.9157000 107.0314510  84.7253270  27.2915250 114.0566000  86.1333250
  27.4111460 113.4607140  86.8728090  28.1509250 114.0935690  85.7134550
  22.0289540 111.9996560  71.1545470  21.8278600 111.1363920  71.5158810
  21.8581590 111.9129920  70.2167070  24.0584020 110.5987350  87.3909070
  24.6483710 110.2903200  88.0786890  23.2404260 110.1267100  87.5468970
  28.8777450 110.2153160  87.6242090  28.1892970 109.5534700  87.5592080
  29.5983470 109.7691430  88.0690550  29.5077850 106.8104790  73.6832350
  29.7880140 105.9672690  74.0391770  28.7343580 107.0427900  74.1971100
  20.8272340 109.0997180  71.1423350  21.1298240 109.1064610  70.2342500
  21.5666930 108.7495040  71.6391010  24.0457270 108.0431800  72.1279550
  23.6979270 107.3655790  71.5482000  24.2470040 107.5821310  72.9422940
  17.3862910 114.5719450  78.5243920  16.7311750 114.3031090  77.8803620
  18.2240860 114.4623930  78.0745900  30.3353350 109.3660740  72.7462410
  30.7538230 109.1791720  71.9059070  30.0289410 108.5139790  73.0565340
  33.8343080 114.2784880  76.4438210  33.4586680 113.5112810  76.0119500
  33.1046200 114.6607580  76.9313140  18.4238840 114.9572020  83.0647260
  18.7911880 114.8699420  83.9443280  17.8549660 114.1938570  82.9654120
  33.2242700 113.4256400  86.0777730  32.9928790 113.1969150  85.1775680
  33.4847250 114.3455950  86.0322620  17.9754840 111.8681110  86.9705680
  17.0810890 111.8347870  87.3099390  18.5152390 112.0667900  87.7356930
  31.6630770 108.6512830  88.8557430  32.5400950 108.6596230  89.2391430
  31.6751610 107.9143670  88.2449780  16.6000990 111.7818380  74.4669250
  15.6965070 112.0448580  74.2920910  17.0841610 112.0529550  73.6869210
  33.1094040 112.5042370  79.7445450  33.6331520 112.0105020  79.1135620
  33.6953460 112.6392730  80.4893020  33.2883760 112.5882240  83.2665000
  32.3386470 112.5545780  83.3809990  33.4696770 113.4982350  83.0314770
  19.1428200 110.8383920  72.3763630  19.8519900 110.4167140  71.8910910
  18.4268140 110.9059150  71.7446980  18.7902360 106.8923250  71.4166280
  19.5130490 107.4332190  71.7347500  19.0626880 106.6186670  70.5407820
  32.5994010 111.7615720  75.6837860  33.0953130 111.5286590  76.4686740
  32.4010080 110.9227560  75.2675500  18.4794550 106.1429440  81.3188900
  19.1270740 105.5926820  80.8784060  18.8996390 106.3972590  82.1404710
  34.0281170 110.3976670  78.2175540  33.9180450 110.2432710  79.1557810
  34.7888760 109.8697610  77.9750950  32.3746890 106.3370800  84.6758540
  33.0119110 106.9504940  85.0417730  32.5221780 106.3731460  83.7307770
  34.9171440 108.2284590  71.4581680  35.8420750 108.0965770  71.2499970
  34.8947230 108.3077410  72.4118130  34.9909930 108.9995250  74.0838390
  34.1961430 108.9340370  74.6131300  35.1953210 109.9345890  74.0723740
  18.2326550 106.2985110  84.0614220  17.8841370 106.7548930  84.8272400
  17.9014250 105.4042240  84.1436650  25.7451370 107.4896990  87.5833640
  25.6840260 108.0818820  88.3329050  26.6851750 107.3822950  87.4383900
  28.3825930 107.1467050  87.2225930  28.9966340 107.4646340  86.5607010
  28.9275490 106.6615640  87.8421790  18.9047190 105.8261310  87.3364990
  19.4530180 105.6449360  86.5731100  18.9702500 105.0355420  87.8721300
  29.1233970 105.7099190  83.5495220  28.2493810 106.0434300  83.3468150
  29.0144720 105.2372370  84.3747090  30.0305950 107.9170060  84.9336940
  29.7019310 107.1021820  84.5538670  30.9788250 107.8739870  84.8102630
  26.8708790 106.6269030  82.4888130  26.0880580 107.1014530  82.7684890
  26.5771720 105.7223860  82.3801310  31.4229860 107.3292130  80.5337220
  31.8637950 107.2737230  79.6858820  31.1537450 108.2450140  80.6047400
  33.2868430 106.9607370  78.5446040  33.2256830 106.0168590  78.3977060
  34.0660460 107.0687460  79.0899500  18.2149200 106.9316510  75.0101850
  18.9728560 107.0445390  74.4365880  17.7526370 107.7685710  74.9645280
  24.7563010 109.0455780  78.0004160  23.9437520 108.6712670  77.6600040
  25.2604650 108.2900860  78.3025350  29.2587990 105.7098230  79.2387230
  29.8617360 106.2818440  79.7135750  28.5180980 106.2737670  79.0161130
  32.4022590 106.1119790  74.5127510  32.5973220 107.0103240  74.7794940
  31.6152460 105.8806870  75.0060460  20.5874350 107.4580560  73.5503820
  21.1167110 106.6710360  73.4211770  21.2202670 108.1371750  73.7839350
  22.7812190 107.1955700  76.6049210  22.1514930 106.4943010  76.7719340
  22.2417330 107.9559830  76.3882370  22.9067750 106.4739680  89.0401700
  22.6252020 106.9773280  88.2762520  23.2887450 105.6761430  88.6743830
  29.5083210 105.8893260  89.6182170  29.3948660 106.2087870  90.5133690
  30.3252950 106.2905770  89.3219450  28.4141360 113.9085730  59.9816910
  28.3335410 112.9940340  59.7108620  28.0005780 114.4052800  59.2756620
  18.9717180 110.9586450  56.5244330  18.0833880 111.3002420  56.4224210
  19.2558370 110.7586770  55.6325160  16.9350190 113.5592100  62.4084030
  17.5066300 112.7914300  62.4087670  16.9351730 113.8580860  61.4990640
  18.1775060 108.9676460  64.1952960  17.9977900 108.0702210  64.4755720
  17.7755140 109.5148330  64.8699910  27.0173560 111.1692320  62.0965270
  27.3938380 110.2964200  61.9838940  26.9193070 111.5051020  61.2055710
  21.1478570 109.5417950  57.5582710  21.2545320 110.4421680  57.8651470
  20.2370930 109.4935920  57.2677360  30.7997680 108.6642760  59.0293610
  31.6207300 108.1739330  59.0719090  30.8331760 109.2540420  59.7825450
  18.7961730 111.4636960  62.8035300  19.4771840 111.7275330  63.4222700
  18.4809780 110.6237830  63.1373310  22.9886300 112.5104320  61.8907890
  23.4964520 113.0085290  62.5312910  23.5199540 111.7339520  61.7147250
  35.0897230 110.6809510  65.5937240  34.3849400 111.0691220  65.0752350
  35.3555150 111.3759800  66.1958170  21.2722400 107.1502880  66.1571310
  21.2740840 107.6675270  65.3517210  20.4426710 106.6733060  66.1341240
  31.0359160 110.6043140  61.8021150  30.3314730 110.8928030  62.3824260
  31.3971320 111.4143250  61.4420710  20.9537730 108.8612840  64.1641760
  21.2954540 109.7054890  63.8695630  20.0153540 109.0096580  64.2807100
  34.1046080 110.0497930  62.1930360  33.1570990 110.0836910  62.3245790
  34.4296070 110.8636880  62.5779720  24.6365620 106.3495110  60.4886350
  24.9440600 105.7942000  59.7721850  23.7066320 106.4839570  60.3059340
  27.0115460 110.6860940  54.2213630  26.0719130 110.8474900  54.3066090
  27.3298720 111.4046620  53.6749620  30.4970230 112.1548780  65.1447530
  30.0841410 112.9802490  65.3987520  29.7646180 111.5693820  64.9523890
  22.6303020 114.9408680  60.0066200  22.2260020 114.2285930  59.5112100
  22.7166140 114.5961920  60.8954240  21.3431640 111.7151890  63.7865240
  21.8946230 111.8247230  63.0118490  21.8575150 112.0889490  64.5020470
  32.8125510 106.4693860  53.0495510  32.4998170 106.5620690  53.9494580
  33.5737980 107.0474890  52.9992940  19.3307650 113.8353660  57.5072850
  19.2105250 114.5615750  56.8954120  19.0208540 113.0656570  57.0300760
  34.0226800 111.2065360  69.0269650  33.4071070 111.7145030  68.4985110
  33.7023220 110.3063690  68.9695590  21.7971310 107.1788730  60.8896520
  21.3539460 107.9598270  60.5581040  22.3556300 107.5018620  61.5967460
  26.0841120 110.0457250  66.4931840  25.6220490 110.2540270  67.3051780
  25.6819230 109.2316600  66.1902510  31.0845630 111.2666200  67.6228500
  30.2339220 110.9671950  67.9437570  30.9247420 111.5108210  66.7112320
  28.1795340 112.7667950  69.7227290  28.5048750 111.9331700  69.3829520
  28.9675670 113.2896470  69.8705620  24.9130130 106.7999430  55.7702350
  24.2884310 106.7959300  56.4955660  24.8260250 105.9330390  55.3738320
  23.8347210 107.7236060  62.7486120  24.1319540 108.6298890  62.6678140
  24.3832770 107.2354840  62.1345690  21.5885530 112.3022300  58.6177770
  21.3626450 112.0859470  59.5224390  20.8078060 112.7350760  58.2723740
  28.8183290 112.3085670  57.2168420  28.2192180 113.0321470  57.0332040
  29.3662900 112.2462450  56.4344870  24.0284740 113.2007880  69.2838040
  23.9328340 112.2602610  69.1338440  24.8716720 113.4222950  68.8886110
  27.4248160 110.9449210  59.2471700  27.8177730 111.2621410  58.4340390
  27.7865010 110.0661090  59.3616220  19.1595280 109.6121550  67.4371820
  18.7658670 110.4596760  67.6444600  18.4713680 108.9747920  67.6280460
  25.7340330 109.6956520  70.5068560  25.0438650 109.5028720  71.1414650
  26.4772630 109.9791160  71.0392860  16.4612330 107.5350010  61.4701900
  16.1725380 108.1052870  62.1826880  17.2058090 107.0554460  61.8333130
  16.6482560 111.4770130  52.6804620  16.5657230 112.4200890  52.8219610
  16.2965620 111.3345040  51.8016970  28.0103300 113.5354960  63.3422480
  27.2784420 114.0441770  63.6912580  27.6127640 112.7184940  63.0411260
  24.4480690 110.2109160  61.7474970  24.4516750 109.7699110  60.8979510
  25.3431810 110.5326490  61.8546790  20.2983070 110.0935650  60.7069180
  19.9583120 110.5710880  61.4636230  19.5360390 109.6400770  60.3470280
  24.5100840 111.2121240  54.7381730  24.6313660 111.1707720  55.6867550
  24.1249350 112.0745390  54.5828460  28.4729210 108.9888640  62.7545420
  28.4901950 109.4397290  63.5987270  28.2244790 108.0894280  62.9678860
  23.5222340 113.5222380  54.1365030  22.9539240 113.0740630  53.5100940
  24.2311340 113.8815160  53.6030180  31.8999960 106.4020820  68.5931800
  32.2245730 105.6710480  69.1189780  31.9356470 106.0834460  67.6912790
  24.7488660 114.2710940  63.4940380  25.1158790 113.7969510  64.2401720
  24.5593720 115.1452510  63.8348720  17.6129150 109.0154630  59.6233850
  17.3276070 108.6510300  60.4612470  17.5508010 108.2835090  59.0096990
  22.5388030 113.3119580  65.8124590  22.2345100 114.1911560  66.0374950
  23.4934490 113.3719370  65.8482030  27.2867740 107.9083890  56.3447220
  26.4732350 107.4097060  56.2692530  27.0929690 108.7482140  55.9283570
  30.0016130 112.2803540  54.6409380  30.8895750 112.5920770  54.4660720
  29.9721220 111.4075790  54.2489960  18.5951760 114.1522320  66.9595950
  18.2366700 114.8176170  67.5469290  18.3006320 113.3205870  67.3308570
  21.7964880 114.6106560  69.8435500  21.4965020 114.7563740  68.9463320
  22.5676120 114.0511850  69.7508890  32.2730400 113.5915380  54.1089240
  32.1894120 114.0229600  53.2585680  32.9924590 114.0513730  54.5416060
  17.1059810 114.1513580  53.5830550  17.9754660 114.4338380  53.8666470
  16.6150130 114.9649450  53.4679360  20.1706400 105.8824440  58.1761350
  20.0421030 105.8742340  59.1246270  19.3468420 106.2207530  57.8252360
  17.1700330 107.6415560  67.6368050  16.4558850 107.8412480  68.2420660
  17.5895370 106.8655130  68.0082850  28.6639110 110.1337870  65.3869500
  29.0319930 109.3133080  65.7149070  27.8037310 110.1939760  65.8025150
  32.0301140 109.0894810  56.1957060  31.4014300 109.1940480  55.4815290
  31.5353060 109.3091590  56.9850940  23.9985170 111.3680760  57.6114940
  23.2901320 111.8367100  58.0528550  24.2829650 110.7102770  58.2460130
  25.6241100 112.7877460  65.6107470  26.1226350 113.2623280  66.2759320
  25.7664050 111.8640980  65.8177500  28.0300600 108.0931420  59.0510730
  27.9068380 108.1117550  58.1020240  28.9785160 108.1410360  59.1709130
  22.2020190 109.6765840  54.9865650  23.0510720 110.1135990  54.9205840
  21.8351460 109.9886100  55.8137710  32.8307960 109.0045420  66.4535860
  32.3281560 109.7450820  66.7929670  33.6464620 109.3929420  66.1372650
  31.1229970 114.2478600  59.8997220  30.1820110 114.2628830  60.0744910
  31.4374040 113.4614560  60.3457520  19.7958370 113.3623270  54.1434070
  19.8761960 112.4150780  54.2551470  20.6878120 113.6930150  54.2494730
  19.3552250 113.3267780  70.2740310  19.3957590 113.0281650  71.1825540
  20.2097750 113.7275390  70.1147830  21.2958060 111.9059880  68.2414800
  20.7654520 111.4150830  67.6138140  21.9646130 112.3344080  67.7072730
  30.6658290 113.7125500  70.0095140  31.2479060 112.9577820  69.9215620
  30.8420060 114.2432940  69.2326620  21.7830360 108.8722250  68.3212090
  21.6887230 108.2543000  67.5962960  21.2027750 109.5988540  68.0942000
  24.5491800 107.4295490  65.3539480  24.1009100 107.4519750  64.5085030
  23.9157000 107.0314510  65.9509780  27.2915250 114.0566000  67.3589760
  27.4111460 113.4607140  68.0984600  28.1509250 114.0935690  66.9391060
  22.0289540 111.9996560  52.3801980  21.8278600 111.1363920  52.7415320
  21.8581590 111.9129920  51.4423580  24.0584020 110.5987350  68.6165580
  24.6483710 110.2903200  69.3043400  23.2404260 110.1267100  68.7725480
  28.8777450 110.2153160  68.8498600  28.1892970 109.5534700  68.7848590
  29.5983470 109.7691430  69.2947060  29.5077850 106.8104790  54.9088860
  29.7880140 105.9672690  55.2648280  28.7343580 107.0427900  55.4227610
  20.8272340 109.0997180  52.3679860  21.1298240 109.1064610  51.4599010
  21.5666930 108.7495040  52.8647520  24.0457270 108.0431800  53.3536060
  23.6979270 107.3655790  52.7738510  24.2470040 107.5821310  54.1679450
  17.3862910 114.5719450  59.7500430  16.7311750 114.3031090  59.1060130
  18.2240860 114.4623930  59.3002410  30.3353350 109.3660740  53.9718920
  30.7538230 109.1791720  53.1315580  30.0289410 108.5139790  54.2821850
  33.8343080 114.2784880  57.6694720  33.4586680 113.5112810  57.2376010
  33.1046200 114.6607580  58.1569650  18.4238840 114.9572020  64.2903770
  18.7911880 114.8699420  65.1699790  17.8549660 114.1938570  64.1910630
  33.2242700 113.4256400  67.3034240  32.9928790 113.1969150  66.4032190
  33.4847250 114.3455950  67.2579130  17.9754840 111.8681110  68.1962190
  17.0810890 111.8347870  68.5355900  18.5152390 112.0667900  68.9613440
  31.6630770 108.6512830  70.0813940  32.5400950 108.6596230  70.4647940
  31.6751610 107.9143670  69.4706290  16.6000990 111.7818380  55.6925760
  15.6965070 112.0448580  55.5177420  17.0841610 112.0529550  54.9125720
  33.1094040 112.5042370  60.9701960  33.6331520 112.0105020  60.3392130
  33.6953460 112.6392730  61.7149530  33.2883760 112.5882240  64.4921510
  32.3386470 112.5545780  64.6066500  33.4696770 113.4982350  64.2571280
  19.1428200 110.8383920  53.6020140  19.8519900 110.4167140  53.1167420
  18.4268140 110.9059150  52.9703490  18.7902360 106.8923250  52.6422790
  19.5130490 107.4332190  52.9604010  19.0626880 106.6186670  51.7664330
  32.5994010 111.7615720  56.9094370  33.0953130 111.5286590  57.6943250
  32.4010080 110.9227560  56.4932010  18.4794550 106.1429440  62.5445410
  19.1270740 105.5926820  62.1040570  18.8996390 106.3972590  63.3661220
  34.0281170 110.3976670  59.4432050  33.9180450 110.2432710  60.3814320
  34.7888760 109.8697610  59.2007460  32.3746890 106.3370800  65.9015050
  33.0119110 106.9504940  66.2674240  32.5221780 106.3731460  64.9564280
  34.9171440 108.2284590  52.6838190  35.8420750 108.0965770  52.4756480
  34.8947230 108.3077410  53.6374640  34.9909930 108.9995250  55.3094900
  34.1961430 108.9340370  55.8387810  35.1953210 109.9345890  55.2980250
  18.2326550 106.2985110  65.2870730  17.8841370 106.7548930  66.0528910
  17.9014250 105.4042240  65.3693160  25.7451370 107.4896990  68.8090150
  25.6840260 108.0818820  69.5585560  26.6851750 107.3822950  68.6640410
  28.3825930 107.1467050  68.4482440  28.9966340 107.4646340  67.7863520
  28.9275490 106.6615640  69.0678300  18.9047190 105.8261310  68.5621500
  19.4530180 105.6449360  67.7987610  18.9702500 105.0355420  69.0977810
  29.1233970 105.7099190  64.7751730  28.2493810 106.0434300  64.5724660
  29.0144720 105.2372370  65.6003600  30.0305950 107.9170060  66.1593450
  29.7019310 107.1021820  65.7795180  30.9788250 107.8739870  66.0359140
  26.8708790 106.6269030  63.7144640  26.0880580 107.1014530  63.9941400
  26.5771720 105.7223860  63.6057820  31.4229860 107.3292130  61.7593730
  31.8637950 107.2737230  60.9115330  31.1537450 108.2450140  61.8303910
  33.2868430 106.9607370  59.7702550  33.2256830 106.0168590  59.6233570
  34.0660460 107.0687460  60.3156010  18.2149200 106.9316510  56.2358360
  18.9728560 107.0445390  55.6622390  17.7526370 107.7685710  56.1901790
  24.7563010 109.0455780  59.2260670  23.9437520 108.6712670  58.8856550
  25.2604650 108.2900860  59.5281860  29.2587990 105.7098230  60.4643740
  29.8617360 106.2818440  60.9392260  28.5180980 106.2737670  60.2417640
  32.4022590 106.1119790  55.7384020  32.5973220 107.0103240  56.0051450
  31.6152460 105.8806870  56.2316970  20.5874350 107.4580560  54.7760330
  21.1167110 106.6710360  54.6468280  21.2202670 108.1371750  55.0095860
  22.7812190 107.1955700  57.8305720  22.1514930 106.4943010  57.9975850
  22.2417330 107.9559830  57.6138880  22.9067750 106.4739680  70.2658210
  22.6252020 106.9773280  69.5019030  23.2887450 105.6761430  69.9000340
  29.5083210 105.8893260  70.8438680  29.3948660 106.2087870  71.7390200
  30.3252950 106.2905770  70.5475960  28.4141360 113.9085730  41.2073420
  28.3335410 112.9940340  40.9365130  28.0005780 114.4052800  40.5013130
  18.9717180 110.9586450  37.7500840  18.0833880 111.3002420  37.6480720
  19.2558370 110.7586770  36.8581670  16.9350190 113.5592100  43.6340540
  17.5066300 112.7914300  43.6344180  16.9351730 113.8580860  42.7247150
  18.1775060 108.9676460  45.4209470  17.9977900 108.0702210  45.7012230
  17.7755140 109.5148330  46.0956420  27.0173560 111.1692320  43.3221780
  27.3938380 110.2964200  43.2095450  26.9193070 111.5051020  42.4312220
  21.1478570 109.5417950  38.7839220  21.2545320 110.4421680  39.0907980
  20.2370930 109.4935920  38.4933870  30.7997680 108.6642760  40.2550120
  31.6207300 108.1739330  40.2975600  30.8331760 109.2540420  41.0081960
  18.7961730 111.4636960  44.0291810  19.4771840 111.7275330  44.6479210
  18.4809780 110.6237830  44.3629820  22.9886300 112.5104320  43.1164400
  23.4964520 113.0085290  43.7569420  23.5199540 111.7339520  42.9403760
  35.0897230 110.6809510  46.8193750  34.3849400 111.0691220  46.3008860
  35.3555150 111.3759800  47.4214680  21.2722400 107.1502880  47.3827820
  21.2740840 107.6675270  46.5773720  20.4426710 106.6733060  47.3597750
  31.0359160 110.6043140  43.0277660  30.3314730 110.8928030  43.6080770
  31.3971320 111.4143250  42.6677220  20.9537730 108.8612840  45.3898270
  21.2954540 109.7054890  45.0952140  20.0153540 109.0096580  45.5063610
  34.1046080 110.0497930  43.4186870  33.1570990 110.0836910  43.5502300
  34.4296070 110.8636880  43.8036230  24.6365620 106.3495110  41.7142860
  24.9440600 105.7942000  40.9978360  23.7066320 106.4839570  41.5315850
  27.0115460 110.6860940  35.4470140  26.0719130 110.8474900  35.5322600
  27.3298720 111.4046620  34.9006130  30.4970230 112.1548780  46.3704040
  30.0841410 112.9802490  46.6244030  29.7646180 111.5693820  46.1780400
  22.6303020 114.9408680  41.2322710  22.2260020 114.2285930  40.7368610
  22.7166140 114.5961920  42.1210750  21.3431640 111.7151890  45.0121750
  21.8946230 111.8247230  44.2375000  21.8575150 112.0889490  45.7276980
  32.8125510 106.4693860  34.2752020  32.4998170 106.5620690  35.1751090
  33.5737980 107.0474890  34.2249450  19.3307650 113.8353660  38.7329360
  19.2105250 114.5615750  38.1210630  19.0208540 113.0656570  38.2557270
  34.0226800 111.2065360  50.2526160  33.4071070 111.7145030  49.7241620
  33.7023220 110.3063690  50.1952100  21.7971310 107.1788730  42.1153030
  21.3539460 107.9598270  41.7837550  22.3556300 107.5018620  42.8223970
  26.0841120 110.0457250  47.7188350  25.6220490 110.2540270  48.5308290
  25.6819230 109.2316600  47.4159020  31.0845630 111.2666200  48.8485010
  30.2339220 110.9671950  49.1694080  30.9247420 111.5108210  47.9368830
  28.1795340 112.7667950  50.9483800  28.5048750 111.9331700  50.6086030
  28.9675670 113.2896470  51.0962130  24.9130130 106.7999430  36.9958860
  24.2884310 106.7959300  37.7212170  24.8260250 105.9330390  36.5994830
  23.8347210 107.7236060  43.9742630  24.1319540 108.6298890  43.8934650
  24.3832770 107.2354840  43.3602200  21.5885530 112.3022300  39.8434280
  21.3626450 112.0859470  40.7480900  20.8078060 112.7350760  39.4980250
  28.8183290 112.3085670  38.4424930  28.2192180 113.0321470  38.2588550
  29.3662900 112.2462450  37.6601380  24.0284740 113.2007880  50.5094550
  23.9328340 112.2602610  50.3594950  24.8716720 113.4222950  50.1142620
  27.4248160 110.9449210  40.4728210  27.8177730 111.2621410  39.6596900
  27.7865010 110.0661090  40.5872730  19.1595280 109.6121550  48.6628330
  18.7658670 110.4596760  48.8701110  18.4713680 108.9747920  48.8536970
  25.7340330 109.6956520  51.7325070  25.0438650 109.5028720  52.3671160
  26.4772630 109.9791160  52.2649370  16.4612330 107.5350010  42.6958410
  16.1725380 108.1052870  43.4083390  17.2058090 107.0554460  43.0589640
  16.6482560 111.4770130  33.9061130  16.5657230 112.4200890  34.0476120
  16.2965620 111.3345040  33.0273480  28.0103300 113.5354960  44.5678990
  27.2784420 114.0441770  44.9169090  27.6127640 112.7184940  44.2667770
  24.4480690 110.2109160  42.9731480  24.4516750 109.7699110  42.1236020
  25.3431810 110.5326490  43.0803300  20.2983070 110.0935650  41.9325690
  19.9583120 110.5710880  42.6892740  19.5360390 109.6400770  41.5726790
  24.5100840 111.2121240  35.9638240  24.6313660 111.1707720  36.9124060
  24.1249350 112.0745390  35.8084970  28.4729210 108.9888640  43.9801930
  28.4901950 109.4397290  44.8243780  28.2244790 108.0894280  44.1935370
  23.5222340 113.5222380  35.3621540  22.9539240 113.0740630  34.7357450
  24.2311340 113.8815160  34.8286690  31.8999960 106.4020820  49.8188310
  32.2245730 105.6710480  50.3446290  31.9356470 106.0834460  48.9169300
  24.7488660 114.2710940  44.7196890  25.1158790 113.7969510  45.4658230
  24.5593720 115.1452510  45.0605230  17.6129150 109.0154630  40.8490360
  17.3276070 108.6510300  41.6868980  17.5508010 108.2835090  40.2353500
  22.5388030 113.3119580  47.0381100  22.2345100 114.1911560  47.2631460
  23.4934490 113.3719370  47.0738540  27.2867740 107.9083890  37.5703730
  26.4732350 107.4097060  37.4949040  27.0929690 108.7482140  37.1540080
  30.0016130 112.2803540  35.8665890  30.8895750 112.5920770  35.6917230
  29.9721220 111.4075790  35.4746470  18.5951760 114.1522320  48.1852460
  18.2366700 114.8176170  48.7725800  18.3006320 113.3205870  48.5565080
  21.7964880 114.6106560  51.0692010  21.4965020 114.7563740  50.1719830
  22.5676120 114.0511850  50.9765400  32.2730400 113.5915380  35.3345750
  32.1894120 114.0229600  34.4842190  32.9924590 114.0513730  35.7672570
  17.1059810 114.1513580  34.8087060  17.9754660 114.4338380  35.0922980
  16.6150130 114.9649450  34.6935870  20.1706400 105.8824440  39.4017860
  20.0421030 105.8742340  40.3502780  19.3468420 106.2207530  39.0508870
  17.1700330 107.6415560  48.8624560  16.4558850 107.8412480  49.4677170
  17.5895370 106.8655130  49.2339360  28.6639110 110.1337870  46.6126010
  29.0319930 109.3133080  46.9405580  27.8037310 110.1939760  47.0281660
  32.0301140 109.0894810  37.4213570  31.4014300 109.1940480  36.7071800
  31.5353060 109.3091590  38.2107450  23.9985170 111.3680760  38.8371450
  23.2901320 111.8367100  39.2785060  24.2829650 110.7102770  39.4716640
  25.6241100 112.7877460  46.8363980  26.1226350 113.2623280  47.5015830
  25.7664050 111.8640980  47.0434010  28.0300600 108.0931420  40.2767240
  27.9068380 108.1117550  39.3276750  28.9785160 108.1410360  40.3965640
  22.2020190 109.6765840  36.2122160  23.0510720 110.1135990  36.1462350
  21.8351460 109.9886100  37.0394220  32.8307960 109.0045420  47.6792370
  32.3281560 109.7450820  48.0186180  33.6464620 109.3929420  47.3629160
  31.1229970 114.2478600  41.1253730  30.1820110 114.2628830  41.3001420
  31.4374040 113.4614560  41.5714030  19.7958370 113.3623270  35.3690580
  19.8761960 112.4150780  35.4807980  20.6878120 113.6930150  35.4751240
  19.3552250 113.3267780  51.4996820  19.3957590 113.0281650  52.4082050
  20.2097750 113.7275390  51.3404340  21.2958060 111.9059880  49.4671310
  20.7654520 111.4150830  48.8394650  21.9646130 112.3344080  48.9329240
  30.6658290 113.7125500  51.2351650  31.2479060 112.9577820  51.1472130
  30.8420060 114.2432940  50.4583130  21.7830360 108.8722250  49.5468600
  21.6887230 108.2543000  48.8219470  21.2027750 109.5988540  49.3198510
  24.5491800 107.4295490  46.5795990  24.1009100 107.4519750  45.7341540
  23.9157000 107.0314510  47.1766290  27.2915250 114.0566000  48.5846270
  27.4111460 113.4607140  49.3241110  28.1509250 114.0935690  48.1647570
  22.0289540 111.9996560  33.6058490  21.8278600 111.1363920  33.9671830
  21.8581590 111.9129920  32.6680090  24.0584020 110.5987350  49.8422090
  24.6483710 110.2903200  50.5299910  23.2404260 110.1267100  49.9981990
  28.8777450 110.2153160  50.0755110  28.1892970 109.5534700  50.0105100
  29.5983470 109.7691430  50.5203570  29.5077850 106.8104790  36.1345370
  29.7880140 105.9672690  36.4904790  28.7343580 107.0427900  36.6484120
  20.8272340 109.0997180  33.5936370  21.1298240 109.1064610  32.6855520
  21.5666930 108.7495040  34.0904030  24.0457270 108.0431800  34.5792570
  23.6979270 107.3655790  33.9995020  24.2470040 107.5821310  35.3935960
  17.3862910 114.5719450  40.9756940  16.7311750 114.3031090  40.3316640
  18.2240860 114.4623930  40.5258920  30.3353350 109.3660740  35.1975430
  30.7538230 109.1791720  34.3572090  30.0289410 108.5139790  35.5078360
  33.8343080 114.2784880  38.8951230  33.4586680 113.5112810  38.4632520
  33.1046200 114.6607580  39.3826160  18.4238840 114.9572020  45.5160280
  18.7911880 114.8699420  46.3956300  17.8549660 114.1938570  45.4167140
  33.2242700 113.4256400  48.5290750  32.9928790 113.1969150  47.6288700
  33.4847250 114.3455950  48.4835640  17.9754840 111.8681110  49.4218700
  17.0810890 111.8347870  49.7612410  18.5152390 112.0667900  50.1869950
  31.6630770 108.6512830  51.3070450  32.5400950 108.6596230  51.6904450
  31.6751610 107.9143670  50.6962800  16.6000990 111.7818380  36.9182270
  15.6965070 112.0448580  36.7433930  17.0841610 112.0529550  36.1382230
  33.1094040 112.5042370  42.1958470  33.6331520 112.0105020  41.5648640
  33.6953460 112.6392730  42.9406040  33.2883760 112.5882240  45.7178020
  32.3386470 112.5545780  45.8323010  33.4696770 113.4982350  45.4827790
  19.1428200 110.8383920  34.8276650  19.8519900 110.4167140  34.3423930
  18.4268140 110.9059150  34.1960000  18.7902360 106.8923250  33.8679300
  19.5130490 107.4332190  34.1860520  19.0626880 106.6186670  32.9920840
  32.5994010 111.7615720  38.1350880  33.0953130 111.5286590  38.9199760
  32.4010080 110.9227560  37.7188520  18.4794550 106.1429440  43.7701920
  19.1270740 105.5926820  43.3297080  18.8996390 106.3972590  44.5917730
  34.0281170 110.3976670  40.6688560  33.9180450 110.2432710  41.6070830
  34.7888760 109.8697610  40.4263970  32.3746890 106.3370800  47.1271560
  33.0119110 106.9504940  47.4930750  32.5221780 106.3731460  46.1820790
  34.9171440 108.2284590  33.9094700  35.8420750 108.0965770  33.7012990
  34.8947230 108.3077410  34.8631150  34.9909930 108.9995250  36.5351410
  34.1961430 108.9340370  37.0644320  35.1953210 109.9345890  36.5236760
  18.2326550 106.2985110  46.5127240  17.8841370 106.7548930  47.2785420
  17.9014250 105.4042240  46.5949670  25.7451370 107.4896990  50.0346660
  25.6840260 108.0818820  50.7842070  26.6851750 107.3822950  49.8896920
  28.3825930 107.1467050  49.6738950  28.9966340 107.4646340  49.0120030
  28.9275490 106.6615640  50.2934810  18.9047190 105.8261310  49.7878010
  19.4530180 105.6449360  49.0244120  18.9702500 105.0355420  50.3234320
  29.1233970 105.7099190  46.0008240  28.2493810 106.0434300  45.7981170
  29.0144720 105.2372370  46.8260110  30.0305950 107.9170060  47.3849960
  29.7019310 107.1021820  47.0051690  30.9788250 107.8739870  47.2615650
  26.8708790 106.6269030  44.9401150  26.0880580 107.1014530  45.2197910
  26.5771720 105.7223860  44.8314330  31.4229860 107.3292130  42.9850240
  31.8637950 107.2737230  42.1371840  31.1537450 108.2450140  43.0560420
  33.2868430 106.9607370  40.9959060  33.2256830 106.0168590  40.8490080
  34.0660460 107.0687460  41.5412520  18.2149200 106.9316510  37.4614870
  18.9728560 107.0445390  36.8878900  17.7526370 107.7685710  37.4158300
  24.7563010 109.0455780  40.4517180  23.9437520 108.6712670  40.1113060
  25.2604650 108.2900860  40.7538370  29.2587990 105.7098230  41.6900250
  29.8617360 106.2818440  42.1648770  28.5180980 106.2737670  41.4674150
  32.4022590 106.1119790  36.9640530  32.5973220 107.0103240  37.2307960
  31.6152460 105.8806870  37.4573480  20.5874350 107.4580560  36.0016840
  21.1167110 106.6710360  35.8724790  21.2202670 108.1371750  36.2352370
  22.7812190 107.1955700  39.0562230  22.1514930 106.4943010  39.2232360
  22.2417330 107.9559830  38.8395390  22.9067750 106.4739680  51.4914720
  22.6252020 106.9773280  50.7275540  23.2887450 105.6761430  51.1256850
  29.5083210 105.8893260  52.0695190  29.3948660 106.2087870  52.9646710
  30.3252950 106.2905770  51.7732470  28.4141360 113.9085730  22.4329930
  28.3335410 112.9940340  22.1621640  28.0005780 114.4052800  21.7269640
  18.9717180 110.9586450  18.9757350  18.0833880 111.3002420  18.8737230
  19.2558370 110.7586770  18.0838180  16.9350190 113.5592100  24.8597050
  17.5066300 112.7914300  24.8600690  16.9351730 113.8580860  23.9503660
  18.1775060 108.9676460  26.6465980  17.9977900 108.0702210  26.9268740
  17.7755140 109.5148330  27.3212930  27.0173560 111.1692320  24.5478290
  27.3938380 110.2964200  24.4351960  26.9193070 111.5051020  23.6568730
  21.1478570 109.5417950  20.0095730  21.2545320 110.4421680  20.3164490
  20.2370930 109.4935920  19.7190380  30.7997680 108.6642760  21.4806630
  31.6207300 108.1739330  21.5232110  30.8331760 109.2540420  22.2338470
  18.7961730 111.4636960  25.2548320  19.4771840 111.7275330  25.8735720
  18.4809780 110.6237830  25.5886330  22.9886300 112.5104320  24.3420910
  23.4964520 113.0085290  24.9825930  23.5199540 111.7339520  24.1660270
  35.0897230 110.6809510  28.0450260  34.3849400 111.0691220  27.5265370
  35.3555150 111.3759800  28.6471190  21.2722400 107.1502880  28.6084330
  21.2740840 107.6675270  27.8030230  20.4426710 106.6733060  28.5854260
  31.0359160 110.6043140  24.2534170  30.3314730 110.8928030  24.8337280
  31.3971320 111.4143250  23.8933730  20.9537730 108.8612840  26.6154780
  21.2954540 109.7054890  26.3208650  20.0153540 109.0096580  26.7320120
  34.1046080 110.0497930  24.6443380  33.1570990 110.0836910  24.7758810
  34.4296070 110.8636880  25.0292740  24.6365620 106.3495110  22.9399370
  24.9440600 105.7942000  22.2234870  23.7066320 106.4839570  22.7572360
  27.0115460 110.6860940  16.6726650  26.0719130 110.8474900  16.7579110
  27.3298720 111.4046620  16.1262640  30.4970230 112.1548780  27.5960550
  30.0841410 112.9802490  27.8500540  29.7646180 111.5693820  27.4036910
  22.6303020 114.9408680  22.4579220  22.2260020 114.2285930  21.9625120
  22.7166140 114.5961920  23.3467260  21.3431640 111.7151890  26.2378260
  21.8946230 111.8247230  25.4631510  21.8575150 112.0889490  26.9533490
  32.8125510 106.4693860  15.5008530  32.4998170 106.5620690  16.4007600
  33.5737980 107.0474890  15.4505960  19.3307650 113.8353660  19.9585870
  19.2105250 114.5615750  19.3467140  19.0208540 113.0656570  19.4813780
  34.0226800 111.2065360  31.4782670  33.4071070 111.7145030  30.9498130
  33.7023220 110.3063690  31.4208610  21.7971310 107.1788730  23.3409540
  21.3539460 107.9598270  23.0094060  22.3556300 107.5018620  24.0480480
  26.0841120 110.0457250  28.9444860  25.6220490 110.2540270  29.7564800
  25.6819230 109.2316600  28.6415530  31.0845630 111.2666200  30.0741520
  30.2339220 110.9671950  30.3950590  30.9247420 111.5108210  29.1625340
  28.1795340 112.7667950  32.1740310  28.5048750 111.9331700  31.8342540
  28.9675670 113.2896470  32.3218640  24.9130130 106.7999430  18.2215370
  24.2884310 106.7959300  18.9468680  24.8260250 105.9330390  17.8251340
  23.8347210 107.7236060  25.1999140  24.1319540 108.6298890  25.1191160
  24.3832770 107.2354840  24.5858710  21.5885530 112.3022300  21.0690790
  21.3626450 112.0859470  21.9737410  20.8078060 112.7350760  20.7236760
  28.8183290 112.3085670  19.6681440  28.2192180 113.0321470  19.4845060
  29.3662900 112.2462450  18.8857890  24.0284740 113.2007880  31.7351060
  23.9328340 112.2602610  31.5851460  24.8716720 113.4222950  31.3399130
  27.4248160 110.9449210  21.6984720  27.8177730 111.2621410  20.8853410
  27.7865010 110.0661090  21.8129240  19.1595280 109.6121550  29.8884840
  18.7658670 110.4596760  30.0957620  18.4713680 108.9747920  30.0793480
  25.7340330 109.6956520  32.9581580  25.0438650 109.5028720  33.5927670
  26.4772630 109.9791160  33.4905880  16.4612330 107.5350010  23.9214920
  16.1725380 108.1052870  24.6339900  17.2058090 107.0554460  24.2846150
  16.6482560 111.4770130  15.1317640  16.5657230 112.4200890  15.2732630
  16.2965620 111.3345040  14.2529990  28.0103300 113.5354960  25.7935500
  27.2784420 114.0441770  26.1425600  27.6127640 112.7184940  25.4924280
  24.4480690 110.2109160  24.1987990  24.4516750 109.7699110  23.3492530
  25.3431810 110.5326490  24.3059810  20.2983070 110.0935650  23.1582200
  19.9583120 110.5710880  23.9149250  19.5360390 109.6400770  22.7983300
  24.5100840 111.2121240  17.1894750  24.6313660 111.1707720  18.1380570
  24.1249350 112.0745390  17.0341480  28.4729210 108.9888640  25.2058440
  28.4901950 109.4397290  26.0500290  28.2244790 108.0894280  25.4191880
  23.5222340 113.5222380  16.5878050  22.9539240 113.0740630  15.9613960
  24.2311340 113.8815160  16.0543200  31.8999960 106.4020820  31.0444820
  32.2245730 105.6710480  31.5702800  31.9356470 106.0834460  30.1425810
  24.7488660 114.2710940  25.9453400  25.1158790 113.7969510  26.6914740
  24.5593720 115.1452510  26.2861740  17.6129150 109.0154630  22.0746870
  17.3276070 108.6510300  22.9125490  17.5508010 108.2835090  21.4610010
  22.5388030 113.3119580  28.2637610  22.2345100 114.1911560  28.4887970
  23.4934490 113.3719370  28.2995050  27.2867740 107.9083890  18.7960240
  26.4732350 107.4097060  18.7205550  27.0929690 108.7482140  18.3796590
  30.0016130 112.2803540  17.0922400  30.8895750 112.5920770  16.9173740
  29.9721220 111.4075790  16.7002980  18.5951760 114.1522320  29.4108970
  18.2366700 114.8176170  29.9982310  18.3006320 113.3205870  29.7821590
  21.7964880 114.6106560  32.2948520  21.4965020 114.7563740  31.3976340
  22.5676120 114.0511850  32.2021910  32.2730400 113.5915380  16.5602260
  32.1894120 114.0229600  15.7098700  32.9924590 114.0513730  16.9929080
  17.1059810 114.1513580  16.0343570  17.9754660 114.4338380  16.3179490
  16.6150130 114.9649450  15.9192380  20.1706400 105.8824440  20.6274370
  20.0421030 105.8742340  21.5759290  19.3468420 106.2207530  20.2765380
  17.1700330 107.6415560  30.0881070  16.4558850 107.8412480  30.6933680
  17.5895370 106.8655130  30.4595870  28.6639110 110.1337870  27.8382520
  29.0319930 109.3133080  28.1662090  27.8037310 110.1939760  28.2538170
  32.0301140 109.0894810  18.6470080  31.4014300 109.1940480  17.9328310
  31.5353060 109.3091590  19.4363960  23.9985170 111.3680760  20.0627960
  23.2901320 111.8367100  20.5041570  24.2829650 110.7102770  20.6973150
  25.6241100 112.7877460  28.0620490  26.1226350 113.2623280  28.7272340
  25.7664050 111.8640980  28.2690520  28.0300600 108.0931420  21.5023750
  27.9068380 108.1117550  20.5533260  28.9785160 108.1410360  21.6222150
  22.2020190 109.6765840  17.4378670  23.0510720 110.1135990  17.3718860
  21.8351460 109.9886100  18.2650730  32.8307960 109.0045420  28.9048880
  32.3281560 109.7450820  29.2442690  33.6464620 109.3929420  28.5885670
  31.1229970 114.2478600  22.3510240  30.1820110 114.2628830  22.5257930
  31.4374040 113.4614560  22.7970540  19.7958370 113.3623270  16.5947090
  19.8761960 112.4150780  16.7064490  20.6878120 113.6930150  16.7007750
  19.3552250 113.3267780  32.7253330  19.3957590 113.0281650  33.6338560
  20.2097750 113.7275390  32.5660850  21.2958060 111.9059880  30.6927820
  20.7654520 111.4150830  30.0651160  21.9646130 112.3344080  30.1585750
  30.6658290 113.7125500  32.4608160  31.2479060 112.9577820  32.3728640
  30.8420060 114.2432940  31.6839640  21.7830360 108.8722250  30.7725110
  21.6887230 108.2543000  30.0475980  21.2027750 109.5988540  30.5455020
  24.5491800 107.4295490  27.8052500  24.1009100 107.4519750  26.9598050
  23.9157000 107.0314510  28.4022800  27.2915250 114.0566000  29.8102780
  27.4111460 113.4607140  30.5497620  28.1509250 114.0935690  29.3904080
  22.0289540 111.9996560  14.8315000  21.8278600 111.1363920  15.1928340
  21.8581590 111.9129920  13.8936600  24.0584020 110.5987350  31.0678600
  24.6483710 110.2903200  31.7556420  23.2404260 110.1267100  31.2238500
  28.8777450 110.2153160  31.3011620  28.1892970 109.5534700  31.2361610
  29.5983470 109.7691430  31.7460080  29.5077850 106.8104790  17.3601880
  29.7880140 105.9672690  17.7161300  28.7343580 107.0427900  17.8740630
  20.8272340 109.0997180  14.8192880  21.1298240 109.1064610  13.9112030
  21.5666930 108.7495040  15.3160540  24.0457270 108.0431800  15.8049080
  23.6979270 107.3655790  15.2251530  24.2470040 107.5821310  16.6192470
  17.3862910 114.5719450  22.2013450  16.7311750 114.3031090  21.5573150
  18.2240860 114.4623930  21.7515430  30.3353350 109.3660740  16.4231940
  30.7538230 109.1791720  15.5828600  30.0289410 108.5139790  16.7334870
  33.8343080 114.2784880  20.1207740  33.4586680 113.5112810  19.6889030
  33.1046200 114.6607580  20.6082670  18.4238840 114.9572020  26.7416790
  18.7911880 114.8699420  27.6212810  17.8549660 114.1938570  26.6423650
  33.2242700 113.4256400  29.7547260  32.9928790 113.1969150  28.8545210
  33.4847250 114.3455950  29.7092150  17.9754840 111.8681110  30.6475210
  17.0810890 111.8347870  30.9868920  18.5152390 112.0667900  31.4126460
  31.6630770 108.6512830  32.5326960  32.5400950 108.6596230  32.9160960
  31.6751610 107.9143670  31.9219310  16.6000990 111.7818380  18.1438780
  15.6965070 112.0448580  17.9690440  17.0841610 112.0529550  17.3638740
  33.1094040 112.5042370  23.4214980  33.6331520 112.0105020  22.7905150
  33.6953460 112.6392730  24.1662550  33.2883760 112.5882240  26.9434530
  32.3386470 112.5545780  27.0579520  33.4696770 113.4982350  26.7084300
  19.1428200 110.8383920  16.0533160  19.8519900 110.4167140  15.5680440
  18.4268140 110.9059150  15.4216510  18.7902360 106.8923250  15.0935810
  19.5130490 107.4332190  15.4117030  19.0626880 106.6186670  14.2177350
  32.5994010 111.7615720  19.3607390  33.0953130 111.5286590  20.1456270
  32.4010080 110.9227560  18.9445030  18.4794550 106.1429440  24.9958430
  19.1270740 105.5926820  24.5553590  18.8996390 106.3972590  25.8174240
  34.0281170 110.3976670  21.8945070  33.9180450 110.2432710  22.8327340
  34.7888760 109.8697610  21.6520480  32.3746890 106.3370800  28.3528070
  33.0119110 106.9504940  28.7187260  32.5221780 106.3731460  27.4077300
  34.9171440 108.2284590  15.1351210  35.8420750 108.0965770  14.9269500
  34.8947230 108.3077410  16.0887660  34.9909930 108.9995250  17.7607920
  34.1961430 108.9340370  18.2900830  35.1953210 109.9345890  17.7493270
  18.2326550 106.2985110  27.7383750  17.8841370 106.7548930  28.5041930
  17.9014250 105.4042240  27.8206180  25.7451370 107.4896990  31.2603170
  25.6840260 108.0818820  32.0098580  26.6851750 107.3822950  31.1153430
  28.3825930 107.1467050  30.8995460  28.9966340 107.4646340  30.2376540
  28.9275490 106.6615640  31.5191320  18.9047190 105.8261310  31.0134520
  19.4530180 105.6449360  30.2500630  18.9702500 105.0355420  31.5490830
  29.1233970 105.7099190  27.2264750  28.2493810 106.0434300  27.0237680
  29.0144720 105.2372370  28.0516620  30.0305950 107.9170060  28.6106470
  29.7019310 107.1021820  28.2308200  30.9788250 107.8739870  28.4872160
  26.8708790 106.6269030  26.1657660  26.0880580 107.1014530  26.4454420
  26.5771720 105.7223860  26.0570840  31.4229860 107.3292130  24.2106750
  31.8637950 107.2737230  23.3628350  31.1537450 108.2450140  24.2816930
  33.2868430 106.9607370  22.2215570  33.2256830 106.0168590  22.0746590
  34.0660460 107.0687460  22.7669030  18.2149200 106.9316510  18.6871380
  18.9728560 107.0445390  18.1135410  17.7526370 107.7685710  18.6414810
  24.7563010 109.0455780  21.6773690  23.9437520 108.6712670  21.3369570
  25.2604650 108.2900860  21.9794880  29.2587990 105.7098230  22.9156760
  29.8617360 106.2818440  23.3905280  28.5180980 106.2737670  22.6930660
  32.4022590 106.1119790  18.1897040  32.5973220 107.0103240  18.4564470
  31.6152460 105.8806870  18.6829990  20.5874350 107.4580560  17.2273350
  21.1167110 106.6710360  17.0981300  21.2202670 108.1371750  17.4608880
  22.7812190 107.1955700  20.2818740  22.1514930 106.4943010  20.4488870
  22.2417330 107.9559830  20.0651900  22.9067750 106.4739680  32.7171230
  22.6252020 106.9773280  31.9532050  23.2887450 105.6761430  32.3513360
  29.5083210 105.8893260  33.2951700  29.3948660 106.2087870  34.1903220
  30.3252950 106.2905770  32.9988980  28.4141360 113.9085730   3.6586440
  28.3335410 112.9940340   3.3878150  28.0005780 114.4052800   2.9526150
  16.9350190 113.5592100   6.0853560  17.5066300 112.7914300   6.0857200
  16.9351730 113.8580860   5.1760170  18.1775060 108.9676460   7.8722490
  17.9977900 108.0702210   8.1525250  17.7755140 109.5148330   8.5469440
  27.0173560 111.1692320   5.7734800  27.3938380 110.2964200   5.6608470
  26.9193070 111.5051020   4.8825240  30.7997680 108.6642760   2.7063140
  31.6207300 108.1739330   2.7488620  30.8331760 109.2540420   3.4594980
  18.7961730 111.4636960   6.4804830  19.4771840 111.7275330   7.0992230
  18.4809780 110.6237830   6.8142840  22.9886300 112.5104320   5.5677420
  23.4964520 113.0085290   6.2082440  23.5199540 111.7339520   5.3916780
  35.0897230 110.6809510   9.2706770  34.3849400 111.0691220   8.7521880
  35.3555150 111.3759800   9.8727700  21.2722400 107.1502880   9.8340840
  21.2740840 107.6675270   9.0286740  20.4426710 106.6733060   9.8110770
  31.0359160 110.6043140   5.4790680  30.3314730 110.8928030   6.0593790
  31.3971320 111.4143250   5.1190240  20.9537730 108.8612840   7.8411290
  21.2954540 109.7054890   7.5465160  20.0153540 109.0096580   7.9576630
  34.1046080 110.0497930   5.8699890  33.1570990 110.0836910   6.0015320
  34.4296070 110.8636880   6.2549250  24.6365620 106.3495110   4.1655880
  24.9440600 105.7942000   3.4491380  23.7066320 106.4839570   3.9828870
  30.4970230 112.1548780   8.8217060  30.0841410 112.9802490   9.0757050
  29.7646180 111.5693820   8.6293420  22.6303020 114.9408680   3.6835730
  22.2260020 114.2285930   3.1881630  22.7166140 114.5961920   4.5723770
  21.3431640 111.7151890   7.4634770  21.8946230 111.8247230   6.6888020
  21.8575150 112.0889490   8.1790000  34.0226800 111.2065360  12.7039180
  33.4071070 111.7145030  12.1754640  33.7023220 110.3063690  12.6465120
  21.7971310 107.1788730   4.5666050  21.3539460 107.9598270   4.2350570
  22.3556300 107.5018620   5.2736990  26.0841120 110.0457250  10.1701370
  25.6220490 110.2540270  10.9821310  25.6819230 109.2316600   9.8672040
  31.0845630 111.2666200  11.2998030  30.2339220 110.9671950  11.6207100
  30.9247420 111.5108210  10.3881850  28.1795340 112.7667950  13.3996820
  28.5048750 111.9331700  13.0599050  28.9675670 113.2896470  13.5475150
  23.8347210 107.7236060   6.4255650  24.1319540 108.6298890   6.3447670
  24.3832770 107.2354840   5.8115220  21.5885530 112.3022300   2.2947300
  21.3626450 112.0859470   3.1993920  20.8078060 112.7350760   1.9493270
  24.0284740 113.2007880  12.9607570  23.9328340 112.2602610  12.8107970
  24.8716720 113.4222950  12.5655640  27.4248160 110.9449210   2.9241230
  27.8177730 111.2621410   2.1109920  27.7865010 110.0661090   3.0385750
  19.1595280 109.6121550  11.1141350  18.7658670 110.4596760  11.3214130
  18.4713680 108.9747920  11.3049990  25.7340330 109.6956520  14.1838090
  25.0438650 109.5028720  14.8184180  26.4772630 109.9791160  14.7162390
  16.4612330 107.5350010   5.1471430  16.1725380 108.1052870   5.8596410
  17.2058090 107.0554460   5.5102660  28.0103300 113.5354960   7.0192010
  27.2784420 114.0441770   7.3682110  27.6127640 112.7184940   6.7180790
  24.4480690 110.2109160   5.4244500  24.4516750 109.7699110   4.5749040
  25.3431810 110.5326490   5.5316320  20.2983070 110.0935650   4.3838710
  19.9583120 110.5710880   5.1405760  19.5360390 109.6400770   4.0239810
  28.4729210 108.9888640   6.4314950  28.4901950 109.4397290   7.2756800
  28.2244790 108.0894280   6.6448390  31.8999960 106.4020820  12.2701330
  32.2245730 105.6710480  12.7959310  31.9356470 106.0834460  11.3682320
  24.7488660 114.2710940   7.1709910  25.1158790 113.7969510   7.9171250
  24.5593720 115.1452510   7.5118250  17.6129150 109.0154630   3.3003380
  17.3276070 108.6510300   4.1382000  17.5508010 108.2835090   2.6866520
  22.5388030 113.3119580   9.4894120  22.2345100 114.1911560   9.7144480
  23.4934490 113.3719370   9.5251560  18.5951760 114.1522320  10.6365480
  18.2366700 114.8176170  11.2238820  18.3006320 113.3205870  11.0078100
  21.7964880 114.6106560  13.5205030  21.4965020 114.7563740  12.6232850
  22.5676120 114.0511850  13.4278420  17.1700330 107.6415560  11.3137580
  16.4558850 107.8412480  11.9190190  17.5895370 106.8655130  11.6852380
  28.6639110 110.1337870   9.0639030  29.0319930 109.3133080   9.3918600
  27.8037310 110.1939760   9.4794680  25.6241100 112.7877460   9.2877000
  26.1226350 113.2623280   9.9528850  25.7664050 111.8640980   9.4947030
  28.0300600 108.0931420   2.7280260  27.9068380 108.1117550   1.7789770
  28.9785160 108.1410360   2.8478660  32.8307960 109.0045420  10.1305390
  32.3281560 109.7450820  10.4699200  33.6464620 109.3929420   9.8142180
  31.1229970 114.2478600   3.5766750  30.1820110 114.2628830   3.7514440
  31.4374040 113.4614560   4.0227050  19.3552250 113.3267780  13.9509840
  19.3957590 113.0281650  14.8595070  20.2097750 113.7275390  13.7917360
  21.2958060 111.9059880  11.9184330  20.7654520 111.4150830  11.2907670
  21.9646130 112.3344080  11.3842260  30.6658290 113.7125500  13.6864670
  31.2479060 112.9577820  13.5985150  30.8420060 114.2432940  12.9096150
  21.7830360 108.8722250  11.9981620  21.6887230 108.2543000  11.2732490
  21.2027750 109.5988540  11.7711530  24.5491800 107.4295490   9.0309010
  24.1009100 107.4519750   8.1854560  23.9157000 107.0314510   9.6279310
  27.2915250 114.0566000  11.0359290  27.4111460 113.4607140  11.7754130
  28.1509250 114.0935690  10.6160590  24.0584020 110.5987350  12.2935110
  24.6483710 110.2903200  12.9812930  23.2404260 110.1267100  12.4495010
  28.8777450 110.2153160  12.5268130  28.1892970 109.5534700  12.4618120
  29.5983470 109.7691430  12.9716590  17.3862910 114.5719450   3.4269960
  16.7311750 114.3031090   2.7829660  18.2240860 114.4623930   2.9771940
  18.4238840 114.9572020   7.9673300  18.7911880 114.8699420   8.8469320
  17.8549660 114.1938570   7.8680160  33.2242700 113.4256400  10.9803770
  32.9928790 113.1969150  10.0801720  33.4847250 114.3455950  10.9348660
  17.9754840 111.8681110  11.8731720  17.0810890 111.8347870  12.2125430
  18.5152390 112.0667900  12.6382970  31.6630770 108.6512830  13.7583470
  32.5400950 108.6596230  14.1417470  31.6751610 107.9143670  13.1475820
  33.1094040 112.5042370   4.6471490  33.6331520 112.0105020   4.0161660
  33.6953460 112.6392730   5.3919060  33.2883760 112.5882240   8.1691040
  32.3386470 112.5545780   8.2836030  33.4696770 113.4982350   7.9340810
  18.4794550 106.1429440   6.2214940  19.1270740 105.5926820   5.7810100
  18.8996390 106.3972590   7.0430750  34.0281170 110.3976670   3.1201580
  33.9180450 110.2432710   4.0583850  34.7888760 109.8697610   2.8776990
  32.3746890 106.3370800   9.5784580  33.0119110 106.9504940   9.9443770
  32.5221780 106.3731460   8.6333810  18.2326550 106.2985110   8.9640260
  17.8841370 106.7548930   9.7298440  17.9014250 105.4042240   9.0462690
  25.7451370 107.4896990  12.4859680  25.6840260 108.0818820  13.2355090
  26.6851750 107.3822950  12.3409940  28.3825930 107.1467050  12.1251970
  28.9966340 107.4646340  11.4633050  28.9275490 106.6615640  12.7447830
  18.9047190 105.8261310  12.2391030  19.4530180 105.6449360  11.4757140
  18.9702500 105.0355420  12.7747340  29.1233970 105.7099190   8.4521260
  28.2493810 106.0434300   8.2494190  29.0144720 105.2372370   9.2773130
  30.0305950 107.9170060   9.8362980  29.7019310 107.1021820   9.4564710
  30.9788250 107.8739870   9.7128670  26.8708790 106.6269030   7.3914170
  26.0880580 107.1014530   7.6710930  26.5771720 105.7223860   7.2827350
  31.4229860 107.3292130   5.4363260  31.8637950 107.2737230   4.5884860
  31.1537450 108.2450140   5.5073440  33.2868430 106.9607370   3.4472080
  33.2256830 106.0168590   3.3003100  34.0660460 107.0687460   3.9925540
  24.7563010 109.0455780   2.9030200  23.9437520 108.6712670   2.5626080
  25.2604650 108.2900860   3.2051390  29.2587990 105.7098230   4.1413270
  29.8617360 106.2818440   4.6161790  28.5180980 106.2737670   3.9187170
  22.9067750 106.4739680  13.9427740  22.6252020 106.9773280  13.1788560
  23.2887450 105.6761430  13.5769870  29.5083210 105.8893260  14.5208210
  29.3948660 106.2087870  15.4159730  30.3252950 106.2905770  14.2245490
  28.4141360  95.1342240  97.5303890  28.3335410  94.2196850  97.2595600
  28.0005780  95.6309310  96.8243600  26.5459400  96.9121260  99.4113160
  25.7701500  96.4321700  99.7011730  27.1972330  96.2326910  99.2369320
  20.5625230  97.2241070 100.2888920  19.7310110  96.9689780 100.6885430
  21.1706210  97.2951840 101.0246840  30.5666830 101.3181450  98.1912290
  30.1048360 100.5468690  98.5199460  31.3792380 101.3447520  98.6964740
  20.5426490 101.2581160 100.4846940  20.8454530 100.3678900 100.3057160
  21.2870080 101.8151380 100.2569190  18.9717180  92.1842960  94.0731310
  18.0833880  92.5258930  93.9711190  19.2558370  91.9843280  93.1812140
  16.9350190  94.7848610  99.9571010  17.5066300  94.0170810  99.9574650
  16.9351730  95.0837370  99.0477620  26.7930140 103.6039460  97.8116280
  26.1741580 104.0596960  97.2410720  27.6481920 103.7590920  97.4105980
  25.9868390  99.5878450  99.4183320  25.9176670  98.6468390  99.2572450
  26.7488250  99.6779860  99.9905890  18.1775060  90.1932970 101.7439940
  17.9977900  89.2958720 102.0242700  17.7755140  90.7404840 102.4186890
  27.0173560  92.3948830  99.6452250  27.3938380  91.5220710  99.5325920
  26.9193070  92.7307530  98.7542690  21.1478570  90.7674460  95.1069690
  21.2545320  91.6678190  95.4138450  20.2370930  90.7192430  94.8164340
  30.7997680  89.8899270  96.5780590  31.6207300  89.3995840  96.6206070
  30.8331760  90.4796930  97.3312430  18.7961730  92.6893470 100.3522280
  19.4771840  92.9531840 100.9709680  18.4809780  91.8494340 100.6860290
  22.9886300  93.7360830  99.4394870  23.4964520  94.2341800 100.0799890
  23.5199540  92.9596030  99.2634230  27.6593490  98.4878700  95.2048190
  27.0410760  98.9528150  94.6410910  28.1716740  99.1806180  95.6217700
  22.5225250  98.0154570 101.8831790  22.1894630  98.6423490 102.5252860
  22.6991930  98.5416450 101.1033460  31.0359160  91.8299650  99.3508130
  30.3314730  92.1184540  99.9311240  31.3971320  92.6399760  98.9907690
  20.9537730  90.0869350 101.7128740  21.2954540  90.9311400 101.4182610
  20.0153540  90.2353090 101.8294080  17.0276690  99.1735230  92.5787820
  16.6504670  99.6622330  91.8472720  17.2849760  99.8460510  93.2094350
  32.6521940 101.4474780 101.6135610  31.9685460 102.1173890 101.6052280
  33.1916230 101.6455430 100.8480470  34.1046080  91.2754440  99.7417340
  33.1570990  91.3093420  99.8732770  34.4296070  92.0893390 100.1266700
  24.6365620  87.5751620  98.0373330  24.9440600  87.0198510  97.3208830
  23.7066320  87.7096080  97.8546320  30.1880680 103.2918910 100.3280790
  30.2007840 102.8881200  99.4603050  29.6355900 104.0666200 100.2242220
  31.4826100 100.0135130  95.4170960  31.3722430  99.0709460  95.5420380
  31.4794350 100.3750770  96.3033720  29.5866120  98.1948750 101.6563400
  30.0034910  97.9808860 100.8216860  30.3105940  98.4521540 102.2272020
  27.0246380  95.6400450  94.7733450  26.0975660  95.5737830  95.0021920
  27.1771200  96.5780580  94.6588690  27.0115460  91.9117450  91.7700610
  26.0719130  92.0731410  91.8553070  27.3298720  92.6303130  91.2236600
  33.5328220  96.5935970 101.7479640  32.7046850  96.6629060 101.2729770
  34.1278700  97.1790280 101.2795470  31.0543670  97.2020750  95.2768700
  30.4356090  96.8640300  94.6295000  31.0368120  96.5580510  95.9847890
  22.6303020  96.1665190  97.5553180  22.2260020  95.4542440  97.0599080
  22.7166140  95.8218430  98.4441220  23.0984720  99.8532750  99.7192390
  22.8013010  99.2478220  99.0400170  24.0484540  99.8910060  99.6081750
  21.3431640  92.9408400 101.3352220  21.8946230  93.0503740 100.5605470
  21.8575150  93.3146000 102.0507450  29.2308370  96.4407560  92.2841450
  29.6701650  95.6029990  92.1379270  29.9436790  97.0736960  92.3705590
  27.3403750 101.3803630  96.2522690  27.7799660 102.1227960  95.8378080
  27.2790640 101.6230200  97.1761650  32.8125510  87.6950370  90.5982490
  32.4998170  87.7877200  91.4981560  33.5737980  88.2731400  90.5479920
  19.3307650  95.0610170  95.0559830  19.2105250  95.7872260  94.4441100
  19.0208540  94.2913080  94.5787740  16.9693020  98.2325310 100.8628470
  17.0473440  98.3674080  99.9184190  17.5834700  97.5241200 101.0556590
  18.2140650  99.9325500  97.2734650  17.8068730 100.0740090  96.4188250
  19.1053660  99.6485660  97.0705860  30.0073930 104.3672750  93.6085700
  29.8475070 104.0775690  94.5067530  29.8420640 103.5912880  93.0730930
  22.4862310 104.1471280  95.3857320  22.3104790 103.2306820  95.1725120
  21.6318050 104.5058570  95.6255120  29.7100060 101.8760310  92.1683700
  29.0165220 101.8737600  91.5085980  30.4522920 101.4519630  91.7377870
  29.2749990 103.5023020  96.2432190  29.7306940 102.7212400  96.5570810
  29.6142510 104.2129840  96.7873370  21.7971310  88.4045240  98.4383500
  21.3539460  89.1854780  98.1068020  22.3556300  88.7275130  99.1454440
  24.9130130  88.0255940  93.3189330  24.2884310  88.0215810  94.0442640
  24.8260250  87.1586900  92.9225300  23.8347210  88.9492570 100.2973100
  24.1319540  89.8555400 100.2165120  24.3832770  88.4611350  99.6832670
  21.5885530  93.5278810  96.1664750  21.3626450  93.3115980  97.0711370
  20.8078060  93.9607270  95.8210720  28.8183290  93.5342180  94.7655400
  28.2192180  94.2577980  94.5819020  29.3662900  93.4718960  93.9831850
  27.4248160  92.1705720  96.7958680  27.8177730  92.4877920  95.9827370
  27.7865010  91.2917600  96.9103200  16.4612330  88.7606520  99.0188880
  16.1725380  89.3309380  99.7313860  17.2058090  88.2810970  99.3820110
  16.6482560  92.7026640  90.2291600  16.5657230  93.6457400  90.3706590
  16.2965620  92.5601550  89.3503950  28.0103300  94.7611470 100.8909460
  27.2784420  95.2698280 101.2399560  27.6127640  93.9441450 100.5898240
  24.4480690  91.4365670  99.2961950  24.4516750  90.9955620  98.4466490
  25.3431810  91.7583000  99.4033770  20.2983070  91.3192160  98.2556160
  19.9583120  91.7967390  99.0123210  19.5360390  90.8657280  97.8957260
  24.5100840  92.4377750  92.2868710  24.6313660  92.3964230  93.2354530
  24.1249350  93.3001900  92.1315440  28.4729210  90.2145150 100.3032400
  28.4901950  90.6653800 101.1474250  28.2244790  89.3150790 100.5165840
  23.5222340  94.7478890  91.6852010  22.9539240  94.2997140  91.0587920
  24.2311340  95.1071670  91.1517160  24.7488660  95.4967450 101.0427360
  25.1158790  95.0226020 101.7888700  24.5593720  96.3709020 101.3835700
  17.6129150  90.2411140  97.1720830  17.3276070  89.8766810  98.0099450
  17.5508010  89.5091600  96.5583970  21.0669820  98.7437080  93.9578420
  20.2932080  98.2034700  93.7977140  21.7964450  98.2243690  93.6196180
  31.8257800  97.7402440  99.7504810  32.5456920  98.2357730  99.3600920
  31.6239620  97.0620330  99.1058680  27.2867740  89.1340400  93.8934200
  26.4732350  88.6353570  93.8179510  27.0929690  89.9738650  93.4770550
  30.0016130  93.5060050  92.1896360  30.8895750  93.8177280  92.0147700
  29.9721220  92.6332300  91.7976940  21.1107220  98.4117460  97.5957230
  21.6285890  97.6085720  97.5414120  20.6591240  98.3496600  98.4374060
  25.9976720  99.6783740  92.8684530  26.3392420 100.4225970  92.3727850
  25.1689430  99.9914860  93.2309360  32.2730400  94.8171890  91.6576220
  32.1894120  95.2486110  90.8072660  32.9924590  95.2770240  92.0903040
  33.3017650 101.6714150  94.3858350  32.6593810 101.0169770  94.6602070
  32.9148310 102.0769240  93.6099020  28.8804130  98.9999580  98.2330040
  29.2327950  98.4027710  97.5731410  27.9966460  98.6743810  98.4038290
  24.9667410  99.7597270  95.6400450  25.6538540 100.3066480  96.0208040
  24.1799830 100.3038000  95.6750060  17.1059810  95.3770090  91.1317530
  17.9754660  95.6594890  91.4153450  16.6150130  96.1905960  91.0166340
  24.2694620  96.7643300  95.2525810  24.7257400  97.5748550  95.4786000
  23.9182830  96.4466440  96.0844300  20.1706400  87.1080950  95.7248330
  20.0421030  87.0998850  96.6733250  19.3468420  87.4464040  95.3739340
  27.8459310 100.2781990 101.1995560  28.4881540  99.5775150 101.3127730
  28.3708660 101.0580430 101.0192450  31.6915030 100.5630610  90.9234700
  31.4652610  99.8461050  91.5159340  31.3011230 100.3143050  90.0856450
  17.4731060 104.5897470  91.6979160  17.8328700 105.1886810  91.0436430
  17.3323400 105.1357360  92.4714190  31.2731280  98.4802550  92.5848860
  30.9852980  98.9415240  93.3726740  32.0683450  98.0200320  92.8533080
  23.4899680 101.9728670  92.5152830  23.4809780 102.7058360  91.8997340
  22.5698040 101.7260250  92.6079790  19.0906320  97.1943560  93.2599590
  18.4834270  97.9342460  93.2694890  19.5655670  97.2842920  92.4337790
  32.0301140  90.3151320  93.7444040  31.4014300  90.4196990  93.0302270
  31.5353060  90.5348100  94.5337920  26.4759280 102.0356910  91.1778020
  26.5771260 101.8320900  90.2480000  25.5761020 101.7815190  91.3825800
  23.9985170  92.5937270  95.1601920  23.2901320  93.0623610  95.6015530
  24.2829650  91.9359280  95.7947110  28.0300600  89.3187930  96.5997710
  27.9068380  89.3374060  95.6507220  28.9785160  89.3666870  96.7196110
  25.1177390 104.5543230  95.8725690  25.3718890 104.5164620  94.9505060
  24.1689870 104.4276560  95.8653940  22.2020190  90.9022350  92.5352630
  23.0510720  91.3392500  92.4692820  21.8351460  91.2142610  93.3624690
  31.1229970  95.4735110  97.4484200  30.1820110  95.4885340  97.6231890
  31.4374040  94.6871070  97.8944500  21.1011610  97.1554710  91.0088160
  21.8674880  97.0436070  91.5713590  21.1786300  96.4592680  90.3564930
  19.7958370  94.5879780  91.6921050  19.8761960  93.6407290  91.8038450
  20.6878120  94.9186660  91.7981710  33.1255550 102.6443960  99.1238460
  33.2502970 103.4675130  99.5962270  33.9921110 102.4334690  98.7762610
  20.5973080 104.7375170  98.7955590  21.3335560 104.1890630  99.0664160
  20.9814000 105.6031180  98.6561580  17.4818560 100.8048740  94.6697100
  16.5558340 101.0469880  94.6602510  17.9474990 101.6323000  94.5481850
  23.7075390 103.9105480  90.6181160  24.5004000 104.1994310  90.1662950
  23.1879740 103.4797650  89.9393640  32.7605560 103.1375610  92.0417900
  32.4747070 102.7240750  91.2272080  32.5625110 104.0663320  91.9218420
  24.2252790  99.1308890  90.4823510  24.1203430  98.5161240  91.2084890
  24.0577010  98.6074780  89.6986520  27.4655520  98.1928920  91.0865500
  26.9165620  98.6398220  91.7308240  28.0874780  97.6878170  91.6103170
  23.1330640  97.1519840  92.9830800  23.5547060  96.9859710  93.8262190
  23.2581480  96.3420070  92.4885940  25.6458280  96.1757450  90.2307900
  26.1663940  95.4606470  89.8649050  26.2926680  96.8143320  90.5308410
  22.0289540  93.2253070  89.9288960  21.8278600  92.3620430  90.2902300
  21.8581590  93.1386430  88.9910560  29.5077850  88.0361300  92.4575840
  29.7880140  87.1929200  92.8135260  28.7343580  88.2684410  92.9714590
  20.8272340  90.3253690  89.9166840  21.1298240  90.3321120  89.0085990
  21.5666930  89.9751550  90.4134500  24.0457270  89.2688310  90.9023040
  23.6979270  88.5912300  90.3225490  24.2470040  88.8077820  91.7166430
  26.2106310 104.2569060  92.5209640  27.1057100 104.5954030  92.5428400
  26.2423940 103.5348470  91.8933920  19.8502470  99.6296110  90.7496640
  20.2877340 100.1725780  91.4054220  20.3350200  98.8043060  90.7592980
  17.0648270 102.4185140  98.2016900  17.3951280 101.5506200  97.9695540
  17.4939270 102.6243660  99.0321860  21.6610190 100.7494150  95.8618870
  21.3605730 100.6259120  96.7622780  21.5547680  99.8902740  95.4534600
  17.5538480 103.2855730 100.9398530  17.1169470 103.4656530 101.7722680
  18.1216160 104.0430350 100.7980250  34.4302110 100.5290550  90.5645550
  33.5995070 100.5967200  91.0352780  34.6073940 101.4194670  90.2612410
  33.8858570  97.2738030  93.0679750  34.6477480  97.8434680  93.1739440
  33.9012940  96.7065230  93.8388060  17.3862910  95.7975960  97.2987410
  16.7311750  95.5287600  96.6547110  18.2240860  95.6880440  96.8489390
  34.8918540  98.1288130  97.9121680  35.2627370  97.3455450  97.5057650
  35.5320470  98.8177230  97.7338980  33.9377740  97.5672400  90.2252270
  34.2126580  98.4751280  90.0971490  33.7488480  97.5034930  91.1614260
  30.3353350  90.5917250  91.5205900  30.7538230  90.4048230  90.6802560
  30.0289410  89.7396300  91.8308830  33.8343080  95.5041390  95.2181700
  33.4586680  94.7369320  94.7862990  33.1046200  95.8864090  95.7056630
  18.4238840  96.1828530 101.8390750  18.7911880  96.0955930 102.7186770
  17.8549660  95.4195080 101.7397610  16.6000990  93.0074890  93.2412740
  15.6965070  93.2705090  93.0664400  17.0841610  93.2786060  92.4612700
  33.1094040  93.7298880  98.5188940  33.6331520  93.2361530  97.8879110
  33.6953460  93.8649240  99.2636510  33.2883760  93.8138750 102.0408490
  32.3386470  93.7802290 102.1553480  33.4696770  94.7238860 101.8058260
  19.1428200  92.0640430  91.1507120  19.8519900  91.6423650  90.6654400
  18.4268140  92.1315660  90.5190470  18.7902360  88.1179760  90.1909770
  19.5130490  88.6588700  90.5090990  19.0626880  87.8443180  89.3151310
  32.5994010  92.9872230  94.4581350  33.0953130  92.7543100  95.2430230
  32.4010080  92.1484070  94.0418990  18.4794550  87.3685950 100.0932390
  19.1270740  86.8183330  99.6527550  18.8996390  87.6229100 100.9148200
  34.0281170  91.6233180  96.9919030  33.9180450  91.4689220  97.9301300
  34.7888760  91.0954120  96.7494440  34.9171440  89.4541100  90.2325170
  35.8420750  89.3222280  90.0243460  34.8947230  89.5333920  91.1861620
  34.9909930  90.2251760  92.8581880  34.1961430  90.1596880  93.3874790
  35.1953210  91.1602400  92.8467230  31.9328350 104.2643310  96.8520270
  32.5287420 103.9427880  96.1754690  32.1906500 103.7915130  97.6433540
  23.5396950 102.2520810 102.6020620  23.2988310 102.5195370 101.7151140
  24.4799590 102.4226540 102.6571480  32.4840560 104.9138610 100.6818000
  32.0243530 105.6654420 100.3076020  31.8553020 104.1945080 100.6232800
  22.9136280 103.2226850  99.8566130  23.4301300 102.6114210  99.3314390
  23.5633660 103.7255630 100.3477140  25.6531780 104.1135340 100.6835110
  25.9409590 103.8589640  99.8068120  26.1655000 103.5612700 101.2740680
  26.8708790  87.8525540 101.2631620  26.0880580  88.3271040 101.5428380
  26.5771720  86.9480370 101.1544800  31.4229860  88.5548640  99.3080710
  31.8637950  88.4993740  98.4602310  31.1537450  89.4706650  99.3790890
  33.2868430  88.1863880  97.3189530  33.2256830  87.2425100  97.1720550
  34.0660460  88.2943970  97.8642990  17.5921180 104.3256240  96.2813480
  17.4243220 103.6926920  96.9795370  16.7255690 104.5315640  95.9307670
  18.2149200  88.1573020  93.7845340  18.9728560  88.2701900  93.2109370
  17.7526370  88.9942220  93.7388770  24.7563010  90.2712290  96.7747650
  23.9437520  89.8969180  96.4343530  25.2604650  89.5157370  97.0768840
  29.2587990  86.9354740  98.0130720  29.8617360  87.5074950  98.4879240
  28.5180980  87.4994180  97.7904620  32.4022590  87.3376300  93.2871000
  32.5973220  88.2359750  93.5538430  31.6152460  87.1063380  93.7803950
  19.1983880 103.0189470  93.7263620  18.6731500 103.3997500  93.0225580
  19.1228460 103.6440240  94.4473330  20.5874350  88.6837070  92.3247310
  21.1167110  87.8966870  92.1955260  21.2202670  89.3628260  92.5582840
  22.7812190  88.4212210  95.3792700  22.1514930  87.7199520  95.5462830
  22.2417330  89.1816340  95.1625860  33.9549200 104.5777010  95.0477560
  34.1301390 103.8914750  94.4038480  33.2570770 105.1024060  94.6554230
  21.7976850 104.9671850  92.6012870  22.5295670 104.6831130  92.0536760
  22.0570520 104.7285130  93.4912250  20.9591640 101.0836580  92.6059200
  20.3300520 101.5521680  93.1545030  21.0739470 100.2385800  93.0405390
  28.4141360  95.1342240  78.7560400  28.3335410  94.2196850  78.4852110
  28.0005780  95.6309310  78.0500110  26.5459400  96.9121260  80.6369670
  25.7701500  96.4321700  80.9268240  27.1972330  96.2326910  80.4625830
  20.5625230  97.2241070  81.5145430  19.7310110  96.9689780  81.9141940
  21.1706210  97.2951840  82.2503350  30.5666830 101.3181450  79.4168800
  30.1048360 100.5468690  79.7455970  31.3792380 101.3447520  79.9221250
  20.5426490 101.2581160  81.7103450  20.8454530 100.3678900  81.5313670
  21.2870080 101.8151380  81.4825700  18.9717180  92.1842960  75.2987820
  18.0833880  92.5258930  75.1967700  19.2558370  91.9843280  74.4068650
  16.9350190  94.7848610  81.1827520  17.5066300  94.0170810  81.1831160
  16.9351730  95.0837370  80.2734130  26.7930140 103.6039460  79.0372790
  26.1741580 104.0596960  78.4667230  27.6481920 103.7590920  78.6362490
  25.9868390  99.5878450  80.6439830  25.9176670  98.6468390  80.4828960
  26.7488250  99.6779860  81.2162400  18.1775060  90.1932970  82.9696450
  17.9977900  89.2958720  83.2499210  17.7755140  90.7404840  83.6443400
  27.0173560  92.3948830  80.8708760  27.3938380  91.5220710  80.7582430
  26.9193070  92.7307530  79.9799200  21.1478570  90.7674460  76.3326200
  21.2545320  91.6678190  76.6394960  20.2370930  90.7192430  76.0420850
  30.7997680  89.8899270  77.8037100  31.6207300  89.3995840  77.8462580
  30.8331760  90.4796930  78.5568940  18.7961730  92.6893470  81.5778790
  19.4771840  92.9531840  82.1966190  18.4809780  91.8494340  81.9116800
  22.9886300  93.7360830  80.6651380  23.4964520  94.2341800  81.3056400
  23.5199540  92.9596030  80.4890740  35.0897230  91.9066020  84.3680730
  34.3849400  92.2947730  83.8495840  35.3555150  92.6016310  84.9701660
  21.2722400  88.3759390  84.9314800  21.2740840  88.8931780  84.1260700
  20.4426710  87.8989570  84.9084730  27.6593490  98.4878700  76.4304700
  27.0410760  98.9528150  75.8667420  28.1716740  99.1806180  76.8474210
  22.5225250  98.0154570  83.1088300  22.1894630  98.6423490  83.7509370
  22.6991930  98.5416450  82.3289970  31.0359160  91.8299650  80.5764640
  30.3314730  92.1184540  81.1567750  31.3971320  92.6399760  80.2164200
  20.9537730  90.0869350  82.9385250  21.2954540  90.9311400  82.6439120
  20.0153540  90.2353090  83.0550590  21.7344350  99.9835370  84.9237480
  22.3518350 100.6586450  84.6421930  20.8737470 100.3923350  84.8324980
  17.0276690  99.1735230  73.8044330  16.6504670  99.6622330  73.0729230
  17.2849760  99.8460510  74.4350860  32.6521940 101.4474780  82.8392120
  31.9685460 102.1173890  82.8308790  33.1916230 101.6455430  82.0736980
  34.1046080  91.2754440  80.9673850  33.1570990  91.3093420  81.0989280
  34.4296070  92.0893390  81.3523210  24.6365620  87.5751620  79.2629840
  24.9440600  87.0198510  78.5465340  23.7066320  87.7096080  79.0802830
  30.1880680 103.2918910  81.5537300  30.2007840 102.8881200  80.6859560
  29.6355900 104.0666200  81.4498730  31.4826100 100.0135130  76.6427470
  31.3722430  99.0709460  76.7676890  31.4794350 100.3750770  77.5290230
  29.5866120  98.1948750  82.8819910  30.0034910  97.9808860  82.0473370
  30.3105940  98.4521540  83.4528530  27.0246380  95.6400450  75.9989960
  26.0975660  95.5737830  76.2278430  27.1771200  96.5780580  75.8845200
  27.0115460  91.9117450  72.9957120  26.0719130  92.0731410  73.0809580
  27.3298720  92.6303130  72.4493110  33.5328220  96.5935970  82.9736150
  32.7046850  96.6629060  82.4986280  34.1278700  97.1790280  82.5051980
  31.0543670  97.2020750  76.5025210  30.4356090  96.8640300  75.8551510
  31.0368120  96.5580510  77.2104400  30.4970230  93.3805290  83.9191020
  30.0841410  94.2059000  84.1731010  29.7646180  92.7950330  83.7267380
  22.6303020  96.1665190  78.7809690  22.2260020  95.4542440  78.2855590
  22.7166140  95.8218430  79.6697730  23.0984720  99.8532750  80.9448900
  22.8013010  99.2478220  80.2656680  24.0484540  99.8910060  80.8338260
  21.3431640  92.9408400  82.5608730  21.8946230  93.0503740  81.7861980
  21.8575150  93.3146000  83.2763960  31.1870330 103.4264620  84.6072000
  30.7100890 104.2336810  84.4144610  30.5032120 102.7742950  84.7598210
  22.1903150  99.5914440  87.5956700  21.2931680  99.8154410  87.8430100
  22.2156020  99.7149380  86.6468100  29.2308370  96.4407560  73.5097960
  29.6701650  95.6029990  73.3635780  29.9436790  97.0736960  73.5962100
  21.0174370  96.4627760  86.1714070  20.8782140  97.3350560  86.5401470
  20.1355730  96.1200570  86.0262010  27.3403750 101.3803630  77.4779200
  27.7799660 102.1227960  77.0634590  27.2790640 101.6230200  78.4018160
  22.8154720 102.4049460  88.3799220  22.7870150 102.8092410  87.5127650
  22.6519690 101.4759820  88.2170820  32.8125510  87.6950370  71.8239000
  32.4998170  87.7877200  72.7238070  33.5737980  88.2731400  71.7736430
  19.3307650  95.0610170  76.2816340  19.2105250  95.7872260  75.6697610
  19.0208540  94.2913080  75.8044250  34.7669540 103.1876560  89.6763390
  35.2429260 103.6659450  90.3552470  35.3876700 103.1194050  88.9508890
  16.9693020  98.2325310  82.0884980  17.0473440  98.3674080  81.1440700
  17.5834700  97.5241200  82.2813100  18.2140650  99.9325500  78.4991160
  17.8068730 100.0740090  77.6444760  19.1053660  99.6485660  78.2962370
  34.1702790 100.3789410  86.8363400  34.2965850 100.1401290  85.9180580
  34.2124170  99.5473950  87.3085480  28.0319530 104.0817410  85.4058210
  28.5464200 103.9925420  86.2080640  27.1888610 104.4277110  85.6986120
  30.0073930 104.3672750  74.8342210  29.8475070 104.0775690  75.7324040
  29.8420640 103.5912880  74.2987440  22.4862310 104.1471280  76.6113830
  22.3104790 103.2306820  76.3981630  21.6318050 104.5058570  76.8511630
  29.7100060 101.8760310  73.3940210  29.0165220 101.8737600  72.7342490
  30.4522920 101.4519630  72.9634380  29.2749990 103.5023020  77.4688700
  29.7306940 102.7212400  77.7827320  29.6142510 104.2129840  78.0129880
  34.0226800  92.4321870  87.8013140  33.4071070  92.9401540  87.2728600
  33.7023220  91.5320200  87.7439080  17.0252540  99.2739480  84.6279440
  17.1883580  98.8044840  83.8098810  17.4904990  98.7663040  85.2928280
  21.7971310  88.4045240  79.6640010  21.3539460  89.1854780  79.3324530
  22.3556300  88.7275130  80.3710950  31.0845630  92.4922710  86.3971990
  30.2339220  92.1928460  86.7181060  30.9247420  92.7364720  85.4855810
  28.1795340  93.9924460  88.4970780  28.5048750  93.1588210  88.1573010
  28.9675670  94.5152980  88.6449110  24.9130130  88.0255940  74.5445840
  24.2884310  88.0215810  75.2699150  24.8260250  87.1586900  74.1481810
  23.8347210  88.9492570  81.5229610  24.1319540  89.8555400  81.4421630
  24.3832770  88.4611350  80.9089180  21.5885530  93.5278810  77.3921260
  21.3626450  93.3115980  78.2967880  20.8078060  93.9607270  77.0467230
  28.8183290  93.5342180  75.9911910  28.2192180  94.2577980  75.8075530
  29.3662900  93.4718960  75.2088360  24.0284740  94.4264390  88.0581530
  23.9328340  93.4859120  87.9081930  24.8716720  94.6479460  87.6629600
  27.4248160  92.1705720  78.0215190  27.8177730  92.4877920  77.2083880
  27.7865010  91.2917600  78.1359710  19.1595280  90.8378060  86.2115310
  18.7658670  91.6853270  86.4188090  18.4713680  90.2004430  86.4023950
  25.7340330  90.9213030  89.2812050  25.0438650  90.7285230  89.9158140
  26.4772630  91.2047670  89.8136350  16.4612330  88.7606520  80.2445390
  16.1725380  89.3309380  80.9570370  17.2058090  88.2810970  80.6076620
  16.6482560  92.7026640  71.4548110  16.5657230  93.6457400  71.5963100
  16.2965620  92.5601550  70.5760460  28.0103300  94.7611470  82.1165970
  27.2784420  95.2698280  82.4656070  27.6127640  93.9441450  81.8154750
  24.4480690  91.4365670  80.5218460  24.4516750  90.9955620  79.6723000
  25.3431810  91.7583000  80.6290280  20.2983070  91.3192160  79.4812670
  19.9583120  91.7967390  80.2379720  19.5360390  90.8657280  79.1213770
  24.5100840  92.4377750  73.5125220  24.6313660  92.3964230  74.4611040
  24.1249350  93.3001900  73.3571950  28.4729210  90.2145150  81.5288910
  28.4901950  90.6653800  82.3730760  28.2244790  89.3150790  81.7422350
  23.5222340  94.7478890  72.9108520  22.9539240  94.2997140  72.2844430
  24.2311340  95.1071670  72.3773670  31.8999960  87.6277330  87.3675290
  32.2245730  86.8966990  87.8933270  31.9356470  87.3090970  86.4656280
  18.5991520  98.6490910  86.7875250  18.2146310  98.0084580  87.3858210
  18.9103710  99.3527030  87.3569980  24.7488660  95.4967450  82.2683870
  25.1158790  95.0226020  83.0145210  24.5593720  96.3709020  82.6092210
  17.6129150  90.2411140  78.3977340  17.3276070  89.8766810  79.2355960
  17.5508010  89.5091600  77.7840480  22.5388030  94.5376090  84.5868080
  22.2345100  95.4168070  84.8118440  23.4934490  94.5975880  84.6225520
  21.0669820  98.7437080  75.1834930  20.2932080  98.2034700  75.0233650
  21.7964450  98.2243690  74.8452690  31.8257800  97.7402440  80.9761320
  32.5456920  98.2357730  80.5857430  31.6239620  97.0620330  80.3315190
  27.2867740  89.1340400  75.1190710  26.4732350  88.6353570  75.0436020
  27.0929690  89.9738650  74.7027060  27.2076600  97.8111500  86.8630320
  27.1413910  96.8907170  86.6087910  26.5781740  97.9086940  87.5774960
  30.0016130  93.5060050  73.4152870  30.8895750  93.8177280  73.2404210
  29.9721220  92.6332300  73.0233450  21.1107220  98.4117460  78.8213740
  21.6285890  97.6085720  78.7670630  20.6591240  98.3496600  79.6630570
  25.9976720  99.6783740  74.0941040  26.3392420 100.4225970  73.5984360
  25.1689430  99.9914860  74.4565870  18.5951760  95.3778830  85.7339440
  18.2366700  96.0432680  86.3212780  18.3006320  94.5462380  86.1052060
  21.7964880  95.8363070  88.6178990  21.4965020  95.9820250  87.7206810
  22.5676120  95.2768360  88.5252380  27.1393330 100.6332070  86.6134120
  27.1537870  99.7013030  86.3953030  26.4318430 100.7191830  87.2523890
  32.2730400  94.8171890  72.8832730  32.1894120  95.2486110  72.0329170
  32.9924590  95.2770240  73.3159550  33.3504540  97.2739410  85.9602700
  32.6252730  97.8668190  85.7632090  33.8780000  97.2662950  85.1616070
  33.3017650 101.6714150  75.6114860  32.6593810 101.0169770  75.8858580
  32.9148310 102.0769240  74.8355530  28.8804130  98.9999580  79.4586550
  29.2327950  98.4027710  78.7987920  27.9966460  98.6743810  79.6294800
  24.9667410  99.7597270  76.8656960  25.6538540 100.3066480  77.2464550
  24.1799830 100.3038000  76.9006570  17.1059810  95.3770090  72.3574040
  17.9754660  95.6594890  72.6409960  16.6150130  96.1905960  72.2422850
  24.2694620  96.7643300  76.4782320  24.7257400  97.5748550  76.7042510
  23.9182830  96.4466440  77.3100810  26.5727230 102.2749640  83.7074620
  27.2169450 102.4809020  84.3848040  26.9356670 101.5138040  83.2545470
  20.1706400  87.1080950  76.9504840  20.0421030  87.0998850  77.8989760
  19.3468420  87.4464040  76.5995850  27.8459310 100.2781990  82.4252070
  28.4881540  99.5775150  82.5384240  28.3708660 101.0580430  82.2448960
  31.6915030 100.5630610  72.1491210  31.4652610  99.8461050  72.7415850
  31.3011230 100.3143050  71.3112960  29.6196930 101.0776890  85.6288130
  29.9553170 101.6643580  86.3066050  28.6997270 100.9469600  85.8585920
  17.4731060 104.5897470  72.9235670  17.8328700 105.1886810  72.2692940
  17.3323400 105.1357360  73.6970700  17.1700330  88.8672070  86.4111540
  16.4558850  89.0668990  87.0164150  17.5895370  88.0911640  86.7826340
  31.2731280  98.4802550  73.8105370  30.9852980  98.9415240  74.5983250
  32.0683450  98.0200320  74.0789590  17.4572920 102.8552330  87.3978070
  17.5664040 101.9147070  87.2573460  16.8053480 103.1207080  86.7491800
  25.4485510 101.1268220  88.7976190  25.1282380 100.4077460  89.3421880
  24.7743870 101.8023290  88.8712250  23.4899680 101.9728670  73.7409340
  23.4809780 102.7058360  73.1253850  22.5698040 101.7260250  73.8336300
  19.0906320  97.1943560  74.4856100  18.4834270  97.9342460  74.4951400
  19.5655670  97.2842920  73.6594300  28.6639110  91.3594380  84.1612990
  29.0319930  90.5389590  84.4892560  27.8037310  91.4196270  84.5768640
  32.0301140  90.3151320  74.9700550  31.4014300  90.4196990  74.2558780
  31.5353060  90.5348100  75.7594430  26.4759280 102.0356910  72.4034530
  26.5771260 101.8320900  71.4736510  25.5761020 101.7815190  72.6082310
  23.9985170  92.5937270  76.3858430  23.2901320  93.0623610  76.8272040
  24.2829650  91.9359280  77.0203620  25.6241100  94.0133970  84.3850960
  26.1226350  94.4879790  85.0502810  25.7664050  93.0897490  84.5920990
  28.0300600  89.3187930  77.8254220  27.9068380  89.3374060  76.8763730
  28.9785160  89.3666870  77.9452620  25.1177390 104.5543230  77.0982200
  25.3718890 104.5164620  76.1761570  24.1689870 104.4276560  77.0910450
  22.2020190  90.9022350  73.7609140  23.0510720  91.3392500  73.6949330
  21.8351460  91.2142610  74.5881200  32.8307960  90.2301930  85.2279350
  32.3281560  90.9707330  85.5673160  33.6464620  90.6185930  84.9116140
  31.1229970  95.4735110  78.6740710  30.1820110  95.4885340  78.8488400
  31.4374040  94.6871070  79.1201010  21.1011610  97.1554710  72.2344670
  21.8674880  97.0436070  72.7970100  21.1786300  96.4592680  71.5821440
  19.7958370  94.5879780  72.9177560  19.8761960  93.6407290  73.0294960
  20.6878120  94.9186660  73.0238220  33.1255550 102.6443960  80.3494970
  33.2502970 103.4675130  80.8218780  33.9921110 102.4334690  80.0019120
  20.5973080 104.7375170  80.0212100  21.3335560 104.1890630  80.2920670
  20.9814000 105.6031180  79.8818090  17.4818560 100.8048740  75.8953610
  16.5558340 101.0469880  75.8859020  17.9474990 101.6323000  75.7738360
  19.6031360 103.9221240  89.2097680  20.4044090 104.2433290  89.6233080
  19.0883180 103.5616820  89.9317590  23.7075390 103.9105480  71.8437670
  24.5004000 104.1994310  71.3919460  23.1879740 103.4797650  71.1650150
  28.4395990 100.0301110  89.1573090  27.8334150 100.0532710  88.4168840
  28.1350100  99.2984150  89.6940340  29.8696360 103.7581400  87.7682500
  30.8218110 103.6739420  87.7182740  29.7224580 104.4223110  88.4416290
  32.7605560 103.1375610  73.2674410  32.4747070 102.7240750  72.4528590
  32.5625110 104.0663320  73.1474930  17.3229170  96.4094700  88.1533730
  17.8268190  95.8301980  88.7249960  16.5836590  96.6934930  88.6910100
  24.2252790  99.1308890  71.7080020  24.1203430  98.5161240  72.4341400
  24.0577010  98.6074780  70.9243030  24.3767110  97.8165690  87.6869250
  23.6112780  98.3850690  87.6023920  24.5583070  97.5241900  86.7937480
  27.4655520  98.1928920  72.3122010  26.9165620  98.6398220  72.9564750
  28.0874780  97.6878170  72.8359680  31.5190460  99.5471020  88.2444270
  32.2599930  99.8846780  87.7411730  30.7563140  99.7163080  87.6914040
  19.3552250  94.5524290  89.0483800  19.3957590  94.2538160  89.9569030
  20.2097750  94.9531900  88.8891320  23.1330640  97.1519840  74.2087310
  23.5547060  96.9859710  75.0518700  23.2581480  96.3420070  73.7142450
  21.2958060  93.1316390  87.0158290  20.7654520  92.6407340  86.3881630
  21.9646130  93.5600590  86.4816220  25.6458280  96.1757450  71.4564410
  26.1663940  95.4606470  71.0905560  26.2926680  96.8143320  71.7564920
  30.1936120  97.5985850  86.7799480  30.6077140  97.7530930  87.6289900
  29.2587120  97.7241070  86.9425260  30.6658290  94.9382010  88.7838630
  31.2479060  94.1834330  88.6959110  30.8420060  95.4689450  88.0070110
  21.7830360  90.0978760  87.0955580  21.6887230  89.4799510  86.3706450
  21.2027750  90.8245050  86.8685490  24.9551350  97.5506330  84.7495410
  25.3739460  98.3939060  84.5771650  24.0359980  97.6878370  84.5202190
  27.2915250  95.2822510  86.1333250  27.4111460  94.6863650  86.8728090
  28.1509250  95.3192200  85.7134550  29.6303150  95.8359700  84.7095760
  29.1038370  96.3602320  84.1060900  29.9734490  96.4687090  85.3405490
  22.0289540  93.2253070  71.1545470  21.8278600  92.3620430  71.5158810
  21.8581590  93.1386430  70.2167070  22.8058770 103.8559340  85.8653140
  22.2679860 104.5805400  85.5461840  23.0592730 103.3789680  85.0750480
  24.0584020  91.8243860  87.3909070  24.6483710  91.5159710  88.0786890
  23.2404260  91.3523610  87.5468970  28.8777450  91.4409670  87.6242090
  28.1892970  90.7791210  87.5592080  29.5983470  90.9947940  88.0690550
  29.5077850  88.0361300  73.6832350  29.7880140  87.1929200  74.0391770
  28.7343580  88.2684410  74.1971100  20.8272340  90.3253690  71.1423350
  21.1298240  90.3321120  70.2342500  21.5666930  89.9751550  71.6391010
  25.6620980 105.0910550  86.1239790  25.5879680 105.9945690  86.4312160
  24.7599820 104.7722450  86.0961860  24.0457270  89.2688310  72.1279550
  23.6979270  88.5912300  71.5482000  24.2470040  88.8077820  72.9422940
  26.2106310 104.2569060  73.7466150  27.1057100 104.5954030  73.7684910
  26.2423940 103.5348470  73.1190430  19.8502470  99.6296110  71.9753150
  20.2877340 100.1725780  72.6310730  20.3350200  98.8043060  71.9849490
  17.0648270 102.4185140  79.4273410  17.3951280 101.5506200  79.1952050
  17.4939270 102.6243660  80.2578370  21.6610190 100.7494150  77.0875380
  21.3605730 100.6259120  77.9879290  21.5547680  99.8902740  76.6791110
  17.5538480 103.2855730  82.1655040  17.1169470 103.4656530  82.9979190
  18.1216160 104.0430350  82.0236760  33.1900660 102.7872730  86.4532350
  32.5902650 102.8465290  85.7096270  33.3194560 101.8477710  86.5829200
  34.4302110 100.5290550  71.7902060  33.5995070 100.5967200  72.2609290
  34.6073940 101.4194670  71.4868920  33.8858570  97.2738030  74.2936260
  34.6477480  97.8434680  74.3995950  33.9012940  96.7065230  75.0644570
  17.3862910  95.7975960  78.5243920  16.7311750  95.5287600  77.8803620
  18.2240860  95.6880440  78.0745900  34.8918540  98.1288130  79.1378190
  35.2627370  97.3455450  78.7314160  35.5320470  98.8177230  78.9595490
  31.8752300  99.5124710  84.5508510  31.0612140  99.9421870  84.8134300
  32.2826500 100.1243120  83.9377560  33.9377740  97.5672400  71.4508780
  34.2126580  98.4751280  71.3228000  33.7488480  97.5034930  72.3870770
  30.3353350  90.5917250  72.7462410  30.7538230  90.4048230  71.9059070
  30.0289410  89.7396300  73.0565340  33.8343080  95.5041390  76.4438210
  33.4586680  94.7369320  76.0119500  33.1046200  95.8864090  76.9313140
  18.4238840  96.1828530  83.0647260  18.7911880  96.0955930  83.9443280
  17.8549660  95.4195080  82.9654120  33.2242700  94.6512910  86.0777730
  32.9928790  94.4225660  85.1775680  33.4847250  95.5712460  86.0322620
  17.9754840  93.0937620  86.9705680  17.0810890  93.0604380  87.3099390
  18.5152390  93.2924410  87.7356930  31.6630770  89.8769340  88.8557430
  32.5400950  89.8852740  89.2391430  31.6751610  89.1400180  88.2449780
  16.6000990  93.0074890  74.4669250  15.6965070  93.2705090  74.2920910
  17.0841610  93.2786060  73.6869210  33.1094040  93.7298880  79.7445450
  33.6331520  93.2361530  79.1135620  33.6953460  93.8649240  80.4893020
  33.2883760  93.8138750  83.2665000  32.3386470  93.7802290  83.3809990
  33.4696770  94.7238860  83.0314770  19.1428200  92.0640430  72.3763630
  19.8519900  91.6423650  71.8910910  18.4268140  92.1315660  71.7446980
  18.7902360  88.1179760  71.4166280  19.5130490  88.6588700  71.7347500
  19.0626880  87.8443180  70.5407820  32.5994010  92.9872230  75.6837860
  33.0953130  92.7543100  76.4686740  32.4010080  92.1484070  75.2675500
  18.4794550  87.3685950  81.3188900  19.1270740  86.8183330  80.8784060
  18.8996390  87.6229100  82.1404710  34.0281170  91.6233180  78.2175540
  33.9180450  91.4689220  79.1557810  34.7888760  91.0954120  77.9750950
  32.3746890  87.5627310  84.6758540  33.0119110  88.1761450  85.0417730
  32.5221780  87.5987970  83.7307770  34.9171440  89.4541100  71.4581680
  35.8420750  89.3222280  71.2499970  34.8947230  89.5333920  72.4118130
  34.9909930  90.2251760  74.0838390  34.1961430  90.1596880  74.6131300
  35.1953210  91.1602400  74.0723740  31.9328350 104.2643310  78.0776780
  32.5287420 103.9427880  77.4011200  32.1906500 103.7915130  78.8690050
  18.2326550  87.5241620  84.0614220  17.8841370  87.9805440  84.8272400
  17.9014250  86.6298750  84.1436650  19.8390920 100.6961220  88.2267410
  19.7960550 100.3254130  89.1081870  19.9701930 101.6338790  88.3669230
  23.5396950 102.2520810  83.8277130  23.2988310 102.5195370  82.9407650
  24.4799590 102.4226540  83.8827990  34.8001110 104.2715190  84.6287770
  34.3059390 104.6684060  83.9114900  34.1914400 103.6464400  85.0225050
  18.9047190  87.0517820  87.3364990  19.4530180  86.8705870  86.5731100
  18.9702500  86.2611930  87.8721300  19.6778950 103.6423470  85.3465190
  19.0839270 103.5108170  86.0855230  19.6702790 102.8061610  84.8807290
  32.4840560 104.9138610  81.9074510  32.0243530 105.6654420  81.5332530
  31.8553020 104.1945080  81.8489310  19.3091180 101.0081850  84.2973230
  18.5825240 100.3887140  84.2299180  19.3700330 101.4022460  83.4271310
  22.9136280 103.2226850  81.0822640  23.4301300 102.6114210  80.5570900
  23.5633660 103.7255630  81.5733650  25.6531780 104.1135340  81.9091620
  25.9409590 103.8589640  81.0324630  26.1655000 103.5612700  82.4997190
  31.4229860  88.5548640  80.5337220  31.8637950  88.4993740  79.6858820
  31.1537450  89.4706650  80.6047400  33.2868430  88.1863880  78.5446040
  33.2256830  87.2425100  78.3977060  34.0660460  88.2943970  79.0899500
  17.5921180 104.3256240  77.5069990  17.4243220 103.6926920  78.2051880
  16.7255690 104.5315640  77.1564180  18.2149200  88.1573020  75.0101850
  18.9728560  88.2701900  74.4365880  17.7526370  88.9942220  74.9645280
  24.7563010  90.2712290  78.0004160  23.9437520  89.8969180  77.6600040
  25.2604650  89.5157370  78.3025350  29.2587990  86.9354740  79.2387230
  29.8617360  87.5074950  79.7135750  28.5180980  87.4994180  79.0161130
  32.4022590  87.3376300  74.5127510  32.5973220  88.2359750  74.7794940
  31.6152460  87.1063380  75.0060460  19.1983880 103.0189470  74.9520130
  18.6731500 103.3997500  74.2482090  19.1228460 103.6440240  75.6729840
  20.5874350  88.6837070  73.5503820  21.1167110  87.8966870  73.4211770
  21.2202670  89.3628260  73.7839350  22.7812190  88.4212210  76.6049210
  22.1514930  87.7199520  76.7719340  22.2417330  89.1816340  76.3882370
  25.7204140 105.0351440  89.2759820  26.6471450 104.7995710  89.3195780
  25.7054570 105.8623440  88.7945850  33.9549200 104.5777010  76.2734070
  34.1301390 103.8914750  75.6294990  33.2570770 105.1024060  75.8810740
  22.9067750  87.6996190  89.0401700  22.6252020  88.2029790  88.2762520
  23.2887450  86.9017940  88.6743830  21.7976850 104.9671850  73.8269380
  22.5295670 104.6831130  73.2793270  22.0570520 104.7285130  74.7168760
  20.9591640 101.0836580  73.8315710  20.3300520 101.5521680  74.3801540
  21.0739470 100.2385800  74.2661900  29.5083210  87.1149770  89.6182170
  29.3948660  87.4344380  90.5133690  30.3252950  87.5162280  89.3219450
  32.2881700 104.2621300  89.1000860  33.0807020 103.7670530  88.8926820
  32.5814850 104.9411440  89.7076470  28.4141360  95.1342240  59.9816910
  28.3335410  94.2196850  59.7108620  28.0005780  95.6309310  59.2756620
  26.5459400  96.9121260  61.8626180  25.7701500  96.4321700  62.1524750
  27.1972330  96.2326910  61.6882340  20.5625230  97.2241070  62.7401940
  19.7310110  96.9689780  63.1398450  21.1706210  97.2951840  63.4759860
  30.5666830 101.3181450  60.6425310  30.1048360 100.5468690  60.9712480
  31.3792380 101.3447520  61.1477760  20.5426490 101.2581160  62.9359960
  20.8454530 100.3678900  62.7570180  21.2870080 101.8151380  62.7082210
  18.9717180  92.1842960  56.5244330  18.0833880  92.5258930  56.4224210
  19.2558370  91.9843280  55.6325160  16.9350190  94.7848610  62.4084030
  17.5066300  94.0170810  62.4087670  16.9351730  95.0837370  61.4990640
  26.7930140 103.6039460  60.2629300  26.1741580 104.0596960  59.6923740
  27.6481920 103.7590920  59.8619000  25.9868390  99.5878450  61.8696340
  25.9176670  98.6468390  61.7085470  26.7488250  99.6779860  62.4418910
  18.1775060  90.1932970  64.1952960  17.9977900  89.2958720  64.4755720
  17.7755140  90.7404840  64.8699910  27.0173560  92.3948830  62.0965270
  27.3938380  91.5220710  61.9838940  26.9193070  92.7307530  61.2055710
  21.1478570  90.7674460  57.5582710  21.2545320  91.6678190  57.8651470
  20.2370930  90.7192430  57.2677360  30.7997680  89.8899270  59.0293610
  31.6207300  89.3995840  59.0719090  30.8331760  90.4796930  59.7825450
  18.7961730  92.6893470  62.8035300  19.4771840  92.9531840  63.4222700
  18.4809780  91.8494340  63.1373310  22.9886300  93.7360830  61.8907890
  23.4964520  94.2341800  62.5312910  23.5199540  92.9596030  61.7147250
  35.0897230  91.9066020  65.5937240  34.3849400  92.2947730  65.0752350
  35.3555150  92.6016310  66.1958170  21.2722400  88.3759390  66.1571310
  21.2740840  88.8931780  65.3517210  20.4426710  87.8989570  66.1341240
  27.6593490  98.4878700  57.6561210  27.0410760  98.9528150  57.0923930
  28.1716740  99.1806180  58.0730720  22.5225250  98.0154570  64.3344810
  22.1894630  98.6423490  64.9765880  22.6991930  98.5416450  63.5546480
  31.0359160  91.8299650  61.8021150  30.3314730  92.1184540  62.3824260
  31.3971320  92.6399760  61.4420710  20.9537730  90.0869350  64.1641760
  21.2954540  90.9311400  63.8695630  20.0153540  90.2353090  64.2807100
  21.7344350  99.9835370  66.1493990  22.3518350 100.6586450  65.8678440
  20.8737470 100.3923350  66.0581490  17.0276690  99.1735230  55.0300840
  16.6504670  99.6622330  54.2985740  17.2849760  99.8460510  55.6607370
  32.6521940 101.4474780  64.0648630  31.9685460 102.1173890  64.0565300
  33.1916230 101.6455430  63.2993490  34.1046080  91.2754440  62.1930360
  33.1570990  91.3093420  62.3245790  34.4296070  92.0893390  62.5779720
  24.6365620  87.5751620  60.4886350  24.9440600  87.0198510  59.7721850
  23.7066320  87.7096080  60.3059340  30.1880680 103.2918910  62.7793810
  30.2007840 102.8881200  61.9116070  29.6355900 104.0666200  62.6755240
  31.4826100 100.0135130  57.8683980  31.3722430  99.0709460  57.9933400
  31.4794350 100.3750770  58.7546740  29.5866120  98.1948750  64.1076420
  30.0034910  97.9808860  63.2729880  30.3105940  98.4521540  64.6785040
  27.0246380  95.6400450  57.2246470  26.0975660  95.5737830  57.4534940
  27.1771200  96.5780580  57.1101710  27.0115460  91.9117450  54.2213630
  26.0719130  92.0731410  54.3066090  27.3298720  92.6303130  53.6749620
  33.5328220  96.5935970  64.1992660  32.7046850  96.6629060  63.7242790
  34.1278700  97.1790280  63.7308490  31.0543670  97.2020750  57.7281720
  30.4356090  96.8640300  57.0808020  31.0368120  96.5580510  58.4360910
  30.4970230  93.3805290  65.1447530  30.0841410  94.2059000  65.3987520
  29.7646180  92.7950330  64.9523890  22.6303020  96.1665190  60.0066200
  22.2260020  95.4542440  59.5112100  22.7166140  95.8218430  60.8954240
  23.0984720  99.8532750  62.1705410  22.8013010  99.2478220  61.4913190
  24.0484540  99.8910060  62.0594770  21.3431640  92.9408400  63.7865240
  21.8946230  93.0503740  63.0118490  21.8575150  93.3146000  64.5020470
  31.1870330 103.4264620  65.8328510  30.7100890 104.2336810  65.6401120
  30.5032120 102.7742950  65.9854720  22.1903150  99.5914440  68.8213210
  21.2931680  99.8154410  69.0686610  22.2156020  99.7149380  67.8724610
  29.2308370  96.4407560  54.7354470  29.6701650  95.6029990  54.5892290
  29.9436790  97.0736960  54.8218610  21.0174370  96.4627760  67.3970580
  20.8782140  97.3350560  67.7657980  20.1355730  96.1200570  67.2518520
  27.3403750 101.3803630  58.7035710  27.7799660 102.1227960  58.2891100
  27.2790640 101.6230200  59.6274670  22.8154720 102.4049460  69.6055730
  22.7870150 102.8092410  68.7384160  22.6519690 101.4759820  69.4427330
  32.8125510  87.6950370  53.0495510  32.4998170  87.7877200  53.9494580
  33.5737980  88.2731400  52.9992940  19.3307650  95.0610170  57.5072850
  19.2105250  95.7872260  56.8954120  19.0208540  94.2913080  57.0300760
  34.7669540 103.1876560  70.9019900  35.2429260 103.6659450  71.5808980
  35.3876700 103.1194050  70.1765400  16.9693020  98.2325310  63.3141490
  17.0473440  98.3674080  62.3697210  17.5834700  97.5241200  63.5069610
  18.2140650  99.9325500  59.7247670  17.8068730 100.0740090  58.8701270
  19.1053660  99.6485660  59.5218880  34.1702790 100.3789410  68.0619910
  34.2965850 100.1401290  67.1437090  34.2124170  99.5473950  68.5341990
  28.0319530 104.0817410  66.6314720  28.5464200 103.9925420  67.4337150
  27.1888610 104.4277110  66.9242630  30.0073930 104.3672750  56.0598720
  29.8475070 104.0775690  56.9580550  29.8420640 103.5912880  55.5243950
  22.4862310 104.1471280  57.8370340  22.3104790 103.2306820  57.6238140
  21.6318050 104.5058570  58.0768140  29.7100060 101.8760310  54.6196720
  29.0165220 101.8737600  53.9599000  30.4522920 101.4519630  54.1890890
  29.2749990 103.5023020  58.6945210  29.7306940 102.7212400  59.0083830
  29.6142510 104.2129840  59.2386390  34.0226800  92.4321870  69.0269650
  33.4071070  92.9401540  68.4985110  33.7023220  91.5320200  68.9695590
  17.0252540  99.2739480  65.8535950  17.1883580  98.8044840  65.0355320
  17.4904990  98.7663040  66.5184790  21.7971310  88.4045240  60.8896520
  21.3539460  89.1854780  60.5581040  22.3556300  88.7275130  61.5967460
  26.0841120  91.2713760  66.4931840  25.6220490  91.4796780  67.3051780
  25.6819230  90.4573110  66.1902510  31.0845630  92.4922710  67.6228500
  30.2339220  92.1928460  67.9437570  30.9247420  92.7364720  66.7112320
  28.1795340  93.9924460  69.7227290  28.5048750  93.1588210  69.3829520
  28.9675670  94.5152980  69.8705620  24.9130130  88.0255940  55.7702350
  24.2884310  88.0215810  56.4955660  24.8260250  87.1586900  55.3738320
  23.8347210  88.9492570  62.7486120  24.1319540  89.8555400  62.6678140
  24.3832770  88.4611350  62.1345690  21.5885530  93.5278810  58.6177770
  21.3626450  93.3115980  59.5224390  20.8078060  93.9607270  58.2723740
  28.8183290  93.5342180  57.2168420  28.2192180  94.2577980  57.0332040
  29.3662900  93.4718960  56.4344870  24.0284740  94.4264390  69.2838040
  23.9328340  93.4859120  69.1338440  24.8716720  94.6479460  68.8886110
  27.4248160  92.1705720  59.2471700  27.8177730  92.4877920  58.4340390
  27.7865010  91.2917600  59.3616220  19.1595280  90.8378060  67.4371820
  18.7658670  91.6853270  67.6444600  18.4713680  90.2004430  67.6280460
  25.7340330  90.9213030  70.5068560  25.0438650  90.7285230  71.1414650
  26.4772630  91.2047670  71.0392860  16.4612330  88.7606520  61.4701900
  16.1725380  89.3309380  62.1826880  17.2058090  88.2810970  61.8333130
  16.6482560  92.7026640  52.6804620  16.5657230  93.6457400  52.8219610
  16.2965620  92.5601550  51.8016970  28.0103300  94.7611470  63.3422480
  27.2784420  95.2698280  63.6912580  27.6127640  93.9441450  63.0411260
  24.4480690  91.4365670  61.7474970  24.4516750  90.9955620  60.8979510
  25.3431810  91.7583000  61.8546790  20.2983070  91.3192160  60.7069180
  19.9583120  91.7967390  61.4636230  19.5360390  90.8657280  60.3470280
  24.5100840  92.4377750  54.7381730  24.6313660  92.3964230  55.6867550
  24.1249350  93.3001900  54.5828460  28.4729210  90.2145150  62.7545420
  28.4901950  90.6653800  63.5987270  28.2244790  89.3150790  62.9678860
  23.5222340  94.7478890  54.1365030  22.9539240  94.2997140  53.5100940
  24.2311340  95.1071670  53.6030180  31.8999960  87.6277330  68.5931800
  32.2245730  86.8966990  69.1189780  31.9356470  87.3090970  67.6912790
  18.5991520  98.6490910  68.0131760  18.2146310  98.0084580  68.6114720
  18.9103710  99.3527030  68.5826490  24.7488660  95.4967450  63.4940380
  25.1158790  95.0226020  64.2401720  24.5593720  96.3709020  63.8348720
  17.6129150  90.2411140  59.6233850  17.3276070  89.8766810  60.4612470
  17.5508010  89.5091600  59.0096990  22.5388030  94.5376090  65.8124590
  22.2345100  95.4168070  66.0374950  23.4934490  94.5975880  65.8482030
  21.0669820  98.7437080  56.4091440  20.2932080  98.2034700  56.2490160
  21.7964450  98.2243690  56.0709200  31.8257800  97.7402440  62.2017830
  32.5456920  98.2357730  61.8113940  31.6239620  97.0620330  61.5571700
  27.2867740  89.1340400  56.3447220  26.4732350  88.6353570  56.2692530
  27.0929690  89.9738650  55.9283570  27.2076600  97.8111500  68.0886830
  27.1413910  96.8907170  67.8344420  26.5781740  97.9086940  68.8031470
  30.0016130  93.5060050  54.6409380  30.8895750  93.8177280  54.4660720
  29.9721220  92.6332300  54.2489960  21.1107220  98.4117460  60.0470250
  21.6285890  97.6085720  59.9927140  20.6591240  98.3496600  60.8887080
  25.9976720  99.6783740  55.3197550  26.3392420 100.4225970  54.8240870
  25.1689430  99.9914860  55.6822380  18.5951760  95.3778830  66.9595950
  18.2366700  96.0432680  67.5469290  18.3006320  94.5462380  67.3308570
  21.7964880  95.8363070  69.8435500  21.4965020  95.9820250  68.9463320
  22.5676120  95.2768360  69.7508890  27.1393330 100.6332070  67.8390630
  27.1537870  99.7013030  67.6209540  26.4318430 100.7191830  68.4780400
  32.2730400  94.8171890  54.1089240  32.1894120  95.2486110  53.2585680
  32.9924590  95.2770240  54.5416060  33.3504540  97.2739410  67.1859210
  32.6252730  97.8668190  66.9888600  33.8780000  97.2662950  66.3872580
  33.3017650 101.6714150  56.8371370  32.6593810 101.0169770  57.1115090
  32.9148310 102.0769240  56.0612040  28.8804130  98.9999580  60.6843060
  29.2327950  98.4027710  60.0244430  27.9966460  98.6743810  60.8551310
  24.9667410  99.7597270  58.0913470  25.6538540 100.3066480  58.4721060
  24.1799830 100.3038000  58.1263080  17.1059810  95.3770090  53.5830550
  17.9754660  95.6594890  53.8666470  16.6150130  96.1905960  53.4679360
  24.2694620  96.7643300  57.7038830  24.7257400  97.5748550  57.9299020
  23.9182830  96.4466440  58.5357320  26.5727230 102.2749640  64.9331130
  27.2169450 102.4809020  65.6104550  26.9356670 101.5138040  64.4801980
  20.1706400  87.1080950  58.1761350  20.0421030  87.0998850  59.1246270
  19.3468420  87.4464040  57.8252360  27.8459310 100.2781990  63.6508580
  28.4881540  99.5775150  63.7640750  28.3708660 101.0580430  63.4705470
  31.6915030 100.5630610  53.3747720  31.4652610  99.8461050  53.9672360
  31.3011230 100.3143050  52.5369470  29.6196930 101.0776890  66.8544640
  29.9553170 101.6643580  67.5322560  28.6997270 100.9469600  67.0842430
  17.4731060 104.5897470  54.1492180  17.8328700 105.1886810  53.4949450
  17.3323400 105.1357360  54.9227210  17.1700330  88.8672070  67.6368050
  16.4558850  89.0668990  68.2420660  17.5895370  88.0911640  68.0082850
  31.2731280  98.4802550  55.0361880  30.9852980  98.9415240  55.8239760
  32.0683450  98.0200320  55.3046100  17.4572920 102.8552330  68.6234580
  17.5664040 101.9147070  68.4829970  16.8053480 103.1207080  67.9748310
  25.4485510 101.1268220  70.0232700  25.1282380 100.4077460  70.5678390
  24.7743870 101.8023290  70.0968760  23.4899680 101.9728670  54.9665850
  23.4809780 102.7058360  54.3510360  22.5698040 101.7260250  55.0592810
  19.0906320  97.1943560  55.7112610  18.4834270  97.9342460  55.7207910
  19.5655670  97.2842920  54.8850810  28.6639110  91.3594380  65.3869500
  29.0319930  90.5389590  65.7149070  27.8037310  91.4196270  65.8025150
  32.0301140  90.3151320  56.1957060  31.4014300  90.4196990  55.4815290
  31.5353060  90.5348100  56.9850940  26.4759280 102.0356910  53.6291040
  26.5771260 101.8320900  52.6993020  25.5761020 101.7815190  53.8338820
  23.9985170  92.5937270  57.6114940  23.2901320  93.0623610  58.0528550
  24.2829650  91.9359280  58.2460130  25.6241100  94.0133970  65.6107470
  26.1226350  94.4879790  66.2759320  25.7664050  93.0897490  65.8177500
  28.0300600  89.3187930  59.0510730  27.9068380  89.3374060  58.1020240
  28.9785160  89.3666870  59.1709130  25.1177390 104.5543230  58.3238710
  25.3718890 104.5164620  57.4018080  24.1689870 104.4276560  58.3166960
  22.2020190  90.9022350  54.9865650  23.0510720  91.3392500  54.9205840
  21.8351460  91.2142610  55.8137710  32.8307960  90.2301930  66.4535860
  32.3281560  90.9707330  66.7929670  33.6464620  90.6185930  66.1372650
  31.1229970  95.4735110  59.8997220  30.1820110  95.4885340  60.0744910
  31.4374040  94.6871070  60.3457520  21.1011610  97.1554710  53.4601180
  21.8674880  97.0436070  54.0226610  21.1786300  96.4592680  52.8077950
  19.7958370  94.5879780  54.1434070  19.8761960  93.6407290  54.2551470
  20.6878120  94.9186660  54.2494730  33.1255550 102.6443960  61.5751480
  33.2502970 103.4675130  62.0475290  33.9921110 102.4334690  61.2275630
  20.5973080 104.7375170  61.2468610  21.3335560 104.1890630  61.5177180
  20.9814000 105.6031180  61.1074600  17.4818560 100.8048740  57.1210120
  16.5558340 101.0469880  57.1115530  17.9474990 101.6323000  56.9994870
  19.6031360 103.9221240  70.4354190  20.4044090 104.2433290  70.8489590
  19.0883180 103.5616820  71.1574100  23.7075390 103.9105480  53.0694180
  24.5004000 104.1994310  52.6175970  23.1879740 103.4797650  52.3906660
  28.4395990 100.0301110  70.3829600  27.8334150 100.0532710  69.6425350
  28.1350100  99.2984150  70.9196850  29.8696360 103.7581400  68.9939010
  30.8218110 103.6739420  68.9439250  29.7224580 104.4223110  69.6672800
  32.7605560 103.1375610  54.4930920  32.4747070 102.7240750  53.6785100
  32.5625110 104.0663320  54.3731440  17.3229170  96.4094700  69.3790240
  17.8268190  95.8301980  69.9506470  16.5836590  96.6934930  69.9166610
  24.2252790  99.1308890  52.9336530  24.1203430  98.5161240  53.6597910
  24.0577010  98.6074780  52.1499540  24.3767110  97.8165690  68.9125760
  23.6112780  98.3850690  68.8280430  24.5583070  97.5241900  68.0193990
  27.4655520  98.1928920  53.5378520  26.9165620  98.6398220  54.1821260
  28.0874780  97.6878170  54.0616190  31.5190460  99.5471020  69.4700780
  32.2599930  99.8846780  68.9668240  30.7563140  99.7163080  68.9170550
  19.3552250  94.5524290  70.2740310  19.3957590  94.2538160  71.1825540
  20.2097750  94.9531900  70.1147830  23.1330640  97.1519840  55.4343820
  23.5547060  96.9859710  56.2775210  23.2581480  96.3420070  54.9398960
  21.2958060  93.1316390  68.2414800  20.7654520  92.6407340  67.6138140
  21.9646130  93.5600590  67.7072730  25.6458280  96.1757450  52.6820920
  26.1663940  95.4606470  52.3162070  26.2926680  96.8143320  52.9821430
  30.1936120  97.5985850  68.0055990  30.6077140  97.7530930  68.8546410
  29.2587120  97.7241070  68.1681770  30.6658290  94.9382010  70.0095140
  31.2479060  94.1834330  69.9215620  30.8420060  95.4689450  69.2326620
  21.7830360  90.0978760  68.3212090  21.6887230  89.4799510  67.5962960
  21.2027750  90.8245050  68.0942000  24.5491800  88.6552000  65.3539480
  24.1009100  88.6776260  64.5085030  23.9157000  88.2571020  65.9509780
  24.9551350  97.5506330  65.9751920  25.3739460  98.3939060  65.8028160
  24.0359980  97.6878370  65.7458700  27.2915250  95.2822510  67.3589760
  27.4111460  94.6863650  68.0984600  28.1509250  95.3192200  66.9391060
  29.6303150  95.8359700  65.9352270  29.1038370  96.3602320  65.3317410
  29.9734490  96.4687090  66.5662000  22.0289540  93.2253070  52.3801980
  21.8278600  92.3620430  52.7415320  21.8581590  93.1386430  51.4423580
  22.8058770 103.8559340  67.0909650  22.2679860 104.5805400  66.7718350
  23.0592730 103.3789680  66.3006990  24.0584020  91.8243860  68.6165580
  24.6483710  91.5159710  69.3043400  23.2404260  91.3523610  68.7725480
  28.8777450  91.4409670  68.8498600  28.1892970  90.7791210  68.7848590
  29.5983470  90.9947940  69.2947060  29.5077850  88.0361300  54.9088860
  29.7880140  87.1929200  55.2648280  28.7343580  88.2684410  55.4227610
  20.8272340  90.3253690  52.3679860  21.1298240  90.3321120  51.4599010
  21.5666930  89.9751550  52.8647520  25.6620980 105.0910550  67.3496300
  25.5879680 105.9945690  67.6568670  24.7599820 104.7722450  67.3218370
  24.0457270  89.2688310  53.3536060  23.6979270  88.5912300  52.7738510
  24.2470040  88.8077820  54.1679450  26.2106310 104.2569060  54.9722660
  27.1057100 104.5954030  54.9941420  26.2423940 103.5348470  54.3446940
  19.8502470  99.6296110  53.2009660  20.2877340 100.1725780  53.8567240
  20.3350200  98.8043060  53.2106000  17.0648270 102.4185140  60.6529920
  17.3951280 101.5506200  60.4208560  17.4939270 102.6243660  61.4834880
  21.6610190 100.7494150  58.3131890  21.3605730 100.6259120  59.2135800
  21.5547680  99.8902740  57.9047620  17.5538480 103.2855730  63.3911550
  17.1169470 103.4656530  64.2235700  18.1216160 104.0430350  63.2493270
  33.1900660 102.7872730  67.6788860  32.5902650 102.8465290  66.9352780
  33.3194560 101.8477710  67.8085710  34.4302110 100.5290550  53.0158570
  33.5995070 100.5967200  53.4865800  34.6073940 101.4194670  52.7125430
  33.8858570  97.2738030  55.5192770  34.6477480  97.8434680  55.6252460
  33.9012940  96.7065230  56.2901080  17.3862910  95.7975960  59.7500430
  16.7311750  95.5287600  59.1060130  18.2240860  95.6880440  59.3002410
  34.8918540  98.1288130  60.3634700  35.2627370  97.3455450  59.9570670
  35.5320470  98.8177230  60.1852000  31.8752300  99.5124710  65.7765020
  31.0612140  99.9421870  66.0390810  32.2826500 100.1243120  65.1634070
  33.9377740  97.5672400  52.6765290  34.2126580  98.4751280  52.5484510
  33.7488480  97.5034930  53.6127280  30.3353350  90.5917250  53.9718920
  30.7538230  90.4048230  53.1315580  30.0289410  89.7396300  54.2821850
  33.8343080  95.5041390  57.6694720  33.4586680  94.7369320  57.2376010
  33.1046200  95.8864090  58.1569650  18.4238840  96.1828530  64.2903770
  18.7911880  96.0955930  65.1699790  17.8549660  95.4195080  64.1910630
  33.2242700  94.6512910  67.3034240  32.9928790  94.4225660  66.4032190
  33.4847250  95.5712460  67.2579130  17.9754840  93.0937620  68.1962190
  17.0810890  93.0604380  68.5355900  18.5152390  93.2924410  68.9613440
  31.6630770  89.8769340  70.0813940  32.5400950  89.8852740  70.4647940
  31.6751610  89.1400180  69.4706290  16.6000990  93.0074890  55.6925760
  15.6965070  93.2705090  55.5177420  17.0841610  93.2786060  54.9125720
  33.1094040  93.7298880  60.9701960  33.6331520  93.2361530  60.3392130
  33.6953460  93.8649240  61.7149530  33.2883760  93.8138750  64.4921510
  32.3386470  93.7802290  64.6066500  33.4696770  94.7238860  64.2571280
  19.1428200  92.0640430  53.6020140  19.8519900  91.6423650  53.1167420
  18.4268140  92.1315660  52.9703490  32.5994010  92.9872230  56.9094370
  33.0953130  92.7543100  57.6943250  32.4010080  92.1484070  56.4932010
  18.4794550  87.3685950  62.5445410  19.1270740  86.8183330  62.1040570
  18.8996390  87.6229100  63.3661220  34.0281170  91.6233180  59.4432050
  33.9180450  91.4689220  60.3814320  34.7888760  91.0954120  59.2007460
  32.3746890  87.5627310  65.9015050  33.0119110  88.1761450  66.2674240
  32.5221780  87.5987970  64.9564280  34.9171440  89.4541100  52.6838190
  35.8420750  89.3222280  52.4756480  34.8947230  89.5333920  53.6374640
  34.9909930  90.2251760  55.3094900  34.1961430  90.1596880  55.8387810
  35.1953210  91.1602400  55.2980250  31.9328350 104.2643310  59.3033290
  32.5287420 103.9427880  58.6267710  32.1906500 103.7915130  60.0946560
  18.2326550  87.5241620  65.2870730  17.8841370  87.9805440  66.0528910
  17.9014250  86.6298750  65.3693160  19.8390920 100.6961220  69.4523920
  19.7960550 100.3254130  70.3338380  19.9701930 101.6338790  69.5925740
  23.5396950 102.2520810  65.0533640  23.2988310 102.5195370  64.1664160
  24.4799590 102.4226540  65.1084500  25.7451370  88.7153500  68.8090150
  25.6840260  89.3075330  69.5585560  26.6851750  88.6079460  68.6640410
  28.3825930  88.3723560  68.4482440  28.9966340  88.6902850  67.7863520
  28.9275490  87.8872150  69.0678300  34.8001110 104.2715190  65.8544280
  34.3059390 104.6684060  65.1371410  34.1914400 103.6464400  66.2481560
  18.9047190  87.0517820  68.5621500  19.4530180  86.8705870  67.7987610
  18.9702500  86.2611930  69.0977810  19.6778950 103.6423470  66.5721700
  19.0839270 103.5108170  67.3111740  19.6702790 102.8061610  66.1063800
  29.1233970  86.9355700  64.7751730  28.2493810  87.2690810  64.5724660
  29.0144720  86.4628880  65.6003600  30.0305950  89.1426570  66.1593450
  29.7019310  88.3278330  65.7795180  30.9788250  89.0996380  66.0359140
  32.4840560 104.9138610  63.1331020  32.0243530 105.6654420  62.7589040
  31.8553020 104.1945080  63.0745820  19.3091180 101.0081850  65.5229740
  18.5825240 100.3887140  65.4555690  19.3700330 101.4022460  64.6527820
  22.9136280 103.2226850  62.3079150  23.4301300 102.6114210  61.7827410
  23.5633660 103.7255630  62.7990160  25.6531780 104.1135340  63.1348130
  25.9409590 103.8589640  62.2581140  26.1655000 103.5612700  63.7253700
  26.8708790  87.8525540  63.7144640  26.0880580  88.3271040  63.9941400
  26.5771720  86.9480370  63.6057820  31.4229860  88.5548640  61.7593730
  31.8637950  88.4993740  60.9115330  31.1537450  89.4706650  61.8303910
  33.2868430  88.1863880  59.7702550  33.2256830  87.2425100  59.6233570
  34.0660460  88.2943970  60.3156010  17.5921180 104.3256240  58.7326500
  17.4243220 103.6926920  59.4308390  16.7255690 104.5315640  58.3820690
  18.2149200  88.1573020  56.2358360  18.9728560  88.2701900  55.6622390
  17.7526370  88.9942220  56.1901790  24.7563010  90.2712290  59.2260670
  23.9437520  89.8969180  58.8856550  25.2604650  89.5157370  59.5281860
  29.2587990  86.9354740  60.4643740  29.8617360  87.5074950  60.9392260
  28.5180980  87.4994180  60.2417640  32.4022590  87.3376300  55.7384020
  32.5973220  88.2359750  56.0051450  31.6152460  87.1063380  56.2316970
  19.1983880 103.0189470  56.1776640  18.6731500 103.3997500  55.4738600
  19.1228460 103.6440240  56.8986350  20.5874350  88.6837070  54.7760330
  21.1167110  87.8966870  54.6468280  21.2202670  89.3628260  55.0095860
  22.7812190  88.4212210  57.8305720  22.1514930  87.7199520  57.9975850
  22.2417330  89.1816340  57.6138880  25.7204140 105.0351440  70.5016330
  26.6471450 104.7995710  70.5452290  25.7054570 105.8623440  70.0202360
  33.9549200 104.5777010  57.4990580  34.1301390 103.8914750  56.8551500
  33.2570770 105.1024060  57.1067250  22.9067750  87.6996190  70.2658210
  22.6252020  88.2029790  69.5019030  23.2887450  86.9017940  69.9000340
  21.7976850 104.9671850  55.0525890  22.5295670 104.6831130  54.5049780
  22.0570520 104.7285130  55.9425270  20.9591640 101.0836580  55.0572220
  20.3300520 101.5521680  55.6058050  21.0739470 100.2385800  55.4918410
  29.5083210  87.1149770  70.8438680  29.3948660  87.4344380  71.7390200
  30.3252950  87.5162280  70.5475960  32.2881700 104.2621300  70.3257370
  33.0807020 103.7670530  70.1183330  32.5814850 104.9411440  70.9332980
  28.4141360  95.1342240  41.2073420  28.3335410  94.2196850  40.9365130
  28.0005780  95.6309310  40.5013130  26.5459400  96.9121260  43.0882690
  25.7701500  96.4321700  43.3781260  27.1972330  96.2326910  42.9138850
  20.5625230  97.2241070  43.9658450  19.7310110  96.9689780  44.3654960
  21.1706210  97.2951840  44.7016370  30.5666830 101.3181450  41.8681820
  30.1048360 100.5468690  42.1968990  31.3792380 101.3447520  42.3734270
  20.5426490 101.2581160  44.1616470  20.8454530 100.3678900  43.9826690
  21.2870080 101.8151380  43.9338720  18.9717180  92.1842960  37.7500840
  18.0833880  92.5258930  37.6480720  19.2558370  91.9843280  36.8581670
  16.9350190  94.7848610  43.6340540  17.5066300  94.0170810  43.6344180
  16.9351730  95.0837370  42.7247150  26.7930140 103.6039460  41.4885810
  26.1741580 104.0596960  40.9180250  27.6481920 103.7590920  41.0875510
  25.9868390  99.5878450  43.0952850  25.9176670  98.6468390  42.9341980
  26.7488250  99.6779860  43.6675420  18.1775060  90.1932970  45.4209470
  17.9977900  89.2958720  45.7012230  17.7755140  90.7404840  46.0956420
  27.0173560  92.3948830  43.3221780  27.3938380  91.5220710  43.2095450
  26.9193070  92.7307530  42.4312220  21.1478570  90.7674460  38.7839220
  21.2545320  91.6678190  39.0907980  20.2370930  90.7192430  38.4933870
  30.7997680  89.8899270  40.2550120  31.6207300  89.3995840  40.2975600
  30.8331760  90.4796930  41.0081960  18.7961730  92.6893470  44.0291810
  19.4771840  92.9531840  44.6479210  18.4809780  91.8494340  44.3629820
  22.9886300  93.7360830  43.1164400  23.4964520  94.2341800  43.7569420
  23.5199540  92.9596030  42.9403760  35.0897230  91.9066020  46.8193750
  34.3849400  92.2947730  46.3008860  35.3555150  92.6016310  47.4214680
  27.6593490  98.4878700  38.8817720  27.0410760  98.9528150  38.3180440
  28.1716740  99.1806180  39.2987230  22.5225250  98.0154570  45.5601320
  22.1894630  98.6423490  46.2022390  22.6991930  98.5416450  44.7802990
  31.0359160  91.8299650  43.0277660  30.3314730  92.1184540  43.6080770
  31.3971320  92.6399760  42.6677220  20.9537730  90.0869350  45.3898270
  21.2954540  90.9311400  45.0952140  20.0153540  90.2353090  45.5063610
  21.7344350  99.9835370  47.3750500  22.3518350 100.6586450  47.0934950
  20.8737470 100.3923350  47.2838000  17.0276690  99.1735230  36.2557350
  16.6504670  99.6622330  35.5242250  17.2849760  99.8460510  36.8863880
  32.6521940 101.4474780  45.2905140  31.9685460 102.1173890  45.2821810
  33.1916230 101.6455430  44.5250000  34.1046080  91.2754440  43.4186870
  33.1570990  91.3093420  43.5502300  34.4296070  92.0893390  43.8036230
  24.6365620  87.5751620  41.7142860  24.9440600  87.0198510  40.9978360
  23.7066320  87.7096080  41.5315850  30.1880680 103.2918910  44.0050320
  30.2007840 102.8881200  43.1372580  29.6355900 104.0666200  43.9011750
  31.4826100 100.0135130  39.0940490  31.3722430  99.0709460  39.2189910
  31.4794350 100.3750770  39.9803250  29.5866120  98.1948750  45.3332930
  30.0034910  97.9808860  44.4986390  30.3105940  98.4521540  45.9041550
  27.0246380  95.6400450  38.4502980  26.0975660  95.5737830  38.6791450
  27.1771200  96.5780580  38.3358220  27.0115460  91.9117450  35.4470140
  26.0719130  92.0731410  35.5322600  27.3298720  92.6303130  34.9006130
  33.5328220  96.5935970  45.4249170  32.7046850  96.6629060  44.9499300
  34.1278700  97.1790280  44.9565000  31.0543670  97.2020750  38.9538230
  30.4356090  96.8640300  38.3064530  31.0368120  96.5580510  39.6617420
  30.4970230  93.3805290  46.3704040  30.0841410  94.2059000  46.6244030
  29.7646180  92.7950330  46.1780400  22.6303020  96.1665190  41.2322710
  22.2260020  95.4542440  40.7368610  22.7166140  95.8218430  42.1210750
  23.0984720  99.8532750  43.3961920  22.8013010  99.2478220  42.7169700
  24.0484540  99.8910060  43.2851280  21.3431640  92.9408400  45.0121750
  21.8946230  93.0503740  44.2375000  21.8575150  93.3146000  45.7276980
  31.1870330 103.4264620  47.0585020  30.7100890 104.2336810  46.8657630
  30.5032120 102.7742950  47.2111230  22.1903150  99.5914440  50.0469720
  21.2931680  99.8154410  50.2943120  22.2156020  99.7149380  49.0981120
  29.2308370  96.4407560  35.9610980  29.6701650  95.6029990  35.8148800
  29.9436790  97.0736960  36.0475120  21.0174370  96.4627760  48.6227090
  20.8782140  97.3350560  48.9914490  20.1355730  96.1200570  48.4775030
  27.3403750 101.3803630  39.9292220  27.7799660 102.1227960  39.5147610
  27.2790640 101.6230200  40.8531180  22.8154720 102.4049460  50.8312240
  22.7870150 102.8092410  49.9640670  22.6519690 101.4759820  50.6683840
  32.8125510  87.6950370  34.2752020  32.4998170  87.7877200  35.1751090
  33.5737980  88.2731400  34.2249450  19.3307650  95.0610170  38.7329360
  19.2105250  95.7872260  38.1210630  19.0208540  94.2913080  38.2557270
  34.7669540 103.1876560  52.1276410  35.2429260 103.6659450  52.8065490
  35.3876700 103.1194050  51.4021910  16.9693020  98.2325310  44.5398000
  17.0473440  98.3674080  43.5953720  17.5834700  97.5241200  44.7326120
  18.2140650  99.9325500  40.9504180  17.8068730 100.0740090  40.0957780
  19.1053660  99.6485660  40.7475390  34.1702790 100.3789410  49.2876420
  34.2965850 100.1401290  48.3693600  34.2124170  99.5473950  49.7598500
  28.0319530 104.0817410  47.8571230  28.5464200 103.9925420  48.6593660
  27.1888610 104.4277110  48.1499140  30.0073930 104.3672750  37.2855230
  29.8475070 104.0775690  38.1837060  29.8420640 103.5912880  36.7500460
  22.4862310 104.1471280  39.0626850  22.3104790 103.2306820  38.8494650
  21.6318050 104.5058570  39.3024650  29.7100060 101.8760310  35.8453230
  29.0165220 101.8737600  35.1855510  30.4522920 101.4519630  35.4147400
  29.2749990 103.5023020  39.9201720  29.7306940 102.7212400  40.2340340
  29.6142510 104.2129840  40.4642900  34.0226800  92.4321870  50.2526160
  33.4071070  92.9401540  49.7241620  33.7023220  91.5320200  50.1952100
  17.0252540  99.2739480  47.0792460  17.1883580  98.8044840  46.2611830
  17.4904990  98.7663040  47.7441300  21.7971310  88.4045240  42.1153030
  21.3539460  89.1854780  41.7837550  22.3556300  88.7275130  42.8223970
  26.0841120  91.2713760  47.7188350  25.6220490  91.4796780  48.5308290
  25.6819230  90.4573110  47.4159020  31.0845630  92.4922710  48.8485010
  30.2339220  92.1928460  49.1694080  30.9247420  92.7364720  47.9368830
  28.1795340  93.9924460  50.9483800  28.5048750  93.1588210  50.6086030
  28.9675670  94.5152980  51.0962130  24.9130130  88.0255940  36.9958860
  24.2884310  88.0215810  37.7212170  24.8260250  87.1586900  36.5994830
  23.8347210  88.9492570  43.9742630  24.1319540  89.8555400  43.8934650
  24.3832770  88.4611350  43.3602200  21.5885530  93.5278810  39.8434280
  21.3626450  93.3115980  40.7480900  20.8078060  93.9607270  39.4980250
  28.8183290  93.5342180  38.4424930  28.2192180  94.2577980  38.2588550
  29.3662900  93.4718960  37.6601380  24.0284740  94.4264390  50.5094550
  23.9328340  93.4859120  50.3594950  24.8716720  94.6479460  50.1142620
  27.4248160  92.1705720  40.4728210  27.8177730  92.4877920  39.6596900
  27.7865010  91.2917600  40.5872730  25.7340330  90.9213030  51.7325070
  25.0438650  90.7285230  52.3671160  26.4772630  91.2047670  52.2649370
  16.4612330  88.7606520  42.6958410  16.1725380  89.3309380  43.4083390
  17.2058090  88.2810970  43.0589640  16.6482560  92.7026640  33.9061130
  16.5657230  93.6457400  34.0476120  16.2965620  92.5601550  33.0273480
  28.0103300  94.7611470  44.5678990  27.2784420  95.2698280  44.9169090
  27.6127640  93.9441450  44.2667770  24.4480690  91.4365670  42.9731480
  24.4516750  90.9955620  42.1236020  25.3431810  91.7583000  43.0803300
  20.2983070  91.3192160  41.9325690  19.9583120  91.7967390  42.6892740
  19.5360390  90.8657280  41.5726790  24.5100840  92.4377750  35.9638240
  24.6313660  92.3964230  36.9124060  24.1249350  93.3001900  35.8084970
  28.4729210  90.2145150  43.9801930  28.4901950  90.6653800  44.8243780
  28.2244790  89.3150790  44.1935370  23.5222340  94.7478890  35.3621540
  22.9539240  94.2997140  34.7357450  24.2311340  95.1071670  34.8286690
  31.8999960  87.6277330  49.8188310  32.2245730  86.8966990  50.3446290
  31.9356470  87.3090970  48.9169300  18.5991520  98.6490910  49.2388270
  18.2146310  98.0084580  49.8371230  18.9103710  99.3527030  49.8083000
  24.7488660  95.4967450  44.7196890  25.1158790  95.0226020  45.4658230
  24.5593720  96.3709020  45.0605230  17.6129150  90.2411140  40.8490360
  17.3276070  89.8766810  41.6868980  17.5508010  89.5091600  40.2353500
  22.5388030  94.5376090  47.0381100  22.2345100  95.4168070  47.2631460
  23.4934490  94.5975880  47.0738540  21.0669820  98.7437080  37.6347950
  20.2932080  98.2034700  37.4746670  21.7964450  98.2243690  37.2965710
  31.8257800  97.7402440  43.4274340  32.5456920  98.2357730  43.0370450
  31.6239620  97.0620330  42.7828210  27.2867740  89.1340400  37.5703730
  26.4732350  88.6353570  37.4949040  27.0929690  89.9738650  37.1540080
  27.2076600  97.8111500  49.3143340  27.1413910  96.8907170  49.0600930
  26.5781740  97.9086940  50.0287980  30.0016130  93.5060050  35.8665890
  30.8895750  93.8177280  35.6917230  29.9721220  92.6332300  35.4746470
  21.1107220  98.4117460  41.2726760  21.6285890  97.6085720  41.2183650
  20.6591240  98.3496600  42.1143590  25.9976720  99.6783740  36.5454060
  26.3392420 100.4225970  36.0497380  25.1689430  99.9914860  36.9078890
  18.5951760  95.3778830  48.1852460  18.2366700  96.0432680  48.7725800
  18.3006320  94.5462380  48.5565080  21.7964880  95.8363070  51.0692010
  21.4965020  95.9820250  50.1719830  22.5676120  95.2768360  50.9765400
  27.1393330 100.6332070  49.0647140  27.1537870  99.7013030  48.8466050
  26.4318430 100.7191830  49.7036910  32.2730400  94.8171890  35.3345750
  32.1894120  95.2486110  34.4842190  32.9924590  95.2770240  35.7672570
  33.3504540  97.2739410  48.4115720  32.6252730  97.8668190  48.2145110
  33.8780000  97.2662950  47.6129090  33.3017650 101.6714150  38.0627880
  32.6593810 101.0169770  38.3371600  32.9148310 102.0769240  37.2868550
  28.8804130  98.9999580  41.9099570  29.2327950  98.4027710  41.2500940
  27.9966460  98.6743810  42.0807820  24.9667410  99.7597270  39.3169980
  25.6538540 100.3066480  39.6977570  24.1799830 100.3038000  39.3519590
  17.1059810  95.3770090  34.8087060  17.9754660  95.6594890  35.0922980
  16.6150130  96.1905960  34.6935870  24.2694620  96.7643300  38.9295340
  24.7257400  97.5748550  39.1555530  23.9182830  96.4466440  39.7613830
  26.5727230 102.2749640  46.1587640  27.2169450 102.4809020  46.8361060
  26.9356670 101.5138040  45.7058490  20.1706400  87.1080950  39.4017860
  20.0421030  87.0998850  40.3502780  19.3468420  87.4464040  39.0508870
  27.8459310 100.2781990  44.8765090  28.4881540  99.5775150  44.9897260
  28.3708660 101.0580430  44.6961980  31.6915030 100.5630610  34.6004230
  31.4652610  99.8461050  35.1928870  31.3011230 100.3143050  33.7625980
  29.6196930 101.0776890  48.0801150  29.9553170 101.6643580  48.7579070
  28.6997270 100.9469600  48.3098940  17.4731060 104.5897470  35.3748690
  17.8328700 105.1886810  34.7205960  17.3323400 105.1357360  36.1483720
  31.2731280  98.4802550  36.2618390  30.9852980  98.9415240  37.0496270
  32.0683450  98.0200320  36.5302610  17.4572920 102.8552330  49.8491090
  17.5664040 101.9147070  49.7086480  16.8053480 103.1207080  49.2004820
  25.4485510 101.1268220  51.2489210  25.1282380 100.4077460  51.7934900
  24.7743870 101.8023290  51.3225270  23.4899680 101.9728670  36.1922360
  23.4809780 102.7058360  35.5766870  22.5698040 101.7260250  36.2849320
  19.0906320  97.1943560  36.9369120  18.4834270  97.9342460  36.9464420
  19.5655670  97.2842920  36.1107320  28.6639110  91.3594380  46.6126010
  29.0319930  90.5389590  46.9405580  27.8037310  91.4196270  47.0281660
  32.0301140  90.3151320  37.4213570  31.4014300  90.4196990  36.7071800
  31.5353060  90.5348100  38.2107450  26.4759280 102.0356910  34.8547550
  26.5771260 101.8320900  33.9249530  25.5761020 101.7815190  35.0595330
  23.9985170  92.5937270  38.8371450  23.2901320  93.0623610  39.2785060
  24.2829650  91.9359280  39.4716640  25.6241100  94.0133970  46.8363980
  26.1226350  94.4879790  47.5015830  25.7664050  93.0897490  47.0434010
  28.0300600  89.3187930  40.2767240  27.9068380  89.3374060  39.3276750
  28.9785160  89.3666870  40.3965640  25.1177390 104.5543230  39.5495220
  25.3718890 104.5164620  38.6274590  24.1689870 104.4276560  39.5423470
  22.2020190  90.9022350  36.2122160  23.0510720  91.3392500  36.1462350
  21.8351460  91.2142610  37.0394220  32.8307960  90.2301930  47.6792370
  32.3281560  90.9707330  48.0186180  33.6464620  90.6185930  47.3629160
  31.1229970  95.4735110  41.1253730  30.1820110  95.4885340  41.3001420
  31.4374040  94.6871070  41.5714030  21.1011610  97.1554710  34.6857690
  21.8674880  97.0436070  35.2483120  21.1786300  96.4592680  34.0334460
  19.7958370  94.5879780  35.3690580  19.8761960  93.6407290  35.4807980
  20.6878120  94.9186660  35.4751240  33.1255550 102.6443960  42.8007990
  33.2502970 103.4675130  43.2731800  33.9921110 102.4334690  42.4532140
  20.5973080 104.7375170  42.4725120  21.3335560 104.1890630  42.7433690
  20.9814000 105.6031180  42.3331110  17.4818560 100.8048740  38.3466630
  16.5558340 101.0469880  38.3372040  17.9474990 101.6323000  38.2251380
  19.6031360 103.9221240  51.6610700  20.4044090 104.2433290  52.0746100
  19.0883180 103.5616820  52.3830610  23.7075390 103.9105480  34.2950690
  24.5004000 104.1994310  33.8432480  23.1879740 103.4797650  33.6163170
  28.4395990 100.0301110  51.6086110  27.8334150 100.0532710  50.8681860
  28.1350100  99.2984150  52.1453360  29.8696360 103.7581400  50.2195520
  30.8218110 103.6739420  50.1695760  29.7224580 104.4223110  50.8929310
  32.7605560 103.1375610  35.7187430  32.4747070 102.7240750  34.9041610
  32.5625110 104.0663320  35.5987950  17.3229170  96.4094700  50.6046750
  17.8268190  95.8301980  51.1762980  16.5836590  96.6934930  51.1423120
  24.2252790  99.1308890  34.1593040  24.1203430  98.5161240  34.8854420
  24.0577010  98.6074780  33.3756050  24.3767110  97.8165690  50.1382270
  23.6112780  98.3850690  50.0536940  24.5583070  97.5241900  49.2450500
  27.4655520  98.1928920  34.7635030  26.9165620  98.6398220  35.4077770
  28.0874780  97.6878170  35.2872700  31.5190460  99.5471020  50.6957290
  32.2599930  99.8846780  50.1924750  30.7563140  99.7163080  50.1427060
  19.3552250  94.5524290  51.4996820  19.3957590  94.2538160  52.4082050
  20.2097750  94.9531900  51.3404340  23.1330640  97.1519840  36.6600330
  23.5547060  96.9859710  37.5031720  23.2581480  96.3420070  36.1655470
  21.2958060  93.1316390  49.4671310  20.7654520  92.6407340  48.8394650
  21.9646130  93.5600590  48.9329240  25.6458280  96.1757450  33.9077430
  26.1663940  95.4606470  33.5418580  26.2926680  96.8143320  34.2077940
  30.1936120  97.5985850  49.2312500  30.6077140  97.7530930  50.0802920
  29.2587120  97.7241070  49.3938280  30.6658290  94.9382010  51.2351650
  31.2479060  94.1834330  51.1472130  30.8420060  95.4689450  50.4583130
  21.7830360  90.0978760  49.5468600  21.6887230  89.4799510  48.8219470
  21.2027750  90.8245050  49.3198510  24.5491800  88.6552000  46.5795990
  24.1009100  88.6776260  45.7341540  23.9157000  88.2571020  47.1766290
  24.9551350  97.5506330  47.2008430  25.3739460  98.3939060  47.0284670
  24.0359980  97.6878370  46.9715210  27.2915250  95.2822510  48.5846270
  27.4111460  94.6863650  49.3241110  28.1509250  95.3192200  48.1647570
  29.6303150  95.8359700  47.1608780  29.1038370  96.3602320  46.5573920
  29.9734490  96.4687090  47.7918510  22.0289540  93.2253070  33.6058490
  21.8278600  92.3620430  33.9671830  21.8581590  93.1386430  32.6680090
  22.8058770 103.8559340  48.3166160  22.2679860 104.5805400  47.9974860
  23.0592730 103.3789680  47.5263500  24.0584020  91.8243860  49.8422090
  24.6483710  91.5159710  50.5299910  23.2404260  91.3523610  49.9981990
  28.8777450  91.4409670  50.0755110  28.1892970  90.7791210  50.0105100
  29.5983470  90.9947940  50.5203570  29.5077850  88.0361300  36.1345370
  29.7880140  87.1929200  36.4904790  28.7343580  88.2684410  36.6484120
  20.8272340  90.3253690  33.5936370  21.1298240  90.3321120  32.6855520
  21.5666930  89.9751550  34.0904030  25.6620980 105.0910550  48.5752810
  25.5879680 105.9945690  48.8825180  24.7599820 104.7722450  48.5474880
  24.0457270  89.2688310  34.5792570  23.6979270  88.5912300  33.9995020
  24.2470040  88.8077820  35.3935960  26.2106310 104.2569060  36.1979170
  27.1057100 104.5954030  36.2197930  26.2423940 103.5348470  35.5703450
  19.8502470  99.6296110  34.4266170  20.2877340 100.1725780  35.0823750
  20.3350200  98.8043060  34.4362510  17.0648270 102.4185140  41.8786430
  17.3951280 101.5506200  41.6465070  17.4939270 102.6243660  42.7091390
  21.6610190 100.7494150  39.5388400  21.3605730 100.6259120  40.4392310
  21.5547680  99.8902740  39.1304130  17.5538480 103.2855730  44.6168060
  17.1169470 103.4656530  45.4492210  18.1216160 104.0430350  44.4749780
  33.1900660 102.7872730  48.9045370  32.5902650 102.8465290  48.1609290
  33.3194560 101.8477710  49.0342220  34.4302110 100.5290550  34.2415080
  33.5995070 100.5967200  34.7122310  34.6073940 101.4194670  33.9381940
  33.8858570  97.2738030  36.7449280  34.6477480  97.8434680  36.8508970
  33.9012940  96.7065230  37.5157590  17.3862910  95.7975960  40.9756940
  16.7311750  95.5287600  40.3316640  18.2240860  95.6880440  40.5258920
  34.8918540  98.1288130  41.5891210  35.2627370  97.3455450  41.1827180
  35.5320470  98.8177230  41.4108510  31.8752300  99.5124710  47.0021530
  31.0612140  99.9421870  47.2647320  32.2826500 100.1243120  46.3890580
  33.9377740  97.5672400  33.9021800  34.2126580  98.4751280  33.7741020
  33.7488480  97.5034930  34.8383790  30.3353350  90.5917250  35.1975430
  30.7538230  90.4048230  34.3572090  30.0289410  89.7396300  35.5078360
  33.8343080  95.5041390  38.8951230  33.4586680  94.7369320  38.4632520
  33.1046200  95.8864090  39.3826160  18.4238840  96.1828530  45.5160280
  18.7911880  96.0955930  46.3956300  17.8549660  95.4195080  45.4167140
  33.2242700  94.6512910  48.5290750  32.9928790  94.4225660  47.6288700
  33.4847250  95.5712460  48.4835640  17.9754840  93.0937620  49.4218700
  17.0810890  93.0604380  49.7612410  18.5152390  93.2924410  50.1869950
  31.6630770  89.8769340  51.3070450  32.5400950  89.8852740  51.6904450
  31.6751610  89.1400180  50.6962800  16.6000990  93.0074890  36.9182270
  15.6965070  93.2705090  36.7433930  17.0841610  93.2786060  36.1382230
  33.1094040  93.7298880  42.1958470  33.6331520  93.2361530  41.5648640
  33.6953460  93.8649240  42.9406040  33.2883760  93.8138750  45.7178020
  32.3386470  93.7802290  45.8323010  33.4696770  94.7238860  45.4827790
  19.1428200  92.0640430  34.8276650  19.8519900  91.6423650  34.3423930
  18.4268140  92.1315660  34.1960000  18.7902360  88.1179760  33.8679300
  19.5130490  88.6588700  34.1860520  19.0626880  87.8443180  32.9920840
  32.5994010  92.9872230  38.1350880  33.0953130  92.7543100  38.9199760
  32.4010080  92.1484070  37.7188520  18.4794550  87.3685950  43.7701920
  19.1270740  86.8183330  43.3297080  18.8996390  87.6229100  44.5917730
  34.0281170  91.6233180  40.6688560  33.9180450  91.4689220  41.6070830
  34.7888760  91.0954120  40.4263970  32.3746890  87.5627310  47.1271560
  33.0119110  88.1761450  47.4930750  32.5221780  87.5987970  46.1820790
  34.9171440  89.4541100  33.9094700  35.8420750  89.3222280  33.7012990
  34.8947230  89.5333920  34.8631150  34.9909930  90.2251760  36.5351410
  34.1961430  90.1596880  37.0644320  35.1953210  91.1602400  36.5236760
  31.9328350 104.2643310  40.5289800  32.5287420 103.9427880  39.8524220
  32.1906500 103.7915130  41.3203070  19.8390920 100.6961220  50.6780430
  19.7960550 100.3254130  51.5594890  19.9701930 101.6338790  50.8182250
  23.5396950 102.2520810  46.2790150  23.2988310 102.5195370  45.3920670
  24.4799590 102.4226540  46.3341010  25.7451370  88.7153500  50.0346660
  25.6840260  89.3075330  50.7842070  26.6851750  88.6079460  49.8896920
  28.3825930  88.3723560  49.6738950  28.9966340  88.6902850  49.0120030
  28.9275490  87.8872150  50.2934810  34.8001110 104.2715190  47.0800790
  34.3059390 104.6684060  46.3627920  34.1914400 103.6464400  47.4738070
  19.6778950 103.6423470  47.7978210  19.0839270 103.5108170  48.5368250
  19.6702790 102.8061610  47.3320310  29.1233970  86.9355700  46.0008240
  28.2493810  87.2690810  45.7981170  29.0144720  86.4628880  46.8260110
  30.0305950  89.1426570  47.3849960  29.7019310  88.3278330  47.0051690
  30.9788250  89.0996380  47.2615650  32.4840560 104.9138610  44.3587530
  32.0243530 105.6654420  43.9845550  31.8553020 104.1945080  44.3002330
  19.3091180 101.0081850  46.7486250  18.5825240 100.3887140  46.6812200
  19.3700330 101.4022460  45.8784330  22.9136280 103.2226850  43.5335660
  23.4301300 102.6114210  43.0083920  23.5633660 103.7255630  44.0246670
  25.6531780 104.1135340  44.3604640  25.9409590 103.8589640  43.4837650
  26.1655000 103.5612700  44.9510210  26.8708790  87.8525540  44.9401150
  26.0880580  88.3271040  45.2197910  26.5771720  86.9480370  44.8314330
  31.4229860  88.5548640  42.9850240  31.8637950  88.4993740  42.1371840
  31.1537450  89.4706650  43.0560420  33.2868430  88.1863880  40.9959060
  33.2256830  87.2425100  40.8490080  34.0660460  88.2943970  41.5412520
  17.5921180 104.3256240  39.9583010  17.4243220 103.6926920  40.6564900
  16.7255690 104.5315640  39.6077200  18.2149200  88.1573020  37.4614870
  18.9728560  88.2701900  36.8878900  17.7526370  88.9942220  37.4158300
  24.7563010  90.2712290  40.4517180  23.9437520  89.8969180  40.1113060
  25.2604650  89.5157370  40.7538370  29.2587990  86.9354740  41.6900250
  29.8617360  87.5074950  42.1648770  28.5180980  87.4994180  41.4674150
  32.4022590  87.3376300  36.9640530  32.5973220  88.2359750  37.2307960
  31.6152460  87.1063380  37.4573480  19.1983880 103.0189470  37.4033150
  18.6731500 103.3997500  36.6995110  19.1228460 103.6440240  38.1242860
  20.5874350  88.6837070  36.0016840  21.1167110  87.8966870  35.8724790
  21.2202670  89.3628260  36.2352370  22.7812190  88.4212210  39.0562230
  22.1514930  87.7199520  39.2232360  22.2417330  89.1816340  38.8395390
  25.7204140 105.0351440  51.7272840  26.6471450 104.7995710  51.7708800
  25.7054570 105.8623440  51.2458870  33.9549200 104.5777010  38.7247090
  34.1301390 103.8914750  38.0808010  33.2570770 105.1024060  38.3323760
  22.9067750  87.6996190  51.4914720  22.6252020  88.2029790  50.7275540
  23.2887450  86.9017940  51.1256850  21.7976850 104.9671850  36.2782400
  22.5295670 104.6831130  35.7306290  22.0570520 104.7285130  37.1681780
  20.9591640 101.0836580  36.2828730  20.3300520 101.5521680  36.8314560
  21.0739470 100.2385800  36.7174920  29.5083210  87.1149770  52.0695190
  29.3948660  87.4344380  52.9646710  30.3252950  87.5162280  51.7732470
  32.2881700 104.2621300  51.5513880  33.0807020 103.7670530  51.3439840
  32.5814850 104.9411440  52.1589490  28.4141360  95.1342240  22.4329930
  28.3335410  94.2196850  22.1621640  28.0005780  95.6309310  21.7269640
  26.5459400  96.9121260  24.3139200  25.7701500  96.4321700  24.6037770
  27.1972330  96.2326910  24.1395360  20.5625230  97.2241070  25.1914960
  19.7310110  96.9689780  25.5911470  21.1706210  97.2951840  25.9272880
  30.5666830 101.3181450  23.0938330  30.1048360 100.5468690  23.4225500
  31.3792380 101.3447520  23.5990780  20.5426490 101.2581160  25.3872980
  20.8454530 100.3678900  25.2083200  21.2870080 101.8151380  25.1595230
  18.9717180  92.1842960  18.9757350  18.0833880  92.5258930  18.8737230
  19.2558370  91.9843280  18.0838180  16.9350190  94.7848610  24.8597050
  17.5066300  94.0170810  24.8600690  16.9351730  95.0837370  23.9503660
  26.7930140 103.6039460  22.7142320  26.1741580 104.0596960  22.1436760
  27.6481920 103.7590920  22.3132020  25.9868390  99.5878450  24.3209360
  25.9176670  98.6468390  24.1598490  26.7488250  99.6779860  24.8931930
  18.1775060  90.1932970  26.6465980  17.9977900  89.2958720  26.9268740
  17.7755140  90.7404840  27.3212930  27.0173560  92.3948830  24.5478290
  27.3938380  91.5220710  24.4351960  26.9193070  92.7307530  23.6568730
  21.1478570  90.7674460  20.0095730  21.2545320  91.6678190  20.3164490
  20.2370930  90.7192430  19.7190380  30.7997680  89.8899270  21.4806630
  31.6207300  89.3995840  21.5232110  30.8331760  90.4796930  22.2338470
  18.7961730  92.6893470  25.2548320  19.4771840  92.9531840  25.8735720
  18.4809780  91.8494340  25.5886330  22.9886300  93.7360830  24.3420910
  23.4964520  94.2341800  24.9825930  23.5199540  92.9596030  24.1660270
  35.0897230  91.9066020  28.0450260  34.3849400  92.2947730  27.5265370
  35.3555150  92.6016310  28.6471190  21.2722400  88.3759390  28.6084330
  21.2740840  88.8931780  27.8030230  20.4426710  87.8989570  28.5854260
  27.6593490  98.4878700  20.1074230  27.0410760  98.9528150  19.5436950
  28.1716740  99.1806180  20.5243740  22.5225250  98.0154570  26.7857830
  22.1894630  98.6423490  27.4278900  22.6991930  98.5416450  26.0059500
  31.0359160  91.8299650  24.2534170  30.3314730  92.1184540  24.8337280
  31.3971320  92.6399760  23.8933730  20.9537730  90.0869350  26.6154780
  21.2954540  90.9311400  26.3208650  20.0153540  90.2353090  26.7320120
  21.7344350  99.9835370  28.6007010  22.3518350 100.6586450  28.3191460
  20.8737470 100.3923350  28.5094510  17.0276690  99.1735230  17.4813860
  16.6504670  99.6622330  16.7498760  17.2849760  99.8460510  18.1120390
  32.6521940 101.4474780  26.5161650  31.9685460 102.1173890  26.5078320
  33.1916230 101.6455430  25.7506510  34.1046080  91.2754440  24.6443380
  33.1570990  91.3093420  24.7758810  34.4296070  92.0893390  25.0292740
  24.6365620  87.5751620  22.9399370  24.9440600  87.0198510  22.2234870
  23.7066320  87.7096080  22.7572360  30.1880680 103.2918910  25.2306830
  30.2007840 102.8881200  24.3629090  29.6355900 104.0666200  25.1268260
  29.5866120  98.1948750  26.5589440  30.0034910  97.9808860  25.7242900
  30.3105940  98.4521540  27.1298060  27.0246380  95.6400450  19.6759490
  26.0975660  95.5737830  19.9047960  27.1771200  96.5780580  19.5614730
  27.0115460  91.9117450  16.6726650  26.0719130  92.0731410  16.7579110
  27.3298720  92.6303130  16.1262640  33.5328220  96.5935970  26.6505680
  32.7046850  96.6629060  26.1755810  34.1278700  97.1790280  26.1821510
  30.4970230  93.3805290  27.5960550  30.0841410  94.2059000  27.8500540
  29.7646180  92.7950330  27.4036910  22.6303020  96.1665190  22.4579220
  22.2260020  95.4542440  21.9625120  22.7166140  95.8218430  23.3467260
  23.0984720  99.8532750  24.6218430  22.8013010  99.2478220  23.9426210
  24.0484540  99.8910060  24.5107790  21.3431640  92.9408400  26.2378260
  21.8946230  93.0503740  25.4631510  21.8575150  93.3146000  26.9533490
  31.1870330 103.4264620  28.2841530  30.7100890 104.2336810  28.0914140
  30.5032120 102.7742950  28.4367740  22.1903150  99.5914440  31.2726230
  21.2931680  99.8154410  31.5199630  22.2156020  99.7149380  30.3237630
  29.2308370  96.4407560  17.1867490  29.6701650  95.6029990  17.0405310
  29.9436790  97.0736960  17.2731630  21.0174370  96.4627760  29.8483600
  20.8782140  97.3350560  30.2171000  20.1355730  96.1200570  29.7031540
  27.3403750 101.3803630  21.1548730  27.7799660 102.1227960  20.7404120
  27.2790640 101.6230200  22.0787690  22.8154720 102.4049460  32.0568750
  22.7870150 102.8092410  31.1897180  22.6519690 101.4759820  31.8940350
  32.8125510  87.6950370  15.5008530  32.4998170  87.7877200  16.4007600
  33.5737980  88.2731400  15.4505960  19.3307650  95.0610170  19.9585870
  19.2105250  95.7872260  19.3467140  19.0208540  94.2913080  19.4813780
  34.7669540 103.1876560  33.3532920  35.2429260 103.6659450  34.0322000
  35.3876700 103.1194050  32.6278420  16.9693020  98.2325310  25.7654510
  17.0473440  98.3674080  24.8210230  17.5834700  97.5241200  25.9582630
  18.2140650  99.9325500  22.1760690  17.8068730 100.0740090  21.3214290
  19.1053660  99.6485660  21.9731900  34.1702790 100.3789410  30.5132930
  34.2965850 100.1401290  29.5950110  34.2124170  99.5473950  30.9855010
  28.0319530 104.0817410  29.0827740  28.5464200 103.9925420  29.8850170
  27.1888610 104.4277110  29.3755650  30.0073930 104.3672750  18.5111740
  29.8475070 104.0775690  19.4093570  29.8420640 103.5912880  17.9756970
  22.4862310 104.1471280  20.2883360  22.3104790 103.2306820  20.0751160
  21.6318050 104.5058570  20.5281160  29.7100060 101.8760310  17.0709740
  29.0165220 101.8737600  16.4112020  30.4522920 101.4519630  16.6403910
  29.2749990 103.5023020  21.1458230  29.7306940 102.7212400  21.4596850
  29.6142510 104.2129840  21.6899410  34.0226800  92.4321870  31.4782670
  33.4071070  92.9401540  30.9498130  33.7023220  91.5320200  31.4208610
  17.0252540  99.2739480  28.3048970  17.1883580  98.8044840  27.4868340
  17.4904990  98.7663040  28.9697810  21.7971310  88.4045240  23.3409540
  21.3539460  89.1854780  23.0094060  22.3556300  88.7275130  24.0480480
  26.0841120  91.2713760  28.9444860  25.6220490  91.4796780  29.7564800
  25.6819230  90.4573110  28.6415530  31.0845630  92.4922710  30.0741520
  30.2339220  92.1928460  30.3950590  30.9247420  92.7364720  29.1625340
  28.1795340  93.9924460  32.1740310  28.5048750  93.1588210  31.8342540
  28.9675670  94.5152980  32.3218640  24.9130130  88.0255940  18.2215370
  24.2884310  88.0215810  18.9468680  24.8260250  87.1586900  17.8251340
  23.8347210  88.9492570  25.1999140  24.1319540  89.8555400  25.1191160
  24.3832770  88.4611350  24.5858710  21.5885530  93.5278810  21.0690790
  21.3626450  93.3115980  21.9737410  20.8078060  93.9607270  20.7236760
  28.8183290  93.5342180  19.6681440  28.2192180  94.2577980  19.4845060
  29.3662900  93.4718960  18.8857890  24.0284740  94.4264390  31.7351060
  23.9328340  93.4859120  31.5851460  24.8716720  94.6479460  31.3399130
  27.4248160  92.1705720  21.6984720  27.8177730  92.4877920  20.8853410
  27.7865010  91.2917600  21.8129240  19.1595280  90.8378060  29.8884840
  18.7658670  91.6853270  30.0957620  18.4713680  90.2004430  30.0793480
  25.7340330  90.9213030  32.9581580  25.0438650  90.7285230  33.5927670
  26.4772630  91.2047670  33.4905880  16.4612330  88.7606520  23.9214920
  16.1725380  89.3309380  24.6339900  17.2058090  88.2810970  24.2846150
  16.6482560  92.7026640  15.1317640  16.5657230  93.6457400  15.2732630
  16.2965620  92.5601550  14.2529990  28.0103300  94.7611470  25.7935500
  27.2784420  95.2698280  26.1425600  27.6127640  93.9441450  25.4924280
  24.4480690  91.4365670  24.1987990  24.4516750  90.9955620  23.3492530
  25.3431810  91.7583000  24.3059810  20.2983070  91.3192160  23.1582200
  19.9583120  91.7967390  23.9149250  19.5360390  90.8657280  22.7983300
  24.5100840  92.4377750  17.1894750  24.6313660  92.3964230  18.1380570
  24.1249350  93.3001900  17.0341480  28.4729210  90.2145150  25.2058440
  28.4901950  90.6653800  26.0500290  28.2244790  89.3150790  25.4191880
  23.5222340  94.7478890  16.5878050  22.9539240  94.2997140  15.9613960
  24.2311340  95.1071670  16.0543200  31.8999960  87.6277330  31.0444820
  32.2245730  86.8966990  31.5702800  31.9356470  87.3090970  30.1425810
  18.5991520  98.6490910  30.4644780  18.2146310  98.0084580  31.0627740
  18.9103710  99.3527030  31.0339510  24.7488660  95.4967450  25.9453400
  25.1158790  95.0226020  26.6914740  24.5593720  96.3709020  26.2861740
  17.6129150  90.2411140  22.0746870  17.3276070  89.8766810  22.9125490
  17.5508010  89.5091600  21.4610010  22.5388030  94.5376090  28.2637610
  22.2345100  95.4168070  28.4887970  23.4934490  94.5975880  28.2995050
  21.0669820  98.7437080  18.8604460  20.2932080  98.2034700  18.7003180
  21.7964450  98.2243690  18.5222220  31.8257800  97.7402440  24.6530850
  32.5456920  98.2357730  24.2626960  31.6239620  97.0620330  24.0084720
  27.2867740  89.1340400  18.7960240  26.4732350  88.6353570  18.7205550
  27.0929690  89.9738650  18.3796590  27.2076600  97.8111500  30.5399850
  27.1413910  96.8907170  30.2857440  26.5781740  97.9086940  31.2544490
  30.0016130  93.5060050  17.0922400  30.8895750  93.8177280  16.9173740
  29.9721220  92.6332300  16.7002980  21.1107220  98.4117460  22.4983270
  21.6285890  97.6085720  22.4440160  20.6591240  98.3496600  23.3400100
  25.9976720  99.6783740  17.7710570  26.3392420 100.4225970  17.2753890
  25.1689430  99.9914860  18.1335400  18.5951760  95.3778830  29.4108970
  18.2366700  96.0432680  29.9982310  18.3006320  94.5462380  29.7821590
  21.7964880  95.8363070  32.2948520  21.4965020  95.9820250  31.3976340
  22.5676120  95.2768360  32.2021910  27.1393330 100.6332070  30.2903650
  27.1537870  99.7013030  30.0722560  26.4318430 100.7191830  30.9293420
  32.2730400  94.8171890  16.5602260  32.1894120  95.2486110  15.7098700
  32.9924590  95.2770240  16.9929080  33.3504540  97.2739410  29.6372230
  32.6252730  97.8668190  29.4401620  33.8780000  97.2662950  28.8385600
  33.3017650 101.6714150  19.2884390  32.6593810 101.0169770  19.5628110
  32.9148310 102.0769240  18.5125060  28.8804130  98.9999580  23.1356080
  29.2327950  98.4027710  22.4757450  27.9966460  98.6743810  23.3064330
  24.9667410  99.7597270  20.5426490  25.6538540 100.3066480  20.9234080
  24.1799830 100.3038000  20.5776100  17.1059810  95.3770090  16.0343570
  17.9754660  95.6594890  16.3179490  16.6150130  96.1905960  15.9192380
  24.2694620  96.7643300  20.1551850  24.7257400  97.5748550  20.3812040
  23.9182830  96.4466440  20.9870340  26.5727230 102.2749640  27.3844150
  27.2169450 102.4809020  28.0617570  26.9356670 101.5138040  26.9315000
  20.1706400  87.1080950  20.6274370  20.0421030  87.0998850  21.5759290
  19.3468420  87.4464040  20.2765380  27.8459310 100.2781990  26.1021600
  28.4881540  99.5775150  26.2153770  28.3708660 101.0580430  25.9218490
  31.6915030 100.5630610  15.8260740  31.4652610  99.8461050  16.4185380
  31.3011230 100.3143050  14.9882490  29.6196930 101.0776890  29.3057660
  29.9553170 101.6643580  29.9835580  28.6997270 100.9469600  29.5355450
  17.4731060 104.5897470  16.6005200  17.8328700 105.1886810  15.9462470
  17.3323400 105.1357360  17.3740230  17.1700330  88.8672070  30.0881070
  16.4558850  89.0668990  30.6933680  17.5895370  88.0911640  30.4595870
  17.4572920 102.8552330  31.0747600  17.5664040 101.9147070  30.9342990
  16.8053480 103.1207080  30.4261330  25.4485510 101.1268220  32.4745720
  25.1282380 100.4077460  33.0191410  24.7743870 101.8023290  32.5481780
  23.4899680 101.9728670  17.4178870  23.4809780 102.7058360  16.8023380
  22.5698040 101.7260250  17.5105830  19.0906320  97.1943560  18.1625630
  18.4834270  97.9342460  18.1720930  19.5655670  97.2842920  17.3363830
  28.6639110  91.3594380  27.8382520  29.0319930  90.5389590  28.1662090
  27.8037310  91.4196270  28.2538170  32.0301140  90.3151320  18.6470080
  31.4014300  90.4196990  17.9328310  31.5353060  90.5348100  19.4363960
  26.4759280 102.0356910  16.0804060  26.5771260 101.8320900  15.1506040
  25.5761020 101.7815190  16.2851840  23.9985170  92.5937270  20.0627960
  23.2901320  93.0623610  20.5041570  24.2829650  91.9359280  20.6973150
  25.6241100  94.0133970  28.0620490  26.1226350  94.4879790  28.7272340
  25.7664050  93.0897490  28.2690520  28.0300600  89.3187930  21.5023750
  27.9068380  89.3374060  20.5533260  28.9785160  89.3666870  21.6222150
  25.1177390 104.5543230  20.7751730  25.3718890 104.5164620  19.8531100
  24.1689870 104.4276560  20.7679980  22.2020190  90.9022350  17.4378670
  23.0510720  91.3392500  17.3718860  21.8351460  91.2142610  18.2650730
  32.8307960  90.2301930  28.9048880  32.3281560  90.9707330  29.2442690
  33.6464620  90.6185930  28.5885670  21.1011610  97.1554710  15.9114200
  21.8674880  97.0436070  16.4739630  21.1786300  96.4592680  15.2590970
  19.7958370  94.5879780  16.5947090  19.8761960  93.6407290  16.7064490
  20.6878120  94.9186660  16.7007750  33.1255550 102.6443960  24.0264500
  33.2502970 103.4675130  24.4988310  33.9921110 102.4334690  23.6788650
  20.5973080 104.7375170  23.6981630  21.3335560 104.1890630  23.9690200
  20.9814000 105.6031180  23.5587620  17.4818560 100.8048740  19.5723140
  16.5558340 101.0469880  19.5628550  17.9474990 101.6323000  19.4507890
  19.6031360 103.9221240  32.8867210  20.4044090 104.2433290  33.3002610
  19.0883180 103.5616820  33.6087120  23.7075390 103.9105480  15.5207200
  24.5004000 104.1994310  15.0688990  23.1879740 103.4797650  14.8419680
  28.4395990 100.0301110  32.8342620  27.8334150 100.0532710  32.0938370
  28.1350100  99.2984150  33.3709870  29.8696360 103.7581400  31.4452030
  30.8218110 103.6739420  31.3952270  29.7224580 104.4223110  32.1185820
  32.7605560 103.1375610  16.9443940  32.4747070 102.7240750  16.1298120
  32.5625110 104.0663320  16.8244460  17.3229170  96.4094700  31.8303260
  17.8268190  95.8301980  32.4019490  16.5836590  96.6934930  32.3679630
  24.2252790  99.1308890  15.3849550  24.1203430  98.5161240  16.1110930
  24.0577010  98.6074780  14.6012560  24.3767110  97.8165690  31.3638780
  23.6112780  98.3850690  31.2793450  24.5583070  97.5241900  30.4707010
  27.4655520  98.1928920  15.9891540  26.9165620  98.6398220  16.6334280
  28.0874780  97.6878170  16.5129210  31.5190460  99.5471020  31.9213800
  32.2599930  99.8846780  31.4181260  30.7563140  99.7163080  31.3683570
  19.3552250  94.5524290  32.7253330  19.3957590  94.2538160  33.6338560
  20.2097750  94.9531900  32.5660850  23.1330640  97.1519840  17.8856840
  23.5547060  96.9859710  18.7288230  23.2581480  96.3420070  17.3911980
  21.2958060  93.1316390  30.6927820  20.7654520  92.6407340  30.0651160
  21.9646130  93.5600590  30.1585750  25.6458280  96.1757450  15.1333940
  26.1663940  95.4606470  14.7675090  26.2926680  96.8143320  15.4334450
  30.1936120  97.5985850  30.4569010  30.6077140  97.7530930  31.3059430
  29.2587120  97.7241070  30.6194790  30.6658290  94.9382010  32.4608160
  31.2479060  94.1834330  32.3728640  30.8420060  95.4689450  31.6839640
  21.7830360  90.0978760  30.7725110  21.6887230  89.4799510  30.0475980
  21.2027750  90.8245050  30.5455020  24.5491800  88.6552000  27.8052500
  24.1009100  88.6776260  26.9598050  23.9157000  88.2571020  28.4022800
  24.9551350  97.5506330  28.4264940  25.3739460  98.3939060  28.2541180
  24.0359980  97.6878370  28.1971720  27.2915250  95.2822510  29.8102780
  27.4111460  94.6863650  30.5497620  28.1509250  95.3192200  29.3904080
  29.6303150  95.8359700  28.3865290  29.1038370  96.3602320  27.7830430
  29.9734490  96.4687090  29.0175020  22.0289540  93.2253070  14.8315000
  21.8278600  92.3620430  15.1928340  21.8581590  93.1386430  13.8936600
  22.8058770 103.8559340  29.5422670  22.2679860 104.5805400  29.2231370
  23.0592730 103.3789680  28.7520010  24.0584020  91.8243860  31.0678600
  24.6483710  91.5159710  31.7556420  23.2404260  91.3523610  31.2238500
  28.8777450  91.4409670  31.3011620  28.1892970  90.7791210  31.2361610
  29.5983470  90.9947940  31.7460080  29.5077850  88.0361300  17.3601880
  29.7880140  87.1929200  17.7161300  28.7343580  88.2684410  17.8740630
  20.8272340  90.3253690  14.8192880  21.1298240  90.3321120  13.9112030
  21.5666930  89.9751550  15.3160540  25.6620980 105.0910550  29.8009320
  25.5879680 105.9945690  30.1081690  24.7599820 104.7722450  29.7731390
  24.0457270  89.2688310  15.8049080  23.6979270  88.5912300  15.2251530
  24.2470040  88.8077820  16.6192470  26.2106310 104.2569060  17.4235680
  27.1057100 104.5954030  17.4454440  26.2423940 103.5348470  16.7959960
  19.8502470  99.6296110  15.6522680  20.2877340 100.1725780  16.3080260
  20.3350200  98.8043060  15.6619020  17.0648270 102.4185140  23.1042940
  17.3951280 101.5506200  22.8721580  17.4939270 102.6243660  23.9347900
  21.6610190 100.7494150  20.7644910  21.3605730 100.6259120  21.6648820
  21.5547680  99.8902740  20.3560640  17.5538480 103.2855730  25.8424570
  17.1169470 103.4656530  26.6748720  18.1216160 104.0430350  25.7006290
  33.1900660 102.7872730  30.1301880  32.5902650 102.8465290  29.3865800
  33.3194560 101.8477710  30.2598730  34.4302110 100.5290550  15.4671590
  33.5995070 100.5967200  15.9378820  34.6073940 101.4194670  15.1638450
  17.3862910  95.7975960  22.2013450  16.7311750  95.5287600  21.5573150
  18.2240860  95.6880440  21.7515430  31.8752300  99.5124710  28.2278040
  31.0612140  99.9421870  28.4903830  32.2826500 100.1243120  27.6147090
  33.9377740  97.5672400  15.1278310  34.2126580  98.4751280  14.9997530
  33.7488480  97.5034930  16.0640300  30.3353350  90.5917250  16.4231940
  30.7538230  90.4048230  15.5828600  30.0289410  89.7396300  16.7334870
  18.4238840  96.1828530  26.7416790  18.7911880  96.0955930  27.6212810
  17.8549660  95.4195080  26.6423650  33.2242700  94.6512910  29.7547260
  32.9928790  94.4225660  28.8545210  33.4847250  95.5712460  29.7092150
  17.9754840  93.0937620  30.6475210  17.0810890  93.0604380  30.9868920
  18.5152390  93.2924410  31.4126460  31.6630770  89.8769340  32.5326960
  32.5400950  89.8852740  32.9160960  31.6751610  89.1400180  31.9219310
  16.6000990  93.0074890  18.1438780  15.6965070  93.2705090  17.9690440
  17.0841610  93.2786060  17.3638740  33.1094040  93.7298880  23.4214980
  33.6331520  93.2361530  22.7905150  33.6953460  93.8649240  24.1662550
  33.2883760  93.8138750  26.9434530  32.3386470  93.7802290  27.0579520
  33.4696770  94.7238860  26.7084300  19.1428200  92.0640430  16.0533160
  19.8519900  91.6423650  15.5680440  18.4268140  92.1315660  15.4216510
  18.7902360  88.1179760  15.0935810  19.5130490  88.6588700  15.4117030
  19.0626880  87.8443180  14.2177350  18.4794550  87.3685950  24.9958430
  19.1270740  86.8183330  24.5553590  18.8996390  87.6229100  25.8174240
  34.0281170  91.6233180  21.8945070  33.9180450  91.4689220  22.8327340
  34.7888760  91.0954120  21.6520480  32.3746890  87.5627310  28.3528070
  33.0119110  88.1761450  28.7187260  32.5221780  87.5987970  27.4077300
  34.9171440  89.4541100  15.1351210  35.8420750  89.3222280  14.9269500
  34.8947230  89.5333920  16.0887660  34.9909930  90.2251760  17.7607920
  34.1961430  90.1596880  18.2900830  35.1953210  91.1602400  17.7493270
  31.9328350 104.2643310  21.7546310  32.5287420 103.9427880  21.0780730
  32.1906500 103.7915130  22.5459580  18.2326550  87.5241620  27.7383750
  17.8841370  87.9805440  28.5041930  17.9014250  86.6298750  27.8206180
  19.8390920 100.6961220  31.9036940  19.7960550 100.3254130  32.7851400
  19.9701930 101.6338790  32.0438760  23.5396950 102.2520810  27.5046660
  23.2988310 102.5195370  26.6177180  24.4799590 102.4226540  27.5597520
  25.7451370  88.7153500  31.2603170  25.6840260  89.3075330  32.0098580
  26.6851750  88.6079460  31.1153430  28.3825930  88.3723560  30.8995460
  28.9966340  88.6902850  30.2376540  28.9275490  87.8872150  31.5191320
  34.8001110 104.2715190  28.3057300  34.3059390 104.6684060  27.5884430
  34.1914400 103.6464400  28.6994580  18.9047190  87.0517820  31.0134520
  19.4530180  86.8705870  30.2500630  18.9702500  86.2611930  31.5490830
  19.6778950 103.6423470  29.0234720  19.0839270 103.5108170  29.7624760
  19.6702790 102.8061610  28.5576820  29.1233970  86.9355700  27.2264750
  28.2493810  87.2690810  27.0237680  29.0144720  86.4628880  28.0516620
  30.0305950  89.1426570  28.6106470  29.7019310  88.3278330  28.2308200
  30.9788250  89.0996380  28.4872160  32.4840560 104.9138610  25.5844040
  32.0243530 105.6654420  25.2102060  31.8553020 104.1945080  25.5258840
  19.3091180 101.0081850  27.9742760  18.5825240 100.3887140  27.9068710
  19.3700330 101.4022460  27.1040840  22.9136280 103.2226850  24.7592170
  23.4301300 102.6114210  24.2340430  23.5633660 103.7255630  25.2503180
  25.6531780 104.1135340  25.5861150  25.9409590 103.8589640  24.7094160
  26.1655000 103.5612700  26.1766720  26.8708790  87.8525540  26.1657660
  26.0880580  88.3271040  26.4454420  26.5771720  86.9480370  26.0570840
  31.4229860  88.5548640  24.2106750  31.8637950  88.4993740  23.3628350
  31.1537450  89.4706650  24.2816930  33.2868430  88.1863880  22.2215570
  33.2256830  87.2425100  22.0746590  34.0660460  88.2943970  22.7669030
  17.5921180 104.3256240  21.1839520  17.4243220 103.6926920  21.8821410
  16.7255690 104.5315640  20.8333710  18.2149200  88.1573020  18.6871380
  18.9728560  88.2701900  18.1135410  17.7526370  88.9942220  18.6414810
  24.7563010  90.2712290  21.6773690  23.9437520  89.8969180  21.3369570
  25.2604650  89.5157370  21.9794880  29.2587990  86.9354740  22.9156760
  29.8617360  87.5074950  23.3905280  28.5180980  87.4994180  22.6930660
  32.4022590  87.3376300  18.1897040  32.5973220  88.2359750  18.4564470
  31.6152460  87.1063380  18.6829990  19.1983880 103.0189470  18.6289660
  18.6731500 103.3997500  17.9251620  19.1228460 103.6440240  19.3499370
  20.5874350  88.6837070  17.2273350  21.1167110  87.8966870  17.0981300
  21.2202670  89.3628260  17.4608880  22.7812190  88.4212210  20.2818740
  22.1514930  87.7199520  20.4488870  22.2417330  89.1816340  20.0651900
  25.7204140 105.0351440  32.9529350  26.6471450 104.7995710  32.9965310
  25.7054570 105.8623440  32.4715380  33.9549200 104.5777010  19.9503600
  34.1301390 103.8914750  19.3064520  33.2570770 105.1024060  19.5580270
  22.9067750  87.6996190  32.7171230  22.6252020  88.2029790  31.9532050
  23.2887450  86.9017940  32.3513360  21.7976850 104.9671850  17.5038910
  22.5295670 104.6831130  16.9562800  22.0570520 104.7285130  18.3938290
  20.9591640 101.0836580  17.5085240  20.3300520 101.5521680  18.0571070
  21.0739470 100.2385800  17.9431430  29.5083210  87.1149770  33.2951700
  29.3948660  87.4344380  34.1903220  30.3252950  87.5162280  32.9988980
  32.2881700 104.2621300  32.7770390  33.0807020 103.7670530  32.5696350
  32.5814850 104.9411440  33.3846000  28.4141360  95.1342240   3.6586440
  28.3335410  94.2196850   3.3878150  28.0005780  95.6309310   2.9526150
  26.5459400  96.9121260   5.5395710  25.7701500  96.4321700   5.8294280
  27.1972330  96.2326910   5.3651870  20.5625230  97.2241070   6.4171470
  19.7310110  96.9689780   6.8167980  21.1706210  97.2951840   7.1529390
  30.5666830 101.3181450   4.3194840  30.1048360 100.5468690   4.6482010
  31.3792380 101.3447520   4.8247290  20.5426490 101.2581160   6.6129490
  20.8454530 100.3678900   6.4339710  21.2870080 101.8151380   6.3851740
  16.9350190  94.7848610   6.0853560  17.5066300  94.0170810   6.0857200
  16.9351730  95.0837370   5.1760170  26.7930140 103.6039460   3.9398830
  26.1741580 104.0596960   3.3693270  27.6481920 103.7590920   3.5388530
  25.9868390  99.5878450   5.5465870  25.9176670  98.6468390   5.3855000
  26.7488250  99.6779860   6.1188440  18.1775060  90.1932970   7.8722490
  17.9977900  89.2958720   8.1525250  17.7755140  90.7404840   8.5469440
  27.0173560  92.3948830   5.7734800  27.3938380  91.5220710   5.6608470
  26.9193070  92.7307530   4.8825240  30.7997680  89.8899270   2.7063140
  31.6207300  89.3995840   2.7488620  30.8331760  90.4796930   3.4594980
  18.7961730  92.6893470   6.4804830  19.4771840  92.9531840   7.0992230
  18.4809780  91.8494340   6.8142840  22.9886300  93.7360830   5.5677420
  23.4964520  94.2341800   6.2082440  23.5199540  92.9596030   5.3916780
  35.0897230  91.9066020   9.2706770  34.3849400  92.2947730   8.7521880
  35.3555150  92.6016310   9.8727700  21.2722400  88.3759390   9.8340840
  21.2740840  88.8931780   9.0286740  20.4426710  87.8989570   9.8110770
  22.5225250  98.0154570   8.0114340  22.1894630  98.6423490   8.6535410
  22.6991930  98.5416450   7.2316010  31.0359160  91.8299650   5.4790680
  30.3314730  92.1184540   6.0593790  31.3971320  92.6399760   5.1190240
  20.9537730  90.0869350   7.8411290  21.2954540  90.9311400   7.5465160
  20.0153540  90.2353090   7.9576630  21.7344350  99.9835370   9.8263520
  22.3518350 100.6586450   9.5447970  20.8737470 100.3923350   9.7351020
  32.6521940 101.4474780   7.7418160  31.9685460 102.1173890   7.7334830
  33.1916230 101.6455430   6.9763020  34.1046080  91.2754440   5.8699890
  33.1570990  91.3093420   6.0015320  34.4296070  92.0893390   6.2549250
  24.6365620  87.5751620   4.1655880  24.9440600  87.0198510   3.4491380
  23.7066320  87.7096080   3.9828870  30.1880680 103.2918910   6.4563340
  30.2007840 102.8881200   5.5885600  29.6355900 104.0666200   6.3524770
  29.5866120  98.1948750   7.7845950  30.0034910  97.9808860   6.9499410
  30.3105940  98.4521540   8.3554570  33.5328220  96.5935970   7.8762190
  32.7046850  96.6629060   7.4012320  34.1278700  97.1790280   7.4078020
  30.4970230  93.3805290   8.8217060  30.0841410  94.2059000   9.0757050
  29.7646180  92.7950330   8.6293420  22.6303020  96.1665190   3.6835730
  22.2260020  95.4542440   3.1881630  22.7166140  95.8218430   4.5723770
  23.0984720  99.8532750   5.8474940  22.8013010  99.2478220   5.1682720
  24.0484540  99.8910060   5.7364300  21.3431640  92.9408400   7.4634770
  21.8946230  93.0503740   6.6888020  21.8575150  93.3146000   8.1790000
  31.1870330 103.4264620   9.5098040  30.7100890 104.2336810   9.3170650
  30.5032120 102.7742950   9.6624250  22.1903150  99.5914440  12.4982740
  21.2931680  99.8154410  12.7456140  22.2156020  99.7149380  11.5494140
  21.0174370  96.4627760  11.0740110  20.8782140  97.3350560  11.4427510
  20.1355730  96.1200570  10.9288050  27.3403750 101.3803630   2.3805240
  27.7799660 102.1227960   1.9660630  27.2790640 101.6230200   3.3044200
  22.8154720 102.4049460  13.2825260  22.7870150 102.8092410  12.4153690
  22.6519690 101.4759820  13.1196860  34.7669540 103.1876560  14.5789430
  35.2429260 103.6659450  15.2578510  35.3876700 103.1194050  13.8534930
  16.9693020  98.2325310   6.9911020  17.0473440  98.3674080   6.0466740
  17.5834700  97.5241200   7.1839140  18.2140650  99.9325500   3.4017200
  17.8068730 100.0740090   2.5470800  19.1053660  99.6485660   3.1988410
  34.1702790 100.3789410  11.7389440  34.2965850 100.1401290  10.8206620
  34.2124170  99.5473950  12.2111520  28.0319530 104.0817410  10.3084250
  28.5464200 103.9925420  11.1106680  27.1888610 104.4277110  10.6012160
  29.2749990 103.5023020   2.3714740  29.7306940 102.7212400   2.6853360
  29.6142510 104.2129840   2.9155920  34.0226800  92.4321870  12.7039180
  33.4071070  92.9401540  12.1754640  33.7023220  91.5320200  12.6465120
  17.0252540  99.2739480   9.5305480  17.1883580  98.8044840   8.7124850
  17.4904990  98.7663040  10.1954320  21.7971310  88.4045240   4.5666050
  21.3539460  89.1854780   4.2350570  22.3556300  88.7275130   5.2736990
  26.0841120  91.2713760  10.1701370  25.6220490  91.4796780  10.9821310
  25.6819230  90.4573110   9.8672040  31.0845630  92.4922710  11.2998030
  30.2339220  92.1928460  11.6207100  30.9247420  92.7364720  10.3881850
  28.1795340  93.9924460  13.3996820  28.5048750  93.1588210  13.0599050
  28.9675670  94.5152980  13.5475150  23.8347210  88.9492570   6.4255650
  24.1319540  89.8555400   6.3447670  24.3832770  88.4611350   5.8115220
  21.5885530  93.5278810   2.2947300  21.3626450  93.3115980   3.1993920
  20.8078060  93.9607270   1.9493270  24.0284740  94.4264390  12.9607570
  23.9328340  93.4859120  12.8107970  24.8716720  94.6479460  12.5655640
  27.4248160  92.1705720   2.9241230  27.8177730  92.4877920   2.1109920
  27.7865010  91.2917600   3.0385750  19.1595280  90.8378060  11.1141350
  18.7658670  91.6853270  11.3214130  18.4713680  90.2004430  11.3049990
  25.7340330  90.9213030  14.1838090  25.0438650  90.7285230  14.8184180
  26.4772630  91.2047670  14.7162390  16.4612330  88.7606520   5.1471430
  16.1725380  89.3309380   5.8596410  17.2058090  88.2810970   5.5102660
  28.0103300  94.7611470   7.0192010  27.2784420  95.2698280   7.3682110
  27.6127640  93.9441450   6.7180790  24.4480690  91.4365670   5.4244500
  24.4516750  90.9955620   4.5749040  25.3431810  91.7583000   5.5316320
  20.2983070  91.3192160   4.3838710  19.9583120  91.7967390   5.1405760
  19.5360390  90.8657280   4.0239810  28.4729210  90.2145150   6.4314950
  28.4901950  90.6653800   7.2756800  28.2244790  89.3150790   6.6448390
  31.8999960  87.6277330  12.2701330  32.2245730  86.8966990  12.7959310
  31.9356470  87.3090970  11.3682320  18.5991520  98.6490910  11.6901290
  18.2146310  98.0084580  12.2884250  18.9103710  99.3527030  12.2596020
  24.7488660  95.4967450   7.1709910  25.1158790  95.0226020   7.9171250
  24.5593720  96.3709020   7.5118250  17.6129150  90.2411140   3.3003380
  17.3276070  89.8766810   4.1382000  17.5508010  89.5091600   2.6866520
  22.5388030  94.5376090   9.4894120  22.2345100  95.4168070   9.7144480
  23.4934490  94.5975880   9.5251560  31.8257800  97.7402440   5.8787360
  32.5456920  98.2357730   5.4883470  31.6239620  97.0620330   5.2341230
  27.2076600  97.8111500  11.7656360  27.1413910  96.8907170  11.5113950
  26.5781740  97.9086940  12.4801000  21.1107220  98.4117460   3.7239780
  21.6285890  97.6085720   3.6696670  20.6591240  98.3496600   4.5656610
  18.5951760  95.3778830  10.6365480  18.2366700  96.0432680  11.2238820
  18.3006320  94.5462380  11.0078100  21.7964880  95.8363070  13.5205030
  21.4965020  95.9820250  12.6232850  22.5676120  95.2768360  13.4278420
  27.1393330 100.6332070  11.5160160  27.1537870  99.7013030  11.2979070
  26.4318430 100.7191830  12.1549930  33.3504540  97.2739410  10.8628740
  32.6252730  97.8668190  10.6658130  33.8780000  97.2662950  10.0642110
  28.8804130  98.9999580   4.3612590  29.2327950  98.4027710   3.7013960
  27.9966460  98.6743810   4.5320840  24.9667410  99.7597270   1.7683000
  25.6538540 100.3066480   2.1490590  24.1799830 100.3038000   1.8032610
  26.5727230 102.2749640   8.6100660  27.2169450 102.4809020   9.2874080
  26.9356670 101.5138040   8.1571510  27.8459310 100.2781990   7.3278110
  28.4881540  99.5775150   7.4410280  28.3708660 101.0580430   7.1475000
  29.6196930 101.0776890  10.5314170  29.9553170 101.6643580  11.2092090
  28.6997270 100.9469600  10.7611960  17.1700330  88.8672070  11.3137580
  16.4558850  89.0668990  11.9190190  17.5895370  88.0911640  11.6852380
  17.4572920 102.8552330  12.3004110  17.5664040 101.9147070  12.1599500
  16.8053480 103.1207080  11.6517840  25.4485510 101.1268220  13.7002230
  25.1282380 100.4077460  14.2447920  24.7743870 101.8023290  13.7738290
  28.6639110  91.3594380   9.0639030  29.0319930  90.5389590   9.3918600
  27.8037310  91.4196270   9.4794680  25.6241100  94.0133970   9.2877000
  26.1226350  94.4879790   9.9528850  25.7664050  93.0897490   9.4947030
  28.0300600  89.3187930   2.7280260  27.9068380  89.3374060   1.7789770
  28.9785160  89.3666870   2.8478660  32.8307960  90.2301930  10.1305390
  32.3281560  90.9707330  10.4699200  33.6464620  90.6185930   9.8142180
  31.1229970  95.4735110   3.5766750  30.1820110  95.4885340   3.7514440
  31.4374040  94.6871070   4.0227050  33.1255550 102.6443960   5.2521010
  33.2502970 103.4675130   5.7244820  33.9921110 102.4334690   4.9045160
  20.5973080 104.7375170   4.9238140  21.3335560 104.1890630   5.1946710
  20.9814000 105.6031180   4.7844130  19.6031360 103.9221240  14.1123720
  20.4044090 104.2433290  14.5259120  19.0883180 103.5616820  14.8343630
  28.4395990 100.0301110  14.0599130  27.8334150 100.0532710  13.3194880
  28.1350100  99.2984150  14.5966380  29.8696360 103.7581400  12.6708540
  30.8218110 103.6739420  12.6208780  29.7224580 104.4223110  13.3442330
  17.3229170  96.4094700  13.0559770  17.8268190  95.8301980  13.6276000
  16.5836590  96.6934930  13.5936140  24.3767110  97.8165690  12.5895290
  23.6112780  98.3850690  12.5049960  24.5583070  97.5241900  11.6963520
  31.5190460  99.5471020  13.1470310  32.2599930  99.8846780  12.6437770
  30.7563140  99.7163080  12.5940080  19.3552250  94.5524290  13.9509840
  19.3957590  94.2538160  14.8595070  20.2097750  94.9531900  13.7917360
  21.2958060  93.1316390  11.9184330  20.7654520  92.6407340  11.2907670
  21.9646130  93.5600590  11.3842260  30.1936120  97.5985850  11.6825520
  30.6077140  97.7530930  12.5315940  29.2587120  97.7241070  11.8451300
  30.6658290  94.9382010  13.6864670  31.2479060  94.1834330  13.5985150
  30.8420060  95.4689450  12.9096150  21.7830360  90.0978760  11.9981620
  21.6887230  89.4799510  11.2732490  21.2027750  90.8245050  11.7711530
  24.5491800  88.6552000   9.0309010  24.1009100  88.6776260   8.1854560
  23.9157000  88.2571020   9.6279310  24.9551350  97.5506330   9.6521450
  25.3739460  98.3939060   9.4797690  24.0359980  97.6878370   9.4228230
  27.2915250  95.2822510  11.0359290  27.4111460  94.6863650  11.7754130
  28.1509250  95.3192200  10.6160590  29.6303150  95.8359700   9.6121800
  29.1038370  96.3602320   9.0086940  29.9734490  96.4687090  10.2431530
  22.8058770 103.8559340  10.7679180  22.2679860 104.5805400  10.4487880
  23.0592730 103.3789680   9.9776520  24.0584020  91.8243860  12.2935110
  24.6483710  91.5159710  12.9812930  23.2404260  91.3523610  12.4495010
  28.8777450  91.4409670  12.5268130  28.1892970  90.7791210  12.4618120
  29.5983470  90.9947940  12.9716590  25.6620980 105.0910550  11.0265830
  25.5879680 105.9945690  11.3338200  24.7599820 104.7722450  10.9987900
  17.0648270 102.4185140   4.3299450  17.3951280 101.5506200   4.0978090
  17.4939270 102.6243660   5.1604410  17.5538480 103.2855730   7.0681080
  17.1169470 103.4656530   7.9005230  18.1216160 104.0430350   6.9262800
  33.1900660 102.7872730  11.3558390  32.5902650 102.8465290  10.6122310
  33.3194560 101.8477710  11.4855240  17.3862910  95.7975960   3.4269960
  16.7311750  95.5287600   2.7829660  18.2240860  95.6880440   2.9771940
  34.8918540  98.1288130   4.0404230  35.2627370  97.3455450   3.6340200
  35.5320470  98.8177230   3.8621530  31.8752300  99.5124710   9.4534550
  31.0612140  99.9421870   9.7160340  32.2826500 100.1243120   8.8403600
  18.4238840  96.1828530   7.9673300  18.7911880  96.0955930   8.8469320
  17.8549660  95.4195080   7.8680160  33.2242700  94.6512910  10.9803770
  32.9928790  94.4225660  10.0801720  33.4847250  95.5712460  10.9348660
  17.9754840  93.0937620  11.8731720  17.0810890  93.0604380  12.2125430
  18.5152390  93.2924410  12.6382970  31.6630770  89.8769340  13.7583470
  32.5400950  89.8852740  14.1417470  31.6751610  89.1400180  13.1475820
  33.1094040  93.7298880   4.6471490  33.6331520  93.2361530   4.0161660
  33.6953460  93.8649240   5.3919060  33.2883760  93.8138750   8.1691040
  32.3386470  93.7802290   8.2836030  33.4696770  94.7238860   7.9340810
  18.4794550  87.3685950   6.2214940  19.1270740  86.8183330   5.7810100
  18.8996390  87.6229100   7.0430750  34.0281170  91.6233180   3.1201580
  33.9180450  91.4689220   4.0583850  34.7888760  91.0954120   2.8776990
  32.3746890  87.5627310   9.5784580  33.0119110  88.1761450   9.9443770
  32.5221780  87.5987970   8.6333810  31.9328350 104.2643310   2.9802820
  32.5287420 103.9427880   2.3037240  32.1906500 103.7915130   3.7716090
  18.2326550  87.5241620   8.9640260  17.8841370  87.9805440   9.7298440
  17.9014250  86.6298750   9.0462690  19.8390920 100.6961220  13.1293450
  19.7960550 100.3254130  14.0107910  19.9701930 101.6338790  13.2695270
  23.5396950 102.2520810   8.7303170  23.2988310 102.5195370   7.8433690
  24.4799590 102.4226540   8.7854030  25.7451370  88.7153500  12.4859680
  25.6840260  89.3075330  13.2355090  26.6851750  88.6079460  12.3409940
  28.3825930  88.3723560  12.1251970  28.9966340  88.6902850  11.4633050
  28.9275490  87.8872150  12.7447830  34.8001110 104.2715190   9.5313810
  34.3059390 104.6684060   8.8140940  34.1914400 103.6464400   9.9251090
  18.9047190  87.0517820  12.2391030  19.4530180  86.8705870  11.4757140
  18.9702500  86.2611930  12.7747340  19.6778950 103.6423470  10.2491230
  19.0839270 103.5108170  10.9881270  19.6702790 102.8061610   9.7833330
  29.1233970  86.9355700   8.4521260  28.2493810  87.2690810   8.2494190
  29.0144720  86.4628880   9.2773130  30.0305950  89.1426570   9.8362980
  29.7019310  88.3278330   9.4564710  30.9788250  89.0996380   9.7128670
  32.4840560 104.9138610   6.8100550  32.0243530 105.6654420   6.4358570
  31.8553020 104.1945080   6.7515350  19.3091180 101.0081850   9.1999270
  18.5825240 100.3887140   9.1325220  19.3700330 101.4022460   8.3297350
  22.9136280 103.2226850   5.9848680  23.4301300 102.6114210   5.4596940
  23.5633660 103.7255630   6.4759690  25.6531780 104.1135340   6.8117660
  25.9409590 103.8589640   5.9350670  26.1655000 103.5612700   7.4023230
  26.8708790  87.8525540   7.3914170  26.0880580  88.3271040   7.6710930
  26.5771720  86.9480370   7.2827350  31.4229860  88.5548640   5.4363260
  31.8637950  88.4993740   4.5884860  31.1537450  89.4706650   5.5073440
  33.2868430  88.1863880   3.4472080  33.2256830  87.2425100   3.3003100
  34.0660460  88.2943970   3.9925540  17.5921180 104.3256240   2.4096030
  17.4243220 103.6926920   3.1077920  16.7255690 104.5315640   2.0590220
  24.7563010  90.2712290   2.9030200  23.9437520  89.8969180   2.5626080
  25.2604650  89.5157370   3.2051390  29.2587990  86.9354740   4.1413270
  29.8617360  87.5074950   4.6161790  28.5180980  87.4994180   3.9187170
  25.7204140 105.0351440  14.1785860  26.6471450 104.7995710  14.2221820
  25.7054570 105.8623440  13.6971890  22.9067750  87.6996190  13.9427740
  22.6252020  88.2029790  13.1788560  23.2887450  86.9017940  13.5769870
  29.5083210  87.1149770  14.5208210  29.3948660  87.4344380  15.4159730
  30.3252950  87.5162280  14.2245490  32.2881700 104.2621300  14.0026900
  33.0807020 103.7670530  13.7952860  32.5814850 104.9411440  14.6102510
  28.4141360  76.3598750  97.5303890  28.3335410  75.4453360  97.2595600
  28.0005780  76.8565820  96.8243600  26.5459400  78.1377770  99.4113160
  25.7701500  77.6578210  99.7011730  27.1972330  77.4583420  99.2369320
  20.5625230  78.4497580 100.2888920  19.7310110  78.1946290 100.6885430
  21.1706210  78.5208350 101.0246840  30.5666830  82.5437960  98.1912290
  30.1048360  81.7725200  98.5199460  31.3792380  82.5704030  98.6964740
  20.5426490  82.4837670 100.4846940  20.8454530  81.5935410 100.3057160
  21.2870080  83.0407890 100.2569190  18.9717180  73.4099470  94.0731310
  18.0833880  73.7515440  93.9711190  19.2558370  73.2099790  93.1812140
  16.9350190  76.0105120  99.9571010  17.5066300  75.2427320  99.9574650
  16.9351730  76.3093880  99.0477620  26.7930140  84.8295970  97.8116280
  26.1741580  85.2853470  97.2410720  27.6481920  84.9847430  97.4105980
  25.9868390  80.8134960  99.4183320  25.9176670  79.8724900  99.2572450
  26.7488250  80.9036370  99.9905890  18.1775060  71.4189480 101.7439940
  17.9977900  70.5215230 102.0242700  17.7755140  71.9661350 102.4186890
  27.0173560  73.6205340  99.6452250  27.3938380  72.7477220  99.5325920
  26.9193070  73.9564040  98.7542690  21.1478570  71.9930970  95.1069690
  21.2545320  72.8934700  95.4138450  20.2370930  71.9448940  94.8164340
  30.7997680  71.1155780  96.5780590  31.6207300  70.6252350  96.6206070
  30.8331760  71.7053440  97.3312430  18.7961730  73.9149980 100.3522280
  19.4771840  74.1788350 100.9709680  18.4809780  73.0750850 100.6860290
  22.9886300  74.9617340  99.4394870  23.4964520  75.4598310 100.0799890
  23.5199540  74.1852540  99.2634230  27.6593490  79.7135210  95.2048190
  27.0410760  80.1784660  94.6410910  28.1716740  80.4062690  95.6217700
  22.5225250  79.2411080 101.8831790  22.1894630  79.8680000 102.5252860
  22.6991930  79.7672960 101.1033460  31.0359160  73.0556160  99.3508130
  30.3314730  73.3441050  99.9311240  31.3971320  73.8656270  98.9907690
  20.9537730  71.3125860 101.7128740  21.2954540  72.1567910 101.4182610
  20.0153540  71.4609600 101.8294080  17.0276690  80.3991740  92.5787820
  16.6504670  80.8878840  91.8472720  17.2849760  81.0717020  93.2094350
  32.6521940  82.6731290 101.6135610  31.9685460  83.3430400 101.6052280
  33.1916230  82.8711940 100.8480470  34.1046080  72.5010950  99.7417340
  33.1570990  72.5349930  99.8732770  34.4296070  73.3149900 100.1266700
  24.6365620  68.8008130  98.0373330  24.9440600  68.2455020  97.3208830
  23.7066320  68.9352590  97.8546320  30.1880680  84.5175420 100.3280790
  30.2007840  84.1137710  99.4603050  29.6355900  85.2922710 100.2242220
  31.4826100  81.2391640  95.4170960  31.3722430  80.2965970  95.5420380
  31.4794350  81.6007280  96.3033720  29.5866120  79.4205260 101.6563400
  30.0034910  79.2065370 100.8216860  30.3105940  79.6778050 102.2272020
  27.0246380  76.8656960  94.7733450  26.0975660  76.7994340  95.0021920
  27.1771200  77.8037090  94.6588690  27.0115460  73.1373960  91.7700610
  26.0719130  73.2987920  91.8553070  27.3298720  73.8559640  91.2236600
  33.5328220  77.8192480 101.7479640  32.7046850  77.8885570 101.2729770
  34.1278700  78.4046790 101.2795470  31.0543670  78.4277260  95.2768700
  30.4356090  78.0896810  94.6295000  31.0368120  77.7837020  95.9847890
  22.6303020  77.3921700  97.5553180  22.2260020  76.6798950  97.0599080
  22.7166140  77.0474940  98.4441220  23.0984720  81.0789260  99.7192390
  22.8013010  80.4734730  99.0400170  24.0484540  81.1166570  99.6081750
  21.3431640  74.1664910 101.3352220  21.8946230  74.2760250 100.5605470
  21.8575150  74.5402510 102.0507450  29.2308370  77.6664070  92.2841450
  29.6701650  76.8286500  92.1379270  29.9436790  78.2993470  92.3705590
  27.3403750  82.6060140  96.2522690  27.7799660  83.3484470  95.8378080
  27.2790640  82.8486710  97.1761650  32.8125510  68.9206880  90.5982490
  32.4998170  69.0133710  91.4981560  33.5737980  69.4987910  90.5479920
  19.3307650  76.2866680  95.0559830  19.2105250  77.0128770  94.4441100
  19.0208540  75.5169590  94.5787740  16.9693020  79.4581820 100.8628470
  17.0473440  79.5930590  99.9184190  17.5834700  78.7497710 101.0556590
  18.2140650  81.1582010  97.2734650  17.8068730  81.2996600  96.4188250
  19.1053660  80.8742170  97.0705860  30.0073930  85.5929260  93.6085700
  29.8475070  85.3032200  94.5067530  29.8420640  84.8169390  93.0730930
  22.4862310  85.3727790  95.3857320  22.3104790  84.4563330  95.1725120
  21.6318050  85.7315080  95.6255120  29.7100060  83.1016820  92.1683700
  29.0165220  83.0994110  91.5085980  30.4522920  82.6776140  91.7377870
  29.2749990  84.7279530  96.2432190  29.7306940  83.9468910  96.5570810
  29.6142510  85.4386350  96.7873370  21.7971310  69.6301750  98.4383500
  21.3539460  70.4111290  98.1068020  22.3556300  69.9531640  99.1454440
  24.9130130  69.2512450  93.3189330  24.2884310  69.2472320  94.0442640
  24.8260250  68.3843410  92.9225300  23.8347210  70.1749080 100.2973100
  24.1319540  71.0811910 100.2165120  24.3832770  69.6867860  99.6832670
  21.5885530  74.7535320  96.1664750  21.3626450  74.5372490  97.0711370
  20.8078060  75.1863780  95.8210720  28.8183290  74.7598690  94.7655400
  28.2192180  75.4834490  94.5819020  29.3662900  74.6975470  93.9831850
  27.4248160  73.3962230  96.7958680  27.8177730  73.7134430  95.9827370
  27.7865010  72.5174110  96.9103200  16.4612330  69.9863030  99.0188880
  16.1725380  70.5565890  99.7313860  17.2058090  69.5067480  99.3820110
  16.6482560  73.9283150  90.2291600  16.5657230  74.8713910  90.3706590
  16.2965620  73.7858060  89.3503950  28.0103300  75.9867980 100.8909460
  27.2784420  76.4954790 101.2399560  27.6127640  75.1697960 100.5898240
  24.4480690  72.6622180  99.2961950  24.4516750  72.2212130  98.4466490
  25.3431810  72.9839510  99.4033770  20.2983070  72.5448670  98.2556160
  19.9583120  73.0223900  99.0123210  19.5360390  72.0913790  97.8957260
  24.5100840  73.6634260  92.2868710  24.6313660  73.6220740  93.2354530
  24.1249350  74.5258410  92.1315440  28.4729210  71.4401660 100.3032400
  28.4901950  71.8910310 101.1474250  28.2244790  70.5407300 100.5165840
  23.5222340  75.9735400  91.6852010  22.9539240  75.5253650  91.0587920
  24.2311340  76.3328180  91.1517160  24.7488660  76.7223960 101.0427360
  25.1158790  76.2482530 101.7888700  24.5593720  77.5965530 101.3835700
  17.6129150  71.4667650  97.1720830  17.3276070  71.1023320  98.0099450
  17.5508010  70.7348110  96.5583970  21.0669820  79.9693590  93.9578420
  20.2932080  79.4291210  93.7977140  21.7964450  79.4500200  93.6196180
  31.8257800  78.9658950  99.7504810  32.5456920  79.4614240  99.3600920
  31.6239620  78.2876840  99.1058680  27.2867740  70.3596910  93.8934200
  26.4732350  69.8610080  93.8179510  27.0929690  71.1995160  93.4770550
  30.0016130  74.7316560  92.1896360  30.8895750  75.0433790  92.0147700
  29.9721220  73.8588810  91.7976940  21.1107220  79.6373970  97.5957230
  21.6285890  78.8342230  97.5414120  20.6591240  79.5753110  98.4374060
  25.9976720  80.9040250  92.8684530  26.3392420  81.6482480  92.3727850
  25.1689430  81.2171370  93.2309360  32.2730400  76.0428400  91.6576220
  32.1894120  76.4742620  90.8072660  32.9924590  76.5026750  92.0903040
  33.3017650  82.8970660  94.3858350  32.6593810  82.2426280  94.6602070
  32.9148310  83.3025750  93.6099020  28.8804130  80.2256090  98.2330040
  29.2327950  79.6284220  97.5731410  27.9966460  79.9000320  98.4038290
  24.9667410  80.9853780  95.6400450  25.6538540  81.5322990  96.0208040
  24.1799830  81.5294510  95.6750060  17.1059810  76.6026600  91.1317530
  17.9754660  76.8851400  91.4153450  16.6150130  77.4162470  91.0166340
  24.2694620  77.9899810  95.2525810  24.7257400  78.8005060  95.4786000
  23.9182830  77.6722950  96.0844300  20.1706400  68.3337460  95.7248330
  20.0421030  68.3255360  96.6733250  19.3468420  68.6720550  95.3739340
  27.8459310  81.5038500 101.1995560  28.4881540  80.8031660 101.3127730
  28.3708660  82.2836940 101.0192450  31.6915030  81.7887120  90.9234700
  31.4652610  81.0717560  91.5159340  31.3011230  81.5399560  90.0856450
  17.4731060  85.8153980  91.6979160  17.8328700  86.4143320  91.0436430
  17.3323400  86.3613870  92.4714190  31.2731280  79.7059060  92.5848860
  30.9852980  80.1671750  93.3726740  32.0683450  79.2456830  92.8533080
  23.4899680  83.1985180  92.5152830  23.4809780  83.9314870  91.8997340
  22.5698040  82.9516760  92.6079790  19.0906320  78.4200070  93.2599590
  18.4834270  79.1598970  93.2694890  19.5655670  78.5099430  92.4337790
  32.0301140  71.5407830  93.7444040  31.4014300  71.6453500  93.0302270
  31.5353060  71.7604610  94.5337920  26.4759280  83.2613420  91.1778020
  26.5771260  83.0577410  90.2480000  25.5761020  83.0071700  91.3825800
  23.9985170  73.8193780  95.1601920  23.2901320  74.2880120  95.6015530
  24.2829650  73.1615790  95.7947110  28.0300600  70.5444440  96.5997710
  27.9068380  70.5630570  95.6507220  28.9785160  70.5923380  96.7196110
  25.1177390  85.7799740  95.8725690  25.3718890  85.7421130  94.9505060
  24.1689870  85.6533070  95.8653940  22.2020190  72.1278860  92.5352630
  23.0510720  72.5649010  92.4692820  21.8351460  72.4399120  93.3624690
  31.1229970  76.6991620  97.4484200  30.1820110  76.7141850  97.6231890
  31.4374040  75.9127580  97.8944500  21.1011610  78.3811220  91.0088160
  21.8674880  78.2692580  91.5713590  21.1786300  77.6849190  90.3564930
  19.7958370  75.8136290  91.6921050  19.8761960  74.8663800  91.8038450
  20.6878120  76.1443170  91.7981710  33.1255550  83.8700470  99.1238460
  33.2502970  84.6931640  99.5962270  33.9921110  83.6591200  98.7762610
  20.5973080  85.9631680  98.7955590  21.3335560  85.4147140  99.0664160
  20.9814000  86.8287690  98.6561580  17.4818560  82.0305250  94.6697100
  16.5558340  82.2726390  94.6602510  17.9474990  82.8579510  94.5481850
  23.7075390  85.1361990  90.6181160  24.5004000  85.4250820  90.1662950
  23.1879740  84.7054160  89.9393640  32.7605560  84.3632120  92.0417900
  32.4747070  83.9497260  91.2272080  32.5625110  85.2919830  91.9218420
  24.2252790  80.3565400  90.4823510  24.1203430  79.7417750  91.2084890
  24.0577010  79.8331290  89.6986520  27.4655520  79.4185430  91.0865500
  26.9165620  79.8654730  91.7308240  28.0874780  78.9134680  91.6103170
  23.1330640  78.3776350  92.9830800  23.5547060  78.2116220  93.8262190
  23.2581480  77.5676580  92.4885940  25.6458280  77.4013960  90.2307900
  26.1663940  76.6862980  89.8649050  26.2926680  78.0399830  90.5308410
  22.0289540  74.4509580  89.9288960  21.8278600  73.5876940  90.2902300
  21.8581590  74.3642940  88.9910560  29.5077850  69.2617810  92.4575840
  29.7880140  68.4185710  92.8135260  28.7343580  69.4940920  92.9714590
  20.8272340  71.5510200  89.9166840  21.1298240  71.5577630  89.0085990
  21.5666930  71.2008060  90.4134500  24.0457270  70.4944820  90.9023040
  23.6979270  69.8168810  90.3225490  24.2470040  70.0334330  91.7166430
  26.2106310  85.4825570  92.5209640  27.1057100  85.8210540  92.5428400
  26.2423940  84.7604980  91.8933920  19.8502470  80.8552620  90.7496640
  20.2877340  81.3982290  91.4054220  20.3350200  80.0299570  90.7592980
  17.0648270  83.6441650  98.2016900  17.3951280  82.7762710  97.9695540
  17.4939270  83.8500170  99.0321860  21.6610190  81.9750660  95.8618870
  21.3605730  81.8515630  96.7622780  21.5547680  81.1159250  95.4534600
  17.5538480  84.5112240 100.9398530  17.1169470  84.6913040 101.7722680
  18.1216160  85.2686860 100.7980250  34.4302110  81.7547060  90.5645550
  33.5995070  81.8223710  91.0352780  34.6073940  82.6451180  90.2612410
  33.8858570  78.4994540  93.0679750  34.6477480  79.0691190  93.1739440
  33.9012940  77.9321740  93.8388060  17.3862910  77.0232470  97.2987410
  16.7311750  76.7544110  96.6547110  18.2240860  76.9136950  96.8489390
  34.8918540  79.3544640  97.9121680  35.2627370  78.5711960  97.5057650
  35.5320470  80.0433740  97.7338980  33.9377740  78.7928910  90.2252270
  34.2126580  79.7007790  90.0971490  33.7488480  78.7291440  91.1614260
  30.3353350  71.8173760  91.5205900  30.7538230  71.6304740  90.6802560
  30.0289410  70.9652810  91.8308830  33.8343080  76.7297900  95.2181700
  33.4586680  75.9625830  94.7862990  33.1046200  77.1120600  95.7056630
  18.4238840  77.4085040 101.8390750  18.7911880  77.3212440 102.7186770
  17.8549660  76.6451590 101.7397610  16.6000990  74.2331400  93.2412740
  15.6965070  74.4961600  93.0664400  17.0841610  74.5042570  92.4612700
  33.1094040  74.9555390  98.5188940  33.6331520  74.4618040  97.8879110
  33.6953460  75.0905750  99.2636510  33.2883760  75.0395260 102.0408490
  32.3386470  75.0058800 102.1553480  33.4696770  75.9495370 101.8058260
  19.1428200  73.2896940  91.1507120  19.8519900  72.8680160  90.6654400
  18.4268140  73.3572170  90.5190470  18.7902360  69.3436270  90.1909770
  19.5130490  69.8845210  90.5090990  19.0626880  69.0699690  89.3151310
  32.5994010  74.2128740  94.4581350  33.0953130  73.9799610  95.2430230
  32.4010080  73.3740580  94.0418990  18.4794550  68.5942460 100.0932390
  19.1270740  68.0439840  99.6527550  18.8996390  68.8485610 100.9148200
  34.0281170  72.8489690  96.9919030  33.9180450  72.6945730  97.9301300
  34.7888760  72.3210630  96.7494440  34.9171440  70.6797610  90.2325170
  35.8420750  70.5478790  90.0243460  34.8947230  70.7590430  91.1861620
  34.9909930  71.4508270  92.8581880  34.1961430  71.3853390  93.3874790
  35.1953210  72.3858910  92.8467230  31.9328350  85.4899820  96.8520270
  32.5287420  85.1684390  96.1754690  32.1906500  85.0171640  97.6433540
  23.5396950  83.4777320 102.6020620  23.2988310  83.7451880 101.7151140
  24.4799590  83.6483050 102.6571480  32.4840560  86.1395120 100.6818000
  32.0243530  86.8910930 100.3076020  31.8553020  85.4201590 100.6232800
  22.9136280  84.4483360  99.8566130  23.4301300  83.8370720  99.3314390
  23.5633660  84.9512140 100.3477140  25.6531780  85.3391850 100.6835110
  25.9409590  85.0846150  99.8068120  26.1655000  84.7869210 101.2740680
  26.8708790  69.0782050 101.2631620  26.0880580  69.5527550 101.5428380
  26.5771720  68.1736880 101.1544800  31.4229860  69.7805150  99.3080710
  31.8637950  69.7250250  98.4602310  31.1537450  70.6963160  99.3790890
  33.2868430  69.4120390  97.3189530  33.2256830  68.4681610  97.1720550
  34.0660460  69.5200480  97.8642990  17.5921180  85.5512750  96.2813480
  17.4243220  84.9183430  96.9795370  16.7255690  85.7572150  95.9307670
  18.2149200  69.3829530  93.7845340  18.9728560  69.4958410  93.2109370
  17.7526370  70.2198730  93.7388770  24.7563010  71.4968800  96.7747650
  23.9437520  71.1225690  96.4343530  25.2604650  70.7413880  97.0768840
  29.2587990  68.1611250  98.0130720  29.8617360  68.7331460  98.4879240
  28.5180980  68.7250690  97.7904620  32.4022590  68.5632810  93.2871000
  32.5973220  69.4616260  93.5538430  31.6152460  68.3319890  93.7803950
  19.1983880  84.2445980  93.7263620  18.6731500  84.6254010  93.0225580
  19.1228460  84.8696750  94.4473330  20.5874350  69.9093580  92.3247310
  21.1167110  69.1223380  92.1955260  21.2202670  70.5884770  92.5582840
  22.7812190  69.6468720  95.3792700  22.1514930  68.9456030  95.5462830
  22.2417330  70.4072850  95.1625860  33.9549200  85.8033520  95.0477560
  34.1301390  85.1171260  94.4038480  33.2570770  86.3280570  94.6554230
  21.7976850  86.1928360  92.6012870  22.5295670  85.9087640  92.0536760
  22.0570520  85.9541640  93.4912250  20.9591640  82.3093090  92.6059200
  20.3300520  82.7778190  93.1545030  21.0739470  81.4642310  93.0405390
  28.4141360  76.3598750  78.7560400  28.3335410  75.4453360  78.4852110
  28.0005780  76.8565820  78.0500110  26.5459400  78.1377770  80.6369670
  25.7701500  77.6578210  80.9268240  27.1972330  77.4583420  80.4625830
  20.5625230  78.4497580  81.5145430  19.7310110  78.1946290  81.9141940
  21.1706210  78.5208350  82.2503350  30.5666830  82.5437960  79.4168800
  30.1048360  81.7725200  79.7455970  31.3792380  82.5704030  79.9221250
  20.5426490  82.4837670  81.7103450  20.8454530  81.5935410  81.5313670
  21.2870080  83.0407890  81.4825700  18.9717180  73.4099470  75.2987820
  18.0833880  73.7515440  75.1967700  19.2558370  73.2099790  74.4068650
  16.9350190  76.0105120  81.1827520  17.5066300  75.2427320  81.1831160
  16.9351730  76.3093880  80.2734130  26.7930140  84.8295970  79.0372790
  26.1741580  85.2853470  78.4667230  27.6481920  84.9847430  78.6362490
  25.9868390  80.8134960  80.6439830  25.9176670  79.8724900  80.4828960
  26.7488250  80.9036370  81.2162400  18.1775060  71.4189480  82.9696450
  17.9977900  70.5215230  83.2499210  17.7755140  71.9661350  83.6443400
  27.0173560  73.6205340  80.8708760  27.3938380  72.7477220  80.7582430
  26.9193070  73.9564040  79.9799200  21.1478570  71.9930970  76.3326200
  21.2545320  72.8934700  76.6394960  20.2370930  71.9448940  76.0420850
  30.7997680  71.1155780  77.8037100  31.6207300  70.6252350  77.8462580
  30.8331760  71.7053440  78.5568940  18.7961730  73.9149980  81.5778790
  19.4771840  74.1788350  82.1966190  18.4809780  73.0750850  81.9116800
  22.9886300  74.9617340  80.6651380  23.4964520  75.4598310  81.3056400
  23.5199540  74.1852540  80.4890740  35.0897230  73.1322530  84.3680730
  34.3849400  73.5204240  83.8495840  35.3555150  73.8272820  84.9701660
  21.2722400  69.6015900  84.9314800  21.2740840  70.1188290  84.1260700
  20.4426710  69.1246080  84.9084730  27.6593490  79.7135210  76.4304700
  27.0410760  80.1784660  75.8667420  28.1716740  80.4062690  76.8474210
  22.5225250  79.2411080  83.1088300  22.1894630  79.8680000  83.7509370
  22.6991930  79.7672960  82.3289970  31.0359160  73.0556160  80.5764640
  30.3314730  73.3441050  81.1567750  31.3971320  73.8656270  80.2164200
  20.9537730  71.3125860  82.9385250  21.2954540  72.1567910  82.6439120
  20.0153540  71.4609600  83.0550590  21.7344350  81.2091880  84.9237480
  22.3518350  81.8842960  84.6421930  20.8737470  81.6179860  84.8324980
  17.0276690  80.3991740  73.8044330  16.6504670  80.8878840  73.0729230
  17.2849760  81.0717020  74.4350860  32.6521940  82.6731290  82.8392120
  31.9685460  83.3430400  82.8308790  33.1916230  82.8711940  82.0736980
  34.1046080  72.5010950  80.9673850  33.1570990  72.5349930  81.0989280
  34.4296070  73.3149900  81.3523210  24.6365620  68.8008130  79.2629840
  24.9440600  68.2455020  78.5465340  23.7066320  68.9352590  79.0802830
  30.1880680  84.5175420  81.5537300  30.2007840  84.1137710  80.6859560
  29.6355900  85.2922710  81.4498730  31.4826100  81.2391640  76.6427470
  31.3722430  80.2965970  76.7676890  31.4794350  81.6007280  77.5290230
  29.5866120  79.4205260  82.8819910  30.0034910  79.2065370  82.0473370
  30.3105940  79.6778050  83.4528530  27.0246380  76.8656960  75.9989960
  26.0975660  76.7994340  76.2278430  27.1771200  77.8037090  75.8845200
  27.0115460  73.1373960  72.9957120  26.0719130  73.2987920  73.0809580
  27.3298720  73.8559640  72.4493110  33.5328220  77.8192480  82.9736150
  32.7046850  77.8885570  82.4986280  34.1278700  78.4046790  82.5051980
  31.0543670  78.4277260  76.5025210  30.4356090  78.0896810  75.8551510
  31.0368120  77.7837020  77.2104400  30.4970230  74.6061800  83.9191020
  30.0841410  75.4315510  84.1731010  29.7646180  74.0206840  83.7267380
  22.6303020  77.3921700  78.7809690  22.2260020  76.6798950  78.2855590
  22.7166140  77.0474940  79.6697730  23.0984720  81.0789260  80.9448900
  22.8013010  80.4734730  80.2656680  24.0484540  81.1166570  80.8338260
  21.3431640  74.1664910  82.5608730  21.8946230  74.2760250  81.7861980
  21.8575150  74.5402510  83.2763960  31.1870330  84.6521130  84.6072000
  30.7100890  85.4593320  84.4144610  30.5032120  83.9999460  84.7598210
  22.1903150  80.8170950  87.5956700  21.2931680  81.0410920  87.8430100
  22.2156020  80.9405890  86.6468100  29.2308370  77.6664070  73.5097960
  29.6701650  76.8286500  73.3635780  29.9436790  78.2993470  73.5962100
  21.0174370  77.6884270  86.1714070  20.8782140  78.5607070  86.5401470
  20.1355730  77.3457080  86.0262010  27.3403750  82.6060140  77.4779200
  27.7799660  83.3484470  77.0634590  27.2790640  82.8486710  78.4018160
  22.8154720  83.6305970  88.3799220  22.7870150  84.0348920  87.5127650
  22.6519690  82.7016330  88.2170820  32.8125510  68.9206880  71.8239000
  32.4998170  69.0133710  72.7238070  33.5737980  69.4987910  71.7736430
  19.3307650  76.2866680  76.2816340  19.2105250  77.0128770  75.6697610
  19.0208540  75.5169590  75.8044250  34.7669540  84.4133070  89.6763390
  35.2429260  84.8915960  90.3552470  35.3876700  84.3450560  88.9508890
  16.9693020  79.4581820  82.0884980  17.0473440  79.5930590  81.1440700
  17.5834700  78.7497710  82.2813100  18.2140650  81.1582010  78.4991160
  17.8068730  81.2996600  77.6444760  19.1053660  80.8742170  78.2962370
  34.1702790  81.6045920  86.8363400  34.2965850  81.3657800  85.9180580
  34.2124170  80.7730460  87.3085480  30.0073930  85.5929260  74.8342210
  29.8475070  85.3032200  75.7324040  29.8420640  84.8169390  74.2987440
  22.4862310  85.3727790  76.6113830  22.3104790  84.4563330  76.3981630
  21.6318050  85.7315080  76.8511630  29.7100060  83.1016820  73.3940210
  29.0165220  83.0994110  72.7342490  30.4522920  82.6776140  72.9634380
  29.2749990  84.7279530  77.4688700  29.7306940  83.9468910  77.7827320
  29.6142510  85.4386350  78.0129880  34.0226800  73.6578380  87.8013140
  33.4071070  74.1658050  87.2728600  33.7023220  72.7576710  87.7439080
  17.0252540  80.4995990  84.6279440  17.1883580  80.0301350  83.8098810
  17.4904990  79.9919550  85.2928280  21.7971310  69.6301750  79.6640010
  21.3539460  70.4111290  79.3324530  22.3556300  69.9531640  80.3710950
  26.0841120  72.4970270  85.2675330  25.6220490  72.7053290  86.0795270
  25.6819230  71.6829620  84.9646000  31.0845630  73.7179220  86.3971990
  30.2339220  73.4184970  86.7181060  30.9247420  73.9621230  85.4855810
  28.1795340  75.2180970  88.4970780  28.5048750  74.3844720  88.1573010
  28.9675670  75.7409490  88.6449110  24.9130130  69.2512450  74.5445840
  24.2884310  69.2472320  75.2699150  24.8260250  68.3843410  74.1481810
  23.8347210  70.1749080  81.5229610  24.1319540  71.0811910  81.4421630
  24.3832770  69.6867860  80.9089180  21.5885530  74.7535320  77.3921260
  21.3626450  74.5372490  78.2967880  20.8078060  75.1863780  77.0467230
  28.8183290  74.7598690  75.9911910  28.2192180  75.4834490  75.8075530
  29.3662900  74.6975470  75.2088360  24.0284740  75.6520900  88.0581530
  23.9328340  74.7115630  87.9081930  24.8716720  75.8735970  87.6629600
  27.4248160  73.3962230  78.0215190  27.8177730  73.7134430  77.2083880
  27.7865010  72.5174110  78.1359710  19.1595280  72.0634570  86.2115310
  18.7658670  72.9109780  86.4188090  18.4713680  71.4260940  86.4023950
  25.7340330  72.1469540  89.2812050  25.0438650  71.9541740  89.9158140
  26.4772630  72.4304180  89.8136350  16.4612330  69.9863030  80.2445390
  16.1725380  70.5565890  80.9570370  17.2058090  69.5067480  80.6076620
  16.6482560  73.9283150  71.4548110  16.5657230  74.8713910  71.5963100
  16.2965620  73.7858060  70.5760460  28.0103300  75.9867980  82.1165970
  27.2784420  76.4954790  82.4656070  27.6127640  75.1697960  81.8154750
  24.4480690  72.6622180  80.5218460  24.4516750  72.2212130  79.6723000
  25.3431810  72.9839510  80.6290280  20.2983070  72.5448670  79.4812670
  19.9583120  73.0223900  80.2379720  19.5360390  72.0913790  79.1213770
  24.5100840  73.6634260  73.5125220  24.6313660  73.6220740  74.4611040
  24.1249350  74.5258410  73.3571950  28.4729210  71.4401660  81.5288910
  28.4901950  71.8910310  82.3730760  28.2244790  70.5407300  81.7422350
  23.5222340  75.9735400  72.9108520  22.9539240  75.5253650  72.2844430
  24.2311340  76.3328180  72.3773670  31.8999960  68.8533840  87.3675290
  32.2245730  68.1223500  87.8933270  31.9356470  68.5347480  86.4656280
  18.5991520  79.8747420  86.7875250  18.2146310  79.2341090  87.3858210
  18.9103710  80.5783540  87.3569980  24.7488660  76.7223960  82.2683870
  25.1158790  76.2482530  83.0145210  24.5593720  77.5965530  82.6092210
  17.6129150  71.4667650  78.3977340  17.3276070  71.1023320  79.2355960
  17.5508010  70.7348110  77.7840480  22.5388030  75.7632600  84.5868080
  22.2345100  76.6424580  84.8118440  23.4934490  75.8232390  84.6225520
  21.0669820  79.9693590  75.1834930  20.2932080  79.4291210  75.0233650
  21.7964450  79.4500200  74.8452690  31.8257800  78.9658950  80.9761320
  32.5456920  79.4614240  80.5857430  31.6239620  78.2876840  80.3315190
  27.2867740  70.3596910  75.1190710  26.4732350  69.8610080  75.0436020
  27.0929690  71.1995160  74.7027060  27.2076600  79.0368010  86.8630320
  27.1413910  78.1163680  86.6087910  26.5781740  79.1343450  87.5774960
  30.0016130  74.7316560  73.4152870  30.8895750  75.0433790  73.2404210
  29.9721220  73.8588810  73.0233450  21.1107220  79.6373970  78.8213740
  21.6285890  78.8342230  78.7670630  20.6591240  79.5753110  79.6630570
  25.9976720  80.9040250  74.0941040  26.3392420  81.6482480  73.5984360
  25.1689430  81.2171370  74.4565870  18.5951760  76.6035340  85.7339440
  18.2366700  77.2689190  86.3212780  18.3006320  75.7718890  86.1052060
  21.7964880  77.0619580  88.6178990  21.4965020  77.2076760  87.7206810
  22.5676120  76.5024870  88.5252380  27.1393330  81.8588580  86.6134120
  27.1537870  80.9269540  86.3953030  26.4318430  81.9448340  87.2523890
  32.2730400  76.0428400  72.8832730  32.1894120  76.4742620  72.0329170
  32.9924590  76.5026750  73.3159550  33.3504540  78.4995920  85.9602700
  32.6252730  79.0924700  85.7632090  33.8780000  78.4919460  85.1616070
  33.3017650  82.8970660  75.6114860  32.6593810  82.2426280  75.8858580
  32.9148310  83.3025750  74.8355530  28.8804130  80.2256090  79.4586550
  29.2327950  79.6284220  78.7987920  27.9966460  79.9000320  79.6294800
  24.9667410  80.9853780  76.8656960  25.6538540  81.5322990  77.2464550
  24.1799830  81.5294510  76.9006570  17.1059810  76.6026600  72.3574040
  17.9754660  76.8851400  72.6409960  16.6150130  77.4162470  72.2422850
  24.2694620  77.9899810  76.4782320  24.7257400  78.8005060  76.7042510
  23.9182830  77.6722950  77.3100810  26.5727230  83.5006150  83.7074620
  27.2169450  83.7065530  84.3848040  26.9356670  82.7394550  83.2545470
  20.1706400  68.3337460  76.9504840  20.0421030  68.3255360  77.8989760
  19.3468420  68.6720550  76.5995850  27.8459310  81.5038500  82.4252070
  28.4881540  80.8031660  82.5384240  28.3708660  82.2836940  82.2448960
  31.6915030  81.7887120  72.1491210  31.4652610  81.0717560  72.7415850
  31.3011230  81.5399560  71.3112960  29.6196930  82.3033400  85.6288130
  29.9553170  82.8900090  86.3066050  28.6997270  82.1726110  85.8585920
  17.4731060  85.8153980  72.9235670  17.8328700  86.4143320  72.2692940
  17.3323400  86.3613870  73.6970700  17.1700330  70.0928580  86.4111540
  16.4558850  70.2925500  87.0164150  17.5895370  69.3168150  86.7826340
  31.2731280  79.7059060  73.8105370  30.9852980  80.1671750  74.5983250
  32.0683450  79.2456830  74.0789590  17.4572920  84.0808840  87.3978070
  17.5664040  83.1403580  87.2573460  16.8053480  84.3463590  86.7491800
  25.4485510  82.3524730  88.7976190  25.1282380  81.6333970  89.3421880
  24.7743870  83.0279800  88.8712250  23.4899680  83.1985180  73.7409340
  23.4809780  83.9314870  73.1253850  22.5698040  82.9516760  73.8336300
  19.0906320  78.4200070  74.4856100  18.4834270  79.1598970  74.4951400
  19.5655670  78.5099430  73.6594300  28.6639110  72.5850890  84.1612990
  29.0319930  71.7646100  84.4892560  27.8037310  72.6452780  84.5768640
  32.0301140  71.5407830  74.9700550  31.4014300  71.6453500  74.2558780
  31.5353060  71.7604610  75.7594430  26.4759280  83.2613420  72.4034530
  26.5771260  83.0577410  71.4736510  25.5761020  83.0071700  72.6082310
  23.9985170  73.8193780  76.3858430  23.2901320  74.2880120  76.8272040
  24.2829650  73.1615790  77.0203620  25.6241100  75.2390480  84.3850960
  26.1226350  75.7136300  85.0502810  25.7664050  74.3154000  84.5920990
  28.0300600  70.5444440  77.8254220  27.9068380  70.5630570  76.8763730
  28.9785160  70.5923380  77.9452620  25.1177390  85.7799740  77.0982200
  25.3718890  85.7421130  76.1761570  24.1689870  85.6533070  77.0910450
  22.2020190  72.1278860  73.7609140  23.0510720  72.5649010  73.6949330
  21.8351460  72.4399120  74.5881200  32.8307960  71.4558440  85.2279350
  32.3281560  72.1963840  85.5673160  33.6464620  71.8442440  84.9116140
  31.1229970  76.6991620  78.6740710  30.1820110  76.7141850  78.8488400
  31.4374040  75.9127580  79.1201010  21.1011610  78.3811220  72.2344670
  21.8674880  78.2692580  72.7970100  21.1786300  77.6849190  71.5821440
  19.7958370  75.8136290  72.9177560  19.8761960  74.8663800  73.0294960
  20.6878120  76.1443170  73.0238220  33.1255550  83.8700470  80.3494970
  33.2502970  84.6931640  80.8218780  33.9921110  83.6591200  80.0019120
  20.5973080  85.9631680  80.0212100  21.3335560  85.4147140  80.2920670
  20.9814000  86.8287690  79.8818090  17.4818560  82.0305250  75.8953610
  16.5558340  82.2726390  75.8859020  17.9474990  82.8579510  75.7738360
  19.6031360  85.1477750  89.2097680  20.4044090  85.4689800  89.6233080
  19.0883180  84.7873330  89.9317590  23.7075390  85.1361990  71.8437670
  24.5004000  85.4250820  71.3919460  23.1879740  84.7054160  71.1650150
  28.4395990  81.2557620  89.1573090  27.8334150  81.2789220  88.4168840
  28.1350100  80.5240660  89.6940340  29.8696360  84.9837910  87.7682500
  30.8218110  84.8995930  87.7182740  29.7224580  85.6479620  88.4416290
  32.7605560  84.3632120  73.2674410  32.4747070  83.9497260  72.4528590
  32.5625110  85.2919830  73.1474930  17.3229170  77.6351210  88.1533730
  17.8268190  77.0558490  88.7249960  16.5836590  77.9191440  88.6910100
  24.2252790  80.3565400  71.7080020  24.1203430  79.7417750  72.4341400
  24.0577010  79.8331290  70.9243030  24.3767110  79.0422200  87.6869250
  23.6112780  79.6107200  87.6023920  24.5583070  78.7498410  86.7937480
  27.4655520  79.4185430  72.3122010  26.9165620  79.8654730  72.9564750
  28.0874780  78.9134680  72.8359680  31.5190460  80.7727530  88.2444270
  32.2599930  81.1103290  87.7411730  30.7563140  80.9419590  87.6914040
  19.3552250  75.7780800  89.0483800  19.3957590  75.4794670  89.9569030
  20.2097750  76.1788410  88.8891320  23.1330640  78.3776350  74.2087310
  23.5547060  78.2116220  75.0518700  23.2581480  77.5676580  73.7142450
  21.2958060  74.3572900  87.0158290  20.7654520  73.8663850  86.3881630
  21.9646130  74.7857100  86.4816220  25.6458280  77.4013960  71.4564410
  26.1663940  76.6862980  71.0905560  26.2926680  78.0399830  71.7564920
  30.1936120  78.8242360  86.7799480  30.6077140  78.9787440  87.6289900
  29.2587120  78.9497580  86.9425260  30.6658290  76.1638520  88.7838630
  31.2479060  75.4090840  88.6959110  30.8420060  76.6945960  88.0070110
  21.7830360  71.3235270  87.0955580  21.6887230  70.7056020  86.3706450
  21.2027750  72.0501560  86.8685490  24.5491800  69.8808510  84.1282970
  24.1009100  69.9032770  83.2828520  23.9157000  69.4827530  84.7253270
  24.9551350  78.7762840  84.7495410  25.3739460  79.6195570  84.5771650
  24.0359980  78.9134880  84.5202190  27.2915250  76.5079020  86.1333250
  27.4111460  75.9120160  86.8728090  28.1509250  76.5448710  85.7134550
  29.6303150  77.0616210  84.7095760  29.1038370  77.5858830  84.1060900
  29.9734490  77.6943600  85.3405490  22.0289540  74.4509580  71.1545470
  21.8278600  73.5876940  71.5158810  21.8581590  74.3642940  70.2167070
  22.8058770  85.0815850  85.8653140  22.2679860  85.8061910  85.5461840
  23.0592730  84.6046190  85.0750480  24.0584020  73.0500370  87.3909070
  24.6483710  72.7416220  88.0786890  23.2404260  72.5780120  87.5468970
  28.8777450  72.6666180  87.6242090  28.1892970  72.0047720  87.5592080
  29.5983470  72.2204450  88.0690550  29.5077850  69.2617810  73.6832350
  29.7880140  68.4185710  74.0391770  28.7343580  69.4940920  74.1971100
  20.8272340  71.5510200  71.1423350  21.1298240  71.5577630  70.2342500
  21.5666930  71.2008060  71.6391010  24.0457270  70.4944820  72.1279550
  23.6979270  69.8168810  71.5482000  24.2470040  70.0334330  72.9422940
  26.2106310  85.4825570  73.7466150  27.1057100  85.8210540  73.7684910
  26.2423940  84.7604980  73.1190430  19.8502470  80.8552620  71.9753150
  20.2877340  81.3982290  72.6310730  20.3350200  80.0299570  71.9849490
  17.0648270  83.6441650  79.4273410  17.3951280  82.7762710  79.1952050
  17.4939270  83.8500170  80.2578370  21.6610190  81.9750660  77.0875380
  21.3605730  81.8515630  77.9879290  21.5547680  81.1159250  76.6791110
  17.5538480  84.5112240  82.1655040  17.1169470  84.6913040  82.9979190
  18.1216160  85.2686860  82.0236760  33.1900660  84.0129240  86.4532350
  32.5902650  84.0721800  85.7096270  33.3194560  83.0734220  86.5829200
  34.4302110  81.7547060  71.7902060  33.5995070  81.8223710  72.2609290
  34.6073940  82.6451180  71.4868920  33.8858570  78.4994540  74.2936260
  34.6477480  79.0691190  74.3995950  33.9012940  77.9321740  75.0644570
  17.3862910  77.0232470  78.5243920  16.7311750  76.7544110  77.8803620
  18.2240860  76.9136950  78.0745900  34.8918540  79.3544640  79.1378190
  35.2627370  78.5711960  78.7314160  35.5320470  80.0433740  78.9595490
  31.8752300  80.7381220  84.5508510  31.0612140  81.1678380  84.8134300
  32.2826500  81.3499630  83.9377560  33.9377740  78.7928910  71.4508780
  34.2126580  79.7007790  71.3228000  33.7488480  78.7291440  72.3870770
  30.3353350  71.8173760  72.7462410  30.7538230  71.6304740  71.9059070
  30.0289410  70.9652810  73.0565340  33.8343080  76.7297900  76.4438210
  33.4586680  75.9625830  76.0119500  33.1046200  77.1120600  76.9313140
  18.4238840  77.4085040  83.0647260  18.7911880  77.3212440  83.9443280
  17.8549660  76.6451590  82.9654120  33.2242700  75.8769420  86.0777730
  32.9928790  75.6482170  85.1775680  33.4847250  76.7968970  86.0322620
  17.9754840  74.3194130  86.9705680  17.0810890  74.2860890  87.3099390
  18.5152390  74.5180920  87.7356930  31.6630770  71.1025850  88.8557430
  32.5400950  71.1109250  89.2391430  31.6751610  70.3656690  88.2449780
  16.6000990  74.2331400  74.4669250  15.6965070  74.4961600  74.2920910
  17.0841610  74.5042570  73.6869210  33.1094040  74.9555390  79.7445450
  33.6331520  74.4618040  79.1135620  33.6953460  75.0905750  80.4893020
  33.2883760  75.0395260  83.2665000  32.3386470  75.0058800  83.3809990
  33.4696770  75.9495370  83.0314770  19.1428200  73.2896940  72.3763630
  19.8519900  72.8680160  71.8910910  18.4268140  73.3572170  71.7446980
  18.7902360  69.3436270  71.4166280  19.5130490  69.8845210  71.7347500
  19.0626880  69.0699690  70.5407820  32.5994010  74.2128740  75.6837860
  33.0953130  73.9799610  76.4686740  32.4010080  73.3740580  75.2675500
  18.4794550  68.5942460  81.3188900  19.1270740  68.0439840  80.8784060
  18.8996390  68.8485610  82.1404710  34.0281170  72.8489690  78.2175540
  33.9180450  72.6945730  79.1557810  34.7888760  72.3210630  77.9750950
  32.3746890  68.7883820  84.6758540  33.0119110  69.4017960  85.0417730
  32.5221780  68.8244480  83.7307770  34.9171440  70.6797610  71.4581680
  35.8420750  70.5478790  71.2499970  34.8947230  70.7590430  72.4118130
  34.9909930  71.4508270  74.0838390  34.1961430  71.3853390  74.6131300
  35.1953210  72.3858910  74.0723740  31.9328350  85.4899820  78.0776780
  32.5287420  85.1684390  77.4011200  32.1906500  85.0171640  78.8690050
  18.2326550  68.7498130  84.0614220  17.8841370  69.2061950  84.8272400
  17.9014250  67.8555260  84.1436650  19.8390920  81.9217730  88.2267410
  19.7960550  81.5510640  89.1081870  19.9701930  82.8595300  88.3669230
  23.5396950  83.4777320  83.8277130  23.2988310  83.7451880  82.9407650
  24.4799590  83.6483050  83.8827990  25.7451370  69.9410010  87.5833640
  25.6840260  70.5331840  88.3329050  26.6851750  69.8335970  87.4383900
  28.3825930  69.5980070  87.2225930  28.9966340  69.9159360  86.5607010
  28.9275490  69.1128660  87.8421790  34.8001110  85.4971700  84.6287770
  34.3059390  85.8940570  83.9114900  34.1914400  84.8720910  85.0225050
  18.9047190  68.2774330  87.3364990  19.4530180  68.0962380  86.5731100
  18.9702500  67.4868440  87.8721300  19.6778950  84.8679980  85.3465190
  19.0839270  84.7364680  86.0855230  19.6702790  84.0318120  84.8807290
  29.1233970  68.1612210  83.5495220  28.2493810  68.4947320  83.3468150
  29.0144720  67.6885390  84.3747090  30.0305950  70.3683080  84.9336940
  29.7019310  69.5534840  84.5538670  30.9788250  70.3252890  84.8102630
  32.4840560  86.1395120  81.9074510  32.0243530  86.8910930  81.5332530
  31.8553020  85.4201590  81.8489310  19.3091180  82.2338360  84.2973230
  18.5825240  81.6143650  84.2299180  19.3700330  82.6278970  83.4271310
  22.9136280  84.4483360  81.0822640  23.4301300  83.8370720  80.5570900
  23.5633660  84.9512140  81.5733650  26.8708790  69.0782050  82.4888130
  26.0880580  69.5527550  82.7684890  26.5771720  68.1736880  82.3801310
  31.4229860  69.7805150  80.5337220  31.8637950  69.7250250  79.6858820
  31.1537450  70.6963160  80.6047400  33.2868430  69.4120390  78.5446040
  33.2256830  68.4681610  78.3977060  34.0660460  69.5200480  79.0899500
  17.5921180  85.5512750  77.5069990  17.4243220  84.9183430  78.2051880
  16.7255690  85.7572150  77.1564180  18.2149200  69.3829530  75.0101850
  18.9728560  69.4958410  74.4365880  17.7526370  70.2198730  74.9645280
  24.7563010  71.4968800  78.0004160  23.9437520  71.1225690  77.6600040
  25.2604650  70.7413880  78.3025350  29.2587990  68.1611250  79.2387230
  29.8617360  68.7331460  79.7135750  28.5180980  68.7250690  79.0161130
  32.4022590  68.5632810  74.5127510  32.5973220  69.4616260  74.7794940
  31.6152460  68.3319890  75.0060460  19.1983880  84.2445980  74.9520130
  18.6731500  84.6254010  74.2482090  19.1228460  84.8696750  75.6729840
  20.5874350  69.9093580  73.5503820  21.1167110  69.1223380  73.4211770
  21.2202670  70.5884770  73.7839350  22.7812190  69.6468720  76.6049210
  22.1514930  68.9456030  76.7719340  22.2417330  70.4072850  76.3882370
  25.7204140  86.2607950  89.2759820  26.6471450  86.0252220  89.3195780
  25.7054570  87.0879950  88.7945850  33.9549200  85.8033520  76.2734070
  34.1301390  85.1171260  75.6294990  33.2570770  86.3280570  75.8810740
  22.9067750  68.9252700  89.0401700  22.6252020  69.4286300  88.2762520
  23.2887450  68.1274450  88.6743830  21.7976850  86.1928360  73.8269380
  22.5295670  85.9087640  73.2793270  22.0570520  85.9541640  74.7168760
  20.9591640  82.3093090  73.8315710  20.3300520  82.7778190  74.3801540
  21.0739470  81.4642310  74.2661900  29.5083210  68.3406280  89.6182170
  29.3948660  68.6600890  90.5133690  30.3252950  68.7418790  89.3219450
  32.2881700  85.4877810  89.1000860  33.0807020  84.9927040  88.8926820
  32.5814850  86.1667950  89.7076470  28.4141360  76.3598750  59.9816910
  28.3335410  75.4453360  59.7108620  28.0005780  76.8565820  59.2756620
  26.5459400  78.1377770  61.8626180  25.7701500  77.6578210  62.1524750
  27.1972330  77.4583420  61.6882340  20.5625230  78.4497580  62.7401940
  19.7310110  78.1946290  63.1398450  21.1706210  78.5208350  63.4759860
  30.5666830  82.5437960  60.6425310  30.1048360  81.7725200  60.9712480
  31.3792380  82.5704030  61.1477760  20.5426490  82.4837670  62.9359960
  20.8454530  81.5935410  62.7570180  21.2870080  83.0407890  62.7082210
  18.9717180  73.4099470  56.5244330  18.0833880  73.7515440  56.4224210
  19.2558370  73.2099790  55.6325160  16.9350190  76.0105120  62.4084030
  17.5066300  75.2427320  62.4087670  16.9351730  76.3093880  61.4990640
  26.7930140  84.8295970  60.2629300  26.1741580  85.2853470  59.6923740
  27.6481920  84.9847430  59.8619000  25.9868390  80.8134960  61.8696340
  25.9176670  79.8724900  61.7085470  26.7488250  80.9036370  62.4418910
  18.1775060  71.4189480  64.1952960  17.9977900  70.5215230  64.4755720
  17.7755140  71.9661350  64.8699910  27.0173560  73.6205340  62.0965270
  27.3938380  72.7477220  61.9838940  26.9193070  73.9564040  61.2055710
  21.1478570  71.9930970  57.5582710  21.2545320  72.8934700  57.8651470
  20.2370930  71.9448940  57.2677360  30.7997680  71.1155780  59.0293610
  31.6207300  70.6252350  59.0719090  30.8331760  71.7053440  59.7825450
  18.7961730  73.9149980  62.8035300  19.4771840  74.1788350  63.4222700
  18.4809780  73.0750850  63.1373310  22.9886300  74.9617340  61.8907890
  23.4964520  75.4598310  62.5312910  23.5199540  74.1852540  61.7147250
  35.0897230  73.1322530  65.5937240  34.3849400  73.5204240  65.0752350
  35.3555150  73.8272820  66.1958170  21.2722400  69.6015900  66.1571310
  21.2740840  70.1188290  65.3517210  20.4426710  69.1246080  66.1341240
  27.6593490  79.7135210  57.6561210  27.0410760  80.1784660  57.0923930
  28.1716740  80.4062690  58.0730720  22.5225250  79.2411080  64.3344810
  22.1894630  79.8680000  64.9765880  22.6991930  79.7672960  63.5546480
  31.0359160  73.0556160  61.8021150  30.3314730  73.3441050  62.3824260
  31.3971320  73.8656270  61.4420710  20.9537730  71.3125860  64.1641760
  21.2954540  72.1567910  63.8695630  20.0153540  71.4609600  64.2807100
  21.7344350  81.2091880  66.1493990  22.3518350  81.8842960  65.8678440
  20.8737470  81.6179860  66.0581490  17.0276690  80.3991740  55.0300840
  16.6504670  80.8878840  54.2985740  17.2849760  81.0717020  55.6607370
  32.6521940  82.6731290  64.0648630  31.9685460  83.3430400  64.0565300
  33.1916230  82.8711940  63.2993490  34.1046080  72.5010950  62.1930360
  33.1570990  72.5349930  62.3245790  34.4296070  73.3149900  62.5779720
  24.6365620  68.8008130  60.4886350  24.9440600  68.2455020  59.7721850
  23.7066320  68.9352590  60.3059340  30.1880680  84.5175420  62.7793810
  30.2007840  84.1137710  61.9116070  29.6355900  85.2922710  62.6755240
  31.4826100  81.2391640  57.8683980  31.3722430  80.2965970  57.9933400
  31.4794350  81.6007280  58.7546740  29.5866120  79.4205260  64.1076420
  30.0034910  79.2065370  63.2729880  30.3105940  79.6778050  64.6785040
  27.0246380  76.8656960  57.2246470  26.0975660  76.7994340  57.4534940
  27.1771200  77.8037090  57.1101710  33.5328220  77.8192480  64.1992660
  32.7046850  77.8885570  63.7242790  34.1278700  78.4046790  63.7308490
  31.0543670  78.4277260  57.7281720  30.4356090  78.0896810  57.0808020
  31.0368120  77.7837020  58.4360910  30.4970230  74.6061800  65.1447530
  30.0841410  75.4315510  65.3987520  29.7646180  74.0206840  64.9523890
  22.6303020  77.3921700  60.0066200  22.2260020  76.6798950  59.5112100
  22.7166140  77.0474940  60.8954240  23.0984720  81.0789260  62.1705410
  22.8013010  80.4734730  61.4913190  24.0484540  81.1166570  62.0594770
  21.3431640  74.1664910  63.7865240  21.8946230  74.2760250  63.0118490
  21.8575150  74.5402510  64.5020470  31.1870330  84.6521130  65.8328510
  30.7100890  85.4593320  65.6401120  30.5032120  83.9999460  65.9854720
  22.1903150  80.8170950  68.8213210  21.2931680  81.0410920  69.0686610
  22.2156020  80.9405890  67.8724610  29.2308370  77.6664070  54.7354470
  29.6701650  76.8286500  54.5892290  29.9436790  78.2993470  54.8218610
  21.0174370  77.6884270  67.3970580  20.8782140  78.5607070  67.7657980
  20.1355730  77.3457080  67.2518520  27.3403750  82.6060140  58.7035710
  27.7799660  83.3484470  58.2891100  27.2790640  82.8486710  59.6274670
  22.8154720  83.6305970  69.6055730  22.7870150  84.0348920  68.7384160
  22.6519690  82.7016330  69.4427330  19.3307650  76.2866680  57.5072850
  19.2105250  77.0128770  56.8954120  19.0208540  75.5169590  57.0300760
  34.7669540  84.4133070  70.9019900  35.2429260  84.8915960  71.5808980
  35.3876700  84.3450560  70.1765400  16.9693020  79.4581820  63.3141490
  17.0473440  79.5930590  62.3697210  17.5834700  78.7497710  63.5069610
  18.2140650  81.1582010  59.7247670  17.8068730  81.2996600  58.8701270
  19.1053660  80.8742170  59.5218880  34.1702790  81.6045920  68.0619910
  34.2965850  81.3657800  67.1437090  34.2124170  80.7730460  68.5341990
  28.0319530  85.3073920  66.6314720  28.5464200  85.2181930  67.4337150
  27.1888610  85.6533620  66.9242630  30.0073930  85.5929260  56.0598720
  29.8475070  85.3032200  56.9580550  29.8420640  84.8169390  55.5243950
  22.4862310  85.3727790  57.8370340  22.3104790  84.4563330  57.6238140
  21.6318050  85.7315080  58.0768140  29.7100060  83.1016820  54.6196720
  29.0165220  83.0994110  53.9599000  30.4522920  82.6776140  54.1890890
  29.2749990  84.7279530  58.6945210  29.7306940  83.9468910  59.0083830
  29.6142510  85.4386350  59.2386390  34.0226800  73.6578380  69.0269650
  33.4071070  74.1658050  68.4985110  33.7023220  72.7576710  68.9695590
  17.0252540  80.4995990  65.8535950  17.1883580  80.0301350  65.0355320
  17.4904990  79.9919550  66.5184790  21.7971310  69.6301750  60.8896520
  21.3539460  70.4111290  60.5581040  22.3556300  69.9531640  61.5967460
  26.0841120  72.4970270  66.4931840  25.6220490  72.7053290  67.3051780
  25.6819230  71.6829620  66.1902510  31.0845630  73.7179220  67.6228500
  30.2339220  73.4184970  67.9437570  30.9247420  73.9621230  66.7112320
  28.1795340  75.2180970  69.7227290  28.5048750  74.3844720  69.3829520
  28.9675670  75.7409490  69.8705620  23.8347210  70.1749080  62.7486120
  24.1319540  71.0811910  62.6678140  24.3832770  69.6867860  62.1345690
  21.5885530  74.7535320  58.6177770  21.3626450  74.5372490  59.5224390
  20.8078060  75.1863780  58.2723740  28.8183290  74.7598690  57.2168420
  28.2192180  75.4834490  57.0332040  29.3662900  74.6975470  56.4344870
  24.0284740  75.6520900  69.2838040  23.9328340  74.7115630  69.1338440
  24.8716720  75.8735970  68.8886110  27.4248160  73.3962230  59.2471700
  27.8177730  73.7134430  58.4340390  27.7865010  72.5174110  59.3616220
  19.1595280  72.0634570  67.4371820  18.7658670  72.9109780  67.6444600
  18.4713680  71.4260940  67.6280460  25.7340330  72.1469540  70.5068560
  25.0438650  71.9541740  71.1414650  26.4772630  72.4304180  71.0392860
  16.4612330  69.9863030  61.4701900  16.1725380  70.5565890  62.1826880
  17.2058090  69.5067480  61.8333130  16.6482560  73.9283150  52.6804620
  16.5657230  74.8713910  52.8219610  16.2965620  73.7858060  51.8016970
  28.0103300  75.9867980  63.3422480  27.2784420  76.4954790  63.6912580
  27.6127640  75.1697960  63.0411260  24.4480690  72.6622180  61.7474970
  24.4516750  72.2212130  60.8979510  25.3431810  72.9839510  61.8546790
  20.2983070  72.5448670  60.7069180  19.9583120  73.0223900  61.4636230
  19.5360390  72.0913790  60.3470280  28.4729210  71.4401660  62.7545420
  28.4901950  71.8910310  63.5987270  28.2244790  70.5407300  62.9678860
  23.5222340  75.9735400  54.1365030  22.9539240  75.5253650  53.5100940
  24.2311340  76.3328180  53.6030180  31.8999960  68.8533840  68.5931800
  32.2245730  68.1223500  69.1189780  31.9356470  68.5347480  67.6912790
  18.5991520  79.8747420  68.0131760  18.2146310  79.2341090  68.6114720
  18.9103710  80.5783540  68.5826490  24.7488660  76.7223960  63.4940380
  25.1158790  76.2482530  64.2401720  24.5593720  77.5965530  63.8348720
  17.6129150  71.4667650  59.6233850  17.3276070  71.1023320  60.4612470
  17.5508010  70.7348110  59.0096990  22.5388030  75.7632600  65.8124590
  22.2345100  76.6424580  66.0374950  23.4934490  75.8232390  65.8482030
  21.0669820  79.9693590  56.4091440  20.2932080  79.4291210  56.2490160
  21.7964450  79.4500200  56.0709200  31.8257800  78.9658950  62.2017830
  32.5456920  79.4614240  61.8113940  31.6239620  78.2876840  61.5571700
  27.2076600  79.0368010  68.0886830  27.1413910  78.1163680  67.8344420
  26.5781740  79.1343450  68.8031470  30.0016130  74.7316560  54.6409380
  30.8895750  75.0433790  54.4660720  29.9721220  73.8588810  54.2489960
  21.1107220  79.6373970  60.0470250  21.6285890  78.8342230  59.9927140
  20.6591240  79.5753110  60.8887080  25.9976720  80.9040250  55.3197550
  26.3392420  81.6482480  54.8240870  25.1689430  81.2171370  55.6822380
  18.5951760  76.6035340  66.9595950  18.2366700  77.2689190  67.5469290
  18.3006320  75.7718890  67.3308570  21.7964880  77.0619580  69.8435500
  21.4965020  77.2076760  68.9463320  22.5676120  76.5024870  69.7508890
  27.1393330  81.8588580  67.8390630  27.1537870  80.9269540  67.6209540
  26.4318430  81.9448340  68.4780400  32.2730400  76.0428400  54.1089240
  32.1894120  76.4742620  53.2585680  32.9924590  76.5026750  54.5416060
  33.3504540  78.4995920  67.1859210  32.6252730  79.0924700  66.9888600
  33.8780000  78.4919460  66.3872580  33.3017650  82.8970660  56.8371370
  32.6593810  82.2426280  57.1115090  32.9148310  83.3025750  56.0612040
  28.8804130  80.2256090  60.6843060  29.2327950  79.6284220  60.0244430
  27.9966460  79.9000320  60.8551310  24.9667410  80.9853780  58.0913470
  25.6538540  81.5322990  58.4721060  24.1799830  81.5294510  58.1263080
  17.1059810  76.6026600  53.5830550  17.9754660  76.8851400  53.8666470
  16.6150130  77.4162470  53.4679360  24.2694620  77.9899810  57.7038830
  24.7257400  78.8005060  57.9299020  23.9182830  77.6722950  58.5357320
  26.5727230  83.5006150  64.9331130  27.2169450  83.7065530  65.6104550
  26.9356670  82.7394550  64.4801980  20.1706400  68.3337460  58.1761350
  20.0421030  68.3255360  59.1246270  19.3468420  68.6720550  57.8252360
  27.8459310  81.5038500  63.6508580  28.4881540  80.8031660  63.7640750
  28.3708660  82.2836940  63.4705470  31.6915030  81.7887120  53.3747720
  31.4652610  81.0717560  53.9672360  31.3011230  81.5399560  52.5369470
  29.6196930  82.3033400  66.8544640  29.9553170  82.8900090  67.5322560
  28.6997270  82.1726110  67.0842430  17.4731060  85.8153980  54.1492180
  17.8328700  86.4143320  53.4949450  17.3323400  86.3613870  54.9227210
  17.1700330  70.0928580  67.6368050  16.4558850  70.2925500  68.2420660
  17.5895370  69.3168150  68.0082850  31.2731280  79.7059060  55.0361880
  30.9852980  80.1671750  55.8239760  32.0683450  79.2456830  55.3046100
  17.4572920  84.0808840  68.6234580  17.5664040  83.1403580  68.4829970
  16.8053480  84.3463590  67.9748310  25.4485510  82.3524730  70.0232700
  25.1282380  81.6333970  70.5678390  24.7743870  83.0279800  70.0968760
  23.4899680  83.1985180  54.9665850  23.4809780  83.9314870  54.3510360
  22.5698040  82.9516760  55.0592810  19.0906320  78.4200070  55.7112610
  18.4834270  79.1598970  55.7207910  19.5655670  78.5099430  54.8850810
  28.6639110  72.5850890  65.3869500  29.0319930  71.7646100  65.7149070
  27.8037310  72.6452780  65.8025150  32.0301140  71.5407830  56.1957060
  31.4014300  71.6453500  55.4815290  31.5353060  71.7604610  56.9850940
  26.4759280  83.2613420  53.6291040  26.5771260  83.0577410  52.6993020
  25.5761020  83.0071700  53.8338820  23.9985170  73.8193780  57.6114940
  23.2901320  74.2880120  58.0528550  24.2829650  73.1615790  58.2460130
  25.6241100  75.2390480  65.6107470  26.1226350  75.7136300  66.2759320
  25.7664050  74.3154000  65.8177500  28.0300600  70.5444440  59.0510730
  27.9068380  70.5630570  58.1020240  28.9785160  70.5923380  59.1709130
  25.1177390  85.7799740  58.3238710  25.3718890  85.7421130  57.4018080
  24.1689870  85.6533070  58.3166960  22.2020190  72.1278860  54.9865650
  23.0510720  72.5649010  54.9205840  21.8351460  72.4399120  55.8137710
  32.8307960  71.4558440  66.4535860  32.3281560  72.1963840  66.7929670
  33.6464620  71.8442440  66.1372650  31.1229970  76.6991620  59.8997220
  30.1820110  76.7141850  60.0744910  31.4374040  75.9127580  60.3457520
  21.1011610  78.3811220  53.4601180  21.8674880  78.2692580  54.0226610
  21.1786300  77.6849190  52.8077950  19.7958370  75.8136290  54.1434070
  19.8761960  74.8663800  54.2551470  20.6878120  76.1443170  54.2494730
  33.1255550  83.8700470  61.5751480  33.2502970  84.6931640  62.0475290
  33.9921110  83.6591200  61.2275630  20.5973080  85.9631680  61.2468610
  21.3335560  85.4147140  61.5177180  20.9814000  86.8287690  61.1074600
  17.4818560  82.0305250  57.1210120  16.5558340  82.2726390  57.1115530
  17.9474990  82.8579510  56.9994870  19.6031360  85.1477750  70.4354190
  20.4044090  85.4689800  70.8489590  19.0883180  84.7873330  71.1574100
  23.7075390  85.1361990  53.0694180  24.5004000  85.4250820  52.6175970
  23.1879740  84.7054160  52.3906660  28.4395990  81.2557620  70.3829600
  27.8334150  81.2789220  69.6425350  28.1350100  80.5240660  70.9196850
  29.8696360  84.9837910  68.9939010  30.8218110  84.8995930  68.9439250
  29.7224580  85.6479620  69.6672800  32.7605560  84.3632120  54.4930920
  32.4747070  83.9497260  53.6785100  32.5625110  85.2919830  54.3731440
  17.3229170  77.6351210  69.3790240  17.8268190  77.0558490  69.9506470
  16.5836590  77.9191440  69.9166610  24.2252790  80.3565400  52.9336530
  24.1203430  79.7417750  53.6597910  24.0577010  79.8331290  52.1499540
  24.3767110  79.0422200  68.9125760  23.6112780  79.6107200  68.8280430
  24.5583070  78.7498410  68.0193990  27.4655520  79.4185430  53.5378520
  26.9165620  79.8654730  54.1821260  28.0874780  78.9134680  54.0616190
  31.5190460  80.7727530  69.4700780  32.2599930  81.1103290  68.9668240
  30.7563140  80.9419590  68.9170550  19.3552250  75.7780800  70.2740310
  19.3957590  75.4794670  71.1825540  20.2097750  76.1788410  70.1147830
  23.1330640  78.3776350  55.4343820  23.5547060  78.2116220  56.2775210
  23.2581480  77.5676580  54.9398960  21.2958060  74.3572900  68.2414800
  20.7654520  73.8663850  67.6138140  21.9646130  74.7857100  67.7072730
  25.6458280  77.4013960  52.6820920  26.1663940  76.6862980  52.3162070
  26.2926680  78.0399830  52.9821430  30.1936120  78.8242360  68.0055990
  30.6077140  78.9787440  68.8546410  29.2587120  78.9497580  68.1681770
  30.6658290  76.1638520  70.0095140  31.2479060  75.4090840  69.9215620
  30.8420060  76.6945960  69.2326620  21.7830360  71.3235270  68.3212090
  21.6887230  70.7056020  67.5962960  21.2027750  72.0501560  68.0942000
  24.5491800  69.8808510  65.3539480  24.1009100  69.9032770  64.5085030
  23.9157000  69.4827530  65.9509780  24.9551350  78.7762840  65.9751920
  25.3739460  79.6195570  65.8028160  24.0359980  78.9134880  65.7458700
  27.2915250  76.5079020  67.3589760  27.4111460  75.9120160  68.0984600
  28.1509250  76.5448710  66.9391060  29.6303150  77.0616210  65.9352270
  29.1038370  77.5858830  65.3317410  29.9734490  77.6943600  66.5662000
  22.8058770  85.0815850  67.0909650  22.2679860  85.8061910  66.7718350
  23.0592730  84.6046190  66.3006990  24.0584020  73.0500370  68.6165580
  24.6483710  72.7416220  69.3043400  23.2404260  72.5780120  68.7725480
  28.8777450  72.6666180  68.8498600  28.1892970  72.0047720  68.7848590
  29.5983470  72.2204450  69.2947060  25.6620980  86.3167060  67.3496300
  25.5879680  87.2202200  67.6568670  24.7599820  85.9978960  67.3218370
  26.2106310  85.4825570  54.9722660  27.1057100  85.8210540  54.9941420
  26.2423940  84.7604980  54.3446940  19.8502470  80.8552620  53.2009660
  20.2877340  81.3982290  53.8567240  20.3350200  80.0299570  53.2106000
  17.0648270  83.6441650  60.6529920  17.3951280  82.7762710  60.4208560
  17.4939270  83.8500170  61.4834880  21.6610190  81.9750660  58.3131890
  21.3605730  81.8515630  59.2135800  21.5547680  81.1159250  57.9047620
  17.5538480  84.5112240  63.3911550  17.1169470  84.6913040  64.2235700
  18.1216160  85.2686860  63.2493270  33.1900660  84.0129240  67.6788860
  32.5902650  84.0721800  66.9352780  33.3194560  83.0734220  67.8085710
  34.4302110  81.7547060  53.0158570  33.5995070  81.8223710  53.4865800
  34.6073940  82.6451180  52.7125430  33.8858570  78.4994540  55.5192770
  34.6477480  79.0691190  55.6252460  33.9012940  77.9321740  56.2901080
  17.3862910  77.0232470  59.7500430  16.7311750  76.7544110  59.1060130
  18.2240860  76.9136950  59.3002410  34.8918540  79.3544640  60.3634700
  35.2627370  78.5711960  59.9570670  35.5320470  80.0433740  60.1852000
  31.8752300  80.7381220  65.7765020  31.0612140  81.1678380  66.0390810
  32.2826500  81.3499630  65.1634070  33.9377740  78.7928910  52.6765290
  34.2126580  79.7007790  52.5484510  33.7488480  78.7291440  53.6127280
  33.8343080  76.7297900  57.6694720  33.4586680  75.9625830  57.2376010
  33.1046200  77.1120600  58.1569650  18.4238840  77.4085040  64.2903770
  18.7911880  77.3212440  65.1699790  17.8549660  76.6451590  64.1910630
  33.2242700  75.8769420  67.3034240  32.9928790  75.6482170  66.4032190
  33.4847250  76.7968970  67.2579130  17.9754840  74.3194130  68.1962190
  17.0810890  74.2860890  68.5355900  18.5152390  74.5180920  68.9613440
  31.6630770  71.1025850  70.0813940  32.5400950  71.1109250  70.4647940
  31.6751610  70.3656690  69.4706290  16.6000990  74.2331400  55.6925760
  15.6965070  74.4961600  55.5177420  17.0841610  74.5042570  54.9125720
  33.1094040  74.9555390  60.9701960  33.6331520  74.4618040  60.3392130
  33.6953460  75.0905750  61.7149530  33.2883760  75.0395260  64.4921510
  32.3386470  75.0058800  64.6066500  33.4696770  75.9495370  64.2571280
  19.1428200  73.2896940  53.6020140  19.8519900  72.8680160  53.1167420
  18.4268140  73.3572170  52.9703490  18.7902360  69.3436270  52.6422790
  19.5130490  69.8845210  52.9604010  19.0626880  69.0699690  51.7664330
  32.5994010  74.2128740  56.9094370  33.0953130  73.9799610  57.6943250
  32.4010080  73.3740580  56.4932010  18.4794550  68.5942460  62.5445410
  19.1270740  68.0439840  62.1040570  18.8996390  68.8485610  63.3661220
  34.0281170  72.8489690  59.4432050  33.9180450  72.6945730  60.3814320
  34.7888760  72.3210630  59.2007460  32.3746890  68.7883820  65.9015050
  33.0119110  69.4017960  66.2674240  32.5221780  68.8244480  64.9564280
  34.9171440  70.6797610  52.6838190  35.8420750  70.5478790  52.4756480
  34.8947230  70.7590430  53.6374640  34.9909930  71.4508270  55.3094900
  34.1961430  71.3853390  55.8387810  35.1953210  72.3858910  55.2980250
  31.9328350  85.4899820  59.3033290  32.5287420  85.1684390  58.6267710
  32.1906500  85.0171640  60.0946560  18.2326550  68.7498130  65.2870730
  17.8841370  69.2061950  66.0528910  17.9014250  67.8555260  65.3693160
  19.8390920  81.9217730  69.4523920  19.7960550  81.5510640  70.3338380
  19.9701930  82.8595300  69.5925740  23.5396950  83.4777320  65.0533640
  23.2988310  83.7451880  64.1664160  24.4799590  83.6483050  65.1084500
  25.7451370  69.9410010  68.8090150  25.6840260  70.5331840  69.5585560
  26.6851750  69.8335970  68.6640410  28.3825930  69.5980070  68.4482440
  28.9966340  69.9159360  67.7863520  28.9275490  69.1128660  69.0678300
  34.8001110  85.4971700  65.8544280  34.3059390  85.8940570  65.1371410
  34.1914400  84.8720910  66.2481560  18.9047190  68.2774330  68.5621500
  19.4530180  68.0962380  67.7987610  18.9702500  67.4868440  69.0977810
  19.6778950  84.8679980  66.5721700  19.0839270  84.7364680  67.3111740
  19.6702790  84.0318120  66.1063800  29.1233970  68.1612210  64.7751730
  28.2493810  68.4947320  64.5724660  29.0144720  67.6885390  65.6003600
  30.0305950  70.3683080  66.1593450  29.7019310  69.5534840  65.7795180
  30.9788250  70.3252890  66.0359140  32.4840560  86.1395120  63.1331020
  32.0243530  86.8910930  62.7589040  31.8553020  85.4201590  63.0745820
  19.3091180  82.2338360  65.5229740  18.5825240  81.6143650  65.4555690
  19.3700330  82.6278970  64.6527820  22.9136280  84.4483360  62.3079150
  23.4301300  83.8370720  61.7827410  23.5633660  84.9512140  62.7990160
  25.6531780  85.3391850  63.1348130  25.9409590  85.0846150  62.2581140
  26.1655000  84.7869210  63.7253700  26.8708790  69.0782050  63.7144640
  26.0880580  69.5527550  63.9941400  26.5771720  68.1736880  63.6057820
  31.4229860  69.7805150  61.7593730  31.8637950  69.7250250  60.9115330
  31.1537450  70.6963160  61.8303910  33.2868430  69.4120390  59.7702550
  33.2256830  68.4681610  59.6233570  34.0660460  69.5200480  60.3156010
  17.5921180  85.5512750  58.7326500  17.4243220  84.9183430  59.4308390
  16.7255690  85.7572150  58.3820690  18.2149200  69.3829530  56.2358360
  18.9728560  69.4958410  55.6622390  17.7526370  70.2198730  56.1901790
  24.7563010  71.4968800  59.2260670  23.9437520  71.1225690  58.8856550
  25.2604650  70.7413880  59.5281860  29.2587990  68.1611250  60.4643740
  29.8617360  68.7331460  60.9392260  28.5180980  68.7250690  60.2417640
  19.1983880  84.2445980  56.1776640  18.6731500  84.6254010  55.4738600
  19.1228460  84.8696750  56.8986350  20.5874350  69.9093580  54.7760330
  21.1167110  69.1223380  54.6468280  21.2202670  70.5884770  55.0095860
  22.7812190  69.6468720  57.8305720  22.1514930  68.9456030  57.9975850
  22.2417330  70.4072850  57.6138880  25.7204140  86.2607950  70.5016330
  26.6471450  86.0252220  70.5452290  25.7054570  87.0879950  70.0202360
  33.9549200  85.8033520  57.4990580  34.1301390  85.1171260  56.8551500
  33.2570770  86.3280570  57.1067250  22.9067750  68.9252700  70.2658210
  22.6252020  69.4286300  69.5019030  23.2887450  68.1274450  69.9000340
  21.7976850  86.1928360  55.0525890  22.5295670  85.9087640  54.5049780
  22.0570520  85.9541640  55.9425270  20.9591640  82.3093090  55.0572220
  20.3300520  82.7778190  55.6058050  21.0739470  81.4642310  55.4918410
  29.5083210  68.3406280  70.8438680  29.3948660  68.6600890  71.7390200
  30.3252950  68.7418790  70.5475960  32.2881700  85.4877810  70.3257370
  33.0807020  84.9927040  70.1183330  32.5814850  86.1667950  70.9332980
  28.4141360  76.3598750  41.2073420  28.3335410  75.4453360  40.9365130
  28.0005780  76.8565820  40.5013130  26.5459400  78.1377770  43.0882690
  25.7701500  77.6578210  43.3781260  27.1972330  77.4583420  42.9138850
  20.5625230  78.4497580  43.9658450  19.7310110  78.1946290  44.3654960
  21.1706210  78.5208350  44.7016370  30.5666830  82.5437960  41.8681820
  30.1048360  81.7725200  42.1968990  31.3792380  82.5704030  42.3734270
  20.5426490  82.4837670  44.1616470  20.8454530  81.5935410  43.9826690
  21.2870080  83.0407890  43.9338720  18.9717180  73.4099470  37.7500840
  18.0833880  73.7515440  37.6480720  19.2558370  73.2099790  36.8581670
  16.9350190  76.0105120  43.6340540  17.5066300  75.2427320  43.6344180
  16.9351730  76.3093880  42.7247150  26.7930140  84.8295970  41.4885810
  26.1741580  85.2853470  40.9180250  27.6481920  84.9847430  41.0875510
  25.9868390  80.8134960  43.0952850  25.9176670  79.8724900  42.9341980
  26.7488250  80.9036370  43.6675420  18.1775060  71.4189480  45.4209470
  17.9977900  70.5215230  45.7012230  17.7755140  71.9661350  46.0956420
  27.0173560  73.6205340  43.3221780  27.3938380  72.7477220  43.2095450
  26.9193070  73.9564040  42.4312220  21.1478570  71.9930970  38.7839220
  21.2545320  72.8934700  39.0907980  20.2370930  71.9448940  38.4933870
  30.7997680  71.1155780  40.2550120  31.6207300  70.6252350  40.2975600
  30.8331760  71.7053440  41.0081960  18.7961730  73.9149980  44.0291810
  19.4771840  74.1788350  44.6479210  18.4809780  73.0750850  44.3629820
  22.9886300  74.9617340  43.1164400  23.4964520  75.4598310  43.7569420
  23.5199540  74.1852540  42.9403760  35.0897230  73.1322530  46.8193750
  34.3849400  73.5204240  46.3008860  35.3555150  73.8272820  47.4214680
  21.2722400  69.6015900  47.3827820  21.2740840  70.1188290  46.5773720
  20.4426710  69.1246080  47.3597750  27.6593490  79.7135210  38.8817720
  27.0410760  80.1784660  38.3180440  28.1716740  80.4062690  39.2987230
  22.5225250  79.2411080  45.5601320  22.1894630  79.8680000  46.2022390
  22.6991930  79.7672960  44.7802990  31.0359160  73.0556160  43.0277660
  30.3314730  73.3441050  43.6080770  31.3971320  73.8656270  42.6677220
  20.9537730  71.3125860  45.3898270  21.2954540  72.1567910  45.0952140
  20.0153540  71.4609600  45.5063610  21.7344350  81.2091880  47.3750500
  22.3518350  81.8842960  47.0934950  20.8737470  81.6179860  47.2838000
  17.0276690  80.3991740  36.2557350  16.6504670  80.8878840  35.5242250
  17.2849760  81.0717020  36.8863880  32.6521940  82.6731290  45.2905140
  31.9685460  83.3430400  45.2821810  33.1916230  82.8711940  44.5250000
  34.1046080  72.5010950  43.4186870  33.1570990  72.5349930  43.5502300
  34.4296070  73.3149900  43.8036230  24.6365620  68.8008130  41.7142860
  24.9440600  68.2455020  40.9978360  23.7066320  68.9352590  41.5315850
  30.1880680  84.5175420  44.0050320  30.2007840  84.1137710  43.1372580
  29.6355900  85.2922710  43.9011750  31.4826100  81.2391640  39.0940490
  31.3722430  80.2965970  39.2189910  31.4794350  81.6007280  39.9803250
  29.5866120  79.4205260  45.3332930  30.0034910  79.2065370  44.4986390
  30.3105940  79.6778050  45.9041550  27.0246380  76.8656960  38.4502980
  26.0975660  76.7994340  38.6791450  27.1771200  77.8037090  38.3358220
  27.0115460  73.1373960  35.4470140  26.0719130  73.2987920  35.5322600
  27.3298720  73.8559640  34.9006130  33.5328220  77.8192480  45.4249170
  32.7046850  77.8885570  44.9499300  34.1278700  78.4046790  44.9565000
  31.0543670  78.4277260  38.9538230  30.4356090  78.0896810  38.3064530
  31.0368120  77.7837020  39.6617420  30.4970230  74.6061800  46.3704040
  30.0841410  75.4315510  46.6244030  29.7646180  74.0206840  46.1780400
  22.6303020  77.3921700  41.2322710  22.2260020  76.6798950  40.7368610
  22.7166140  77.0474940  42.1210750  23.0984720  81.0789260  43.3961920
  22.8013010  80.4734730  42.7169700  24.0484540  81.1166570  43.2851280
  21.3431640  74.1664910  45.0121750  21.8946230  74.2760250  44.2375000
  21.8575150  74.5402510  45.7276980  31.1870330  84.6521130  47.0585020
  30.7100890  85.4593320  46.8657630  30.5032120  83.9999460  47.2111230
  22.1903150  80.8170950  50.0469720  21.2931680  81.0410920  50.2943120
  22.2156020  80.9405890  49.0981120  29.2308370  77.6664070  35.9610980
  29.6701650  76.8286500  35.8148800  29.9436790  78.2993470  36.0475120
  21.0174370  77.6884270  48.6227090  20.8782140  78.5607070  48.9914490
  20.1355730  77.3457080  48.4775030  27.3403750  82.6060140  39.9292220
  27.7799660  83.3484470  39.5147610  27.2790640  82.8486710  40.8531180
  22.8154720  83.6305970  50.8312240  22.7870150  84.0348920  49.9640670
  22.6519690  82.7016330  50.6683840  32.8125510  68.9206880  34.2752020
  32.4998170  69.0133710  35.1751090  33.5737980  69.4987910  34.2249450
  19.3307650  76.2866680  38.7329360  19.2105250  77.0128770  38.1210630
  19.0208540  75.5169590  38.2557270  34.7669540  84.4133070  52.1276410
  35.2429260  84.8915960  52.8065490  35.3876700  84.3450560  51.4021910
  16.9693020  79.4581820  44.5398000  17.0473440  79.5930590  43.5953720
  17.5834700  78.7497710  44.7326120  18.2140650  81.1582010  40.9504180
  17.8068730  81.2996600  40.0957780  19.1053660  80.8742170  40.7475390
  34.1702790  81.6045920  49.2876420  34.2965850  81.3657800  48.3693600
  34.2124170  80.7730460  49.7598500  28.0319530  85.3073920  47.8571230
  28.5464200  85.2181930  48.6593660  27.1888610  85.6533620  48.1499140
  30.0073930  85.5929260  37.2855230  29.8475070  85.3032200  38.1837060
  29.8420640  84.8169390  36.7500460  22.4862310  85.3727790  39.0626850
  22.3104790  84.4563330  38.8494650  21.6318050  85.7315080  39.3024650
  29.7100060  83.1016820  35.8453230  29.0165220  83.0994110  35.1855510
  30.4522920  82.6776140  35.4147400  29.2749990  84.7279530  39.9201720
  29.7306940  83.9468910  40.2340340  29.6142510  85.4386350  40.4642900
  34.0226800  73.6578380  50.2526160  33.4071070  74.1658050  49.7241620
  33.7023220  72.7576710  50.1952100  17.0252540  80.4995990  47.0792460
  17.1883580  80.0301350  46.2611830  17.4904990  79.9919550  47.7441300
  21.7971310  69.6301750  42.1153030  21.3539460  70.4111290  41.7837550
  22.3556300  69.9531640  42.8223970  31.0845630  73.7179220  48.8485010
  30.2339220  73.4184970  49.1694080  30.9247420  73.9621230  47.9368830
  24.9130130  69.2512450  36.9958860  24.2884310  69.2472320  37.7212170
  24.8260250  68.3843410  36.5994830  23.8347210  70.1749080  43.9742630
  24.1319540  71.0811910  43.8934650  24.3832770  69.6867860  43.3602200
  21.5885530  74.7535320  39.8434280  21.3626450  74.5372490  40.7480900
  20.8078060  75.1863780  39.4980250  28.8183290  74.7598690  38.4424930
  28.2192180  75.4834490  38.2588550  29.3662900  74.6975470  37.6601380
  27.4248160  73.3962230  40.4728210  27.8177730  73.7134430  39.6596900
  27.7865010  72.5174110  40.5872730  19.1595280  72.0634570  48.6628330
  18.7658670  72.9109780  48.8701110  18.4713680  71.4260940  48.8536970
  16.4612330  69.9863030  42.6958410  16.1725380  70.5565890  43.4083390
  17.2058090  69.5067480  43.0589640  16.6482560  73.9283150  33.9061130
  16.5657230  74.8713910  34.0476120  16.2965620  73.7858060  33.0273480
  28.0103300  75.9867980  44.5678990  27.2784420  76.4954790  44.9169090
  27.6127640  75.1697960  44.2667770  24.4480690  72.6622180  42.9731480
  24.4516750  72.2212130  42.1236020  25.3431810  72.9839510  43.0803300
  20.2983070  72.5448670  41.9325690  19.9583120  73.0223900  42.6892740
  19.5360390  72.0913790  41.5726790  24.5100840  73.6634260  35.9638240
  24.6313660  73.6220740  36.9124060  24.1249350  74.5258410  35.8084970
  23.5222340  75.9735400  35.3621540  22.9539240  75.5253650  34.7357450
  24.2311340  76.3328180  34.8286690  18.5991520  79.8747420  49.2388270
  18.2146310  79.2341090  49.8371230  18.9103710  80.5783540  49.8083000
  24.7488660  76.7223960  44.7196890  25.1158790  76.2482530  45.4658230
  24.5593720  77.5965530  45.0605230  17.6129150  71.4667650  40.8490360
  17.3276070  71.1023320  41.6868980  17.5508010  70.7348110  40.2353500
  22.5388030  75.7632600  47.0381100  22.2345100  76.6424580  47.2631460
  23.4934490  75.8232390  47.0738540  21.0669820  79.9693590  37.6347950
  20.2932080  79.4291210  37.4746670  21.7964450  79.4500200  37.2965710
  31.8257800  78.9658950  43.4274340  32.5456920  79.4614240  43.0370450
  31.6239620  78.2876840  42.7828210  27.2867740  70.3596910  37.5703730
  26.4732350  69.8610080  37.4949040  27.0929690  71.1995160  37.1540080
  27.2076600  79.0368010  49.3143340  27.1413910  78.1163680  49.0600930
  26.5781740  79.1343450  50.0287980  30.0016130  74.7316560  35.8665890
  30.8895750  75.0433790  35.6917230  29.9721220  73.8588810  35.4746470
  21.1107220  79.6373970  41.2726760  21.6285890  78.8342230  41.2183650
  20.6591240  79.5753110  42.1143590  25.9976720  80.9040250  36.5454060
  26.3392420  81.6482480  36.0497380  25.1689430  81.2171370  36.9078890
  18.5951760  76.6035340  48.1852460  18.2366700  77.2689190  48.7725800
  18.3006320  75.7718890  48.5565080  21.7964880  77.0619580  51.0692010
  21.4965020  77.2076760  50.1719830  22.5676120  76.5024870  50.9765400
  27.1393330  81.8588580  49.0647140  27.1537870  80.9269540  48.8466050
  26.4318430  81.9448340  49.7036910  32.2730400  76.0428400  35.3345750
  32.1894120  76.4742620  34.4842190  32.9924590  76.5026750  35.7672570
  33.3504540  78.4995920  48.4115720  32.6252730  79.0924700  48.2145110
  33.8780000  78.4919460  47.6129090  33.3017650  82.8970660  38.0627880
  32.6593810  82.2426280  38.3371600  32.9148310  83.3025750  37.2868550
  28.8804130  80.2256090  41.9099570  29.2327950  79.6284220  41.2500940
  27.9966460  79.9000320  42.0807820  24.9667410  80.9853780  39.3169980
  25.6538540  81.5322990  39.6977570  24.1799830  81.5294510  39.3519590
  17.1059810  76.6026600  34.8087060  17.9754660  76.8851400  35.0922980
  16.6150130  77.4162470  34.6935870  24.2694620  77.9899810  38.9295340
  24.7257400  78.8005060  39.1555530  23.9182830  77.6722950  39.7613830
  26.5727230  83.5006150  46.1587640  27.2169450  83.7065530  46.8361060
  26.9356670  82.7394550  45.7058490  20.1706400  68.3337460  39.4017860
  20.0421030  68.3255360  40.3502780  19.3468420  68.6720550  39.0508870
  27.8459310  81.5038500  44.8765090  28.4881540  80.8031660  44.9897260
  28.3708660  82.2836940  44.6961980  31.6915030  81.7887120  34.6004230
  31.4652610  81.0717560  35.1928870  31.3011230  81.5399560  33.7625980
  29.6196930  82.3033400  48.0801150  29.9553170  82.8900090  48.7579070
  28.6997270  82.1726110  48.3098940  17.4731060  85.8153980  35.3748690
  17.8328700  86.4143320  34.7205960  17.3323400  86.3613870  36.1483720
  17.1700330  70.0928580  48.8624560  16.4558850  70.2925500  49.4677170
  17.5895370  69.3168150  49.2339360  31.2731280  79.7059060  36.2618390
  30.9852980  80.1671750  37.0496270  32.0683450  79.2456830  36.5302610
  25.4485510  82.3524730  51.2489210  25.1282380  81.6333970  51.7934900
  24.7743870  83.0279800  51.3225270  23.4899680  83.1985180  36.1922360
  23.4809780  83.9314870  35.5766870  22.5698040  82.9516760  36.2849320
  19.0906320  78.4200070  36.9369120  18.4834270  79.1598970  36.9464420
  19.5655670  78.5099430  36.1107320  28.6639110  72.5850890  46.6126010
  29.0319930  71.7646100  46.9405580  27.8037310  72.6452780  47.0281660
  32.0301140  71.5407830  37.4213570  31.4014300  71.6453500  36.7071800
  31.5353060  71.7604610  38.2107450  26.4759280  83.2613420  34.8547550
  26.5771260  83.0577410  33.9249530  25.5761020  83.0071700  35.0595330
  23.9985170  73.8193780  38.8371450  23.2901320  74.2880120  39.2785060
  24.2829650  73.1615790  39.4716640  25.6241100  75.2390480  46.8363980
  26.1226350  75.7136300  47.5015830  25.7664050  74.3154000  47.0434010
  28.0300600  70.5444440  40.2767240  27.9068380  70.5630570  39.3276750
  28.9785160  70.5923380  40.3965640  25.1177390  85.7799740  39.5495220
  25.3718890  85.7421130  38.6274590  24.1689870  85.6533070  39.5423470
  22.2020190  72.1278860  36.2122160  23.0510720  72.5649010  36.1462350
  21.8351460  72.4399120  37.0394220  32.8307960  71.4558440  47.6792370
  32.3281560  72.1963840  48.0186180  33.6464620  71.8442440  47.3629160
  31.1229970  76.6991620  41.1253730  30.1820110  76.7141850  41.3001420
  31.4374040  75.9127580  41.5714030  21.1011610  78.3811220  34.6857690
  21.8674880  78.2692580  35.2483120  21.1786300  77.6849190  34.0334460
  19.7958370  75.8136290  35.3690580  19.8761960  74.8663800  35.4807980
  20.6878120  76.1443170  35.4751240  33.1255550  83.8700470  42.8007990
  33.2502970  84.6931640  43.2731800  33.9921110  83.6591200  42.4532140
  20.5973080  85.9631680  42.4725120  21.3335560  85.4147140  42.7433690
  20.9814000  86.8287690  42.3331110  17.4818560  82.0305250  38.3466630
  16.5558340  82.2726390  38.3372040  17.9474990  82.8579510  38.2251380
  23.7075390  85.1361990  34.2950690  24.5004000  85.4250820  33.8432480
  23.1879740  84.7054160  33.6163170  28.4395990  81.2557620  51.6086110
  27.8334150  81.2789220  50.8681860  28.1350100  80.5240660  52.1453360
  29.8696360  84.9837910  50.2195520  30.8218110  84.8995930  50.1695760
  29.7224580  85.6479620  50.8929310  32.7605560  84.3632120  35.7187430
  32.4747070  83.9497260  34.9041610  32.5625110  85.2919830  35.5987950
  17.3229170  77.6351210  50.6046750  17.8268190  77.0558490  51.1762980
  16.5836590  77.9191440  51.1423120  24.2252790  80.3565400  34.1593040
  24.1203430  79.7417750  34.8854420  24.0577010  79.8331290  33.3756050
  24.3767110  79.0422200  50.1382270  23.6112780  79.6107200  50.0536940
  24.5583070  78.7498410  49.2450500  27.4655520  79.4185430  34.7635030
  26.9165620  79.8654730  35.4077770  28.0874780  78.9134680  35.2872700
  31.5190460  80.7727530  50.6957290  32.2599930  81.1103290  50.1924750
  30.7563140  80.9419590  50.1427060  19.3552250  75.7780800  51.4996820
  19.3957590  75.4794670  52.4082050  20.2097750  76.1788410  51.3404340
  23.1330640  78.3776350  36.6600330  23.5547060  78.2116220  37.5031720
  23.2581480  77.5676580  36.1655470  21.2958060  74.3572900  49.4671310
  20.7654520  73.8663850  48.8394650  21.9646130  74.7857100  48.9329240
  25.6458280  77.4013960  33.9077430  26.1663940  76.6862980  33.5418580
  26.2926680  78.0399830  34.2077940  30.1936120  78.8242360  49.2312500
  30.6077140  78.9787440  50.0802920  29.2587120  78.9497580  49.3938280
  30.6658290  76.1638520  51.2351650  31.2479060  75.4090840  51.1472130
  30.8420060  76.6945960  50.4583130  24.5491800  69.8808510  46.5795990
  24.1009100  69.9032770  45.7341540  23.9157000  69.4827530  47.1766290
  24.9551350  78.7762840  47.2008430  25.3739460  79.6195570  47.0284670
  24.0359980  78.9134880  46.9715210  27.2915250  76.5079020  48.5846270
  27.4111460  75.9120160  49.3241110  28.1509250  76.5448710  48.1647570
  29.6303150  77.0616210  47.1608780  29.1038370  77.5858830  46.5573920
  29.9734490  77.6943600  47.7918510  22.0289540  74.4509580  33.6058490
  21.8278600  73.5876940  33.9671830  21.8581590  74.3642940  32.6680090
  22.8058770  85.0815850  48.3166160  22.2679860  85.8061910  47.9974860
  23.0592730  84.6046190  47.5263500  29.5077850  69.2617810  36.1345370
  29.7880140  68.4185710  36.4904790  28.7343580  69.4940920  36.6484120
  20.8272340  71.5510200  33.5936370  21.1298240  71.5577630  32.6855520
  21.5666930  71.2008060  34.0904030  25.6620980  86.3167060  48.5752810
  25.5879680  87.2202200  48.8825180  24.7599820  85.9978960  48.5474880
  24.0457270  70.4944820  34.5792570  23.6979270  69.8168810  33.9995020
  24.2470040  70.0334330  35.3935960  26.2106310  85.4825570  36.1979170
  27.1057100  85.8210540  36.2197930  26.2423940  84.7604980  35.5703450
  19.8502470  80.8552620  34.4266170  20.2877340  81.3982290  35.0823750
  20.3350200  80.0299570  34.4362510  17.0648270  83.6441650  41.8786430
  17.3951280  82.7762710  41.6465070  17.4939270  83.8500170  42.7091390
  21.6610190  81.9750660  39.5388400  21.3605730  81.8515630  40.4392310
  21.5547680  81.1159250  39.1304130  17.5538480  84.5112240  44.6168060
  17.1169470  84.6913040  45.4492210  18.1216160  85.2686860  44.4749780
  33.1900660  84.0129240  48.9045370  32.5902650  84.0721800  48.1609290
  33.3194560  83.0734220  49.0342220  34.4302110  81.7547060  34.2415080
  33.5995070  81.8223710  34.7122310  34.6073940  82.6451180  33.9381940
  33.8858570  78.4994540  36.7449280  34.6477480  79.0691190  36.8508970
  33.9012940  77.9321740  37.5157590  17.3862910  77.0232470  40.9756940
  16.7311750  76.7544110  40.3316640  18.2240860  76.9136950  40.5258920
  34.8918540  79.3544640  41.5891210  35.2627370  78.5711960  41.1827180
  35.5320470  80.0433740  41.4108510  31.8752300  80.7381220  47.0021530
  31.0612140  81.1678380  47.2647320  32.2826500  81.3499630  46.3890580
  33.9377740  78.7928910  33.9021800  34.2126580  79.7007790  33.7741020
  33.7488480  78.7291440  34.8383790  30.3353350  71.8173760  35.1975430
  30.7538230  71.6304740  34.3572090  30.0289410  70.9652810  35.5078360
  33.8343080  76.7297900  38.8951230  33.4586680  75.9625830  38.4632520
  33.1046200  77.1120600  39.3826160  18.4238840  77.4085040  45.5160280
  18.7911880  77.3212440  46.3956300  17.8549660  76.6451590  45.4167140
  33.2242700  75.8769420  48.5290750  32.9928790  75.6482170  47.6288700
  33.4847250  76.7968970  48.4835640  17.9754840  74.3194130  49.4218700
  17.0810890  74.2860890  49.7612410  18.5152390  74.5180920  50.1869950
  31.6630770  71.1025850  51.3070450  32.5400950  71.1109250  51.6904450
  31.6751610  70.3656690  50.6962800  16.6000990  74.2331400  36.9182270
  15.6965070  74.4961600  36.7433930  17.0841610  74.5042570  36.1382230
  33.1094040  74.9555390  42.1958470  33.6331520  74.4618040  41.5648640
  33.6953460  75.0905750  42.9406040  33.2883760  75.0395260  45.7178020
  32.3386470  75.0058800  45.8323010  33.4696770  75.9495370  45.4827790
  19.1428200  73.2896940  34.8276650  19.8519900  72.8680160  34.3423930
  18.4268140  73.3572170  34.1960000  18.7902360  69.3436270  33.8679300
  19.5130490  69.8845210  34.1860520  19.0626880  69.0699690  32.9920840
  32.5994010  74.2128740  38.1350880  33.0953130  73.9799610  38.9199760
  32.4010080  73.3740580  37.7188520  18.4794550  68.5942460  43.7701920
  19.1270740  68.0439840  43.3297080  18.8996390  68.8485610  44.5917730
  34.0281170  72.8489690  40.6688560  33.9180450  72.6945730  41.6070830
  34.7888760  72.3210630  40.4263970  34.9171440  70.6797610  33.9094700
  35.8420750  70.5478790  33.7012990  34.8947230  70.7590430  34.8631150
  34.9909930  71.4508270  36.5351410  34.1961430  71.3853390  37.0644320
  35.1953210  72.3858910  36.5236760  31.9328350  85.4899820  40.5289800
  32.5287420  85.1684390  39.8524220  32.1906500  85.0171640  41.3203070
  18.2326550  68.7498130  46.5127240  17.8841370  69.2061950  47.2785420
  17.9014250  67.8555260  46.5949670  19.8390920  81.9217730  50.6780430
  19.7960550  81.5510640  51.5594890  19.9701930  82.8595300  50.8182250
  23.5396950  83.4777320  46.2790150  23.2988310  83.7451880  45.3920670
  24.4799590  83.6483050  46.3341010  34.8001110  85.4971700  47.0800790
  34.3059390  85.8940570  46.3627920  34.1914400  84.8720910  47.4738070
  18.9047190  68.2774330  49.7878010  19.4530180  68.0962380  49.0244120
  18.9702500  67.4868440  50.3234320  32.4840560  86.1395120  44.3587530
  32.0243530  86.8910930  43.9845550  31.8553020  85.4201590  44.3002330
  19.3091180  82.2338360  46.7486250  18.5825240  81.6143650  46.6812200
  19.3700330  82.6278970  45.8784330  22.9136280  84.4483360  43.5335660
  23.4301300  83.8370720  43.0083920  23.5633660  84.9512140  44.0246670
  25.6531780  85.3391850  44.3604640  25.9409590  85.0846150  43.4837650
  26.1655000  84.7869210  44.9510210  33.2868430  69.4120390  40.9959060
  33.2256830  68.4681610  40.8490080  34.0660460  69.5200480  41.5412520
  17.5921180  85.5512750  39.9583010  17.4243220  84.9183430  40.6564900
  16.7255690  85.7572150  39.6077200  18.2149200  69.3829530  37.4614870
  18.9728560  69.4958410  36.8878900  17.7526370  70.2198730  37.4158300
  24.7563010  71.4968800  40.4517180  23.9437520  71.1225690  40.1113060
  25.2604650  70.7413880  40.7538370  32.4022590  68.5632810  36.9640530
  32.5973220  69.4616260  37.2307960  31.6152460  68.3319890  37.4573480
  19.1983880  84.2445980  37.4033150  18.6731500  84.6254010  36.6995110
  19.1228460  84.8696750  38.1242860  20.5874350  69.9093580  36.0016840
  21.1167110  69.1223380  35.8724790  21.2202670  70.5884770  36.2352370
  22.7812190  69.6468720  39.0562230  22.1514930  68.9456030  39.2232360
  22.2417330  70.4072850  38.8395390  25.7204140  86.2607950  51.7272840
  26.6471450  86.0252220  51.7708800  25.7054570  87.0879950  51.2458870
  33.9549200  85.8033520  38.7247090  34.1301390  85.1171260  38.0808010
  33.2570770  86.3280570  38.3323760  21.7976850  86.1928360  36.2782400
  22.5295670  85.9087640  35.7306290  22.0570520  85.9541640  37.1681780
  20.9591640  82.3093090  36.2828730  20.3300520  82.7778190  36.8314560
  21.0739470  81.4642310  36.7174920  32.2881700  85.4877810  51.5513880
  33.0807020  84.9927040  51.3439840  32.5814850  86.1667950  52.1589490
  28.4141360  76.3598750  22.4329930  28.3335410  75.4453360  22.1621640
  28.0005780  76.8565820  21.7269640  26.5459400  78.1377770  24.3139200
  25.7701500  77.6578210  24.6037770  27.1972330  77.4583420  24.1395360
  20.5625230  78.4497580  25.1914960  19.7310110  78.1946290  25.5911470
  21.1706210  78.5208350  25.9272880  30.5666830  82.5437960  23.0938330
  30.1048360  81.7725200  23.4225500  31.3792380  82.5704030  23.5990780
  20.5426490  82.4837670  25.3872980  20.8454530  81.5935410  25.2083200
  21.2870080  83.0407890  25.1595230  18.9717180  73.4099470  18.9757350
  18.0833880  73.7515440  18.8737230  19.2558370  73.2099790  18.0838180
  16.9350190  76.0105120  24.8597050  17.5066300  75.2427320  24.8600690
  16.9351730  76.3093880  23.9503660  26.7930140  84.8295970  22.7142320
  26.1741580  85.2853470  22.1436760  27.6481920  84.9847430  22.3132020
  25.9868390  80.8134960  24.3209360  25.9176670  79.8724900  24.1598490
  26.7488250  80.9036370  24.8931930  18.1775060  71.4189480  26.6465980
  17.9977900  70.5215230  26.9268740  17.7755140  71.9661350  27.3212930
  27.0173560  73.6205340  24.5478290  27.3938380  72.7477220  24.4351960
  26.9193070  73.9564040  23.6568730  21.1478570  71.9930970  20.0095730
  21.2545320  72.8934700  20.3164490  20.2370930  71.9448940  19.7190380
  30.7997680  71.1155780  21.4806630  31.6207300  70.6252350  21.5232110
  30.8331760  71.7053440  22.2338470  18.7961730  73.9149980  25.2548320
  19.4771840  74.1788350  25.8735720  18.4809780  73.0750850  25.5886330
  22.9886300  74.9617340  24.3420910  23.4964520  75.4598310  24.9825930
  23.5199540  74.1852540  24.1660270  35.0897230  73.1322530  28.0450260
  34.3849400  73.5204240  27.5265370  35.3555150  73.8272820  28.6471190
  21.2722400  69.6015900  28.6084330  21.2740840  70.1188290  27.8030230
  20.4426710  69.1246080  28.5854260  27.6593490  79.7135210  20.1074230
  27.0410760  80.1784660  19.5436950  28.1716740  80.4062690  20.5243740
  22.5225250  79.2411080  26.7857830  22.1894630  79.8680000  27.4278900
  22.6991930  79.7672960  26.0059500  31.0359160  73.0556160  24.2534170
  30.3314730  73.3441050  24.8337280  31.3971320  73.8656270  23.8933730
  20.9537730  71.3125860  26.6154780  21.2954540  72.1567910  26.3208650
  20.0153540  71.4609600  26.7320120  21.7344350  81.2091880  28.6007010
  22.3518350  81.8842960  28.3191460  20.8737470  81.6179860  28.5094510
  17.0276690  80.3991740  17.4813860  16.6504670  80.8878840  16.7498760
  17.2849760  81.0717020  18.1120390  32.6521940  82.6731290  26.5161650
  31.9685460  83.3430400  26.5078320  33.1916230  82.8711940  25.7506510
  34.1046080  72.5010950  24.6443380  33.1570990  72.5349930  24.7758810
  34.4296070  73.3149900  25.0292740  24.6365620  68.8008130  22.9399370
  24.9440600  68.2455020  22.2234870  23.7066320  68.9352590  22.7572360
  30.1880680  84.5175420  25.2306830  30.2007840  84.1137710  24.3629090
  29.6355900  85.2922710  25.1268260  31.4826100  81.2391640  20.3197000
  31.3722430  80.2965970  20.4446420  31.4794350  81.6007280  21.2059760
  29.5866120  79.4205260  26.5589440  30.0034910  79.2065370  25.7242900
  30.3105940  79.6778050  27.1298060  27.0246380  76.8656960  19.6759490
  26.0975660  76.7994340  19.9047960  27.1771200  77.8037090  19.5614730
  27.0115460  73.1373960  16.6726650  26.0719130  73.2987920  16.7579110
  27.3298720  73.8559640  16.1262640  33.5328220  77.8192480  26.6505680
  32.7046850  77.8885570  26.1755810  34.1278700  78.4046790  26.1821510
  31.0543670  78.4277260  20.1794740  30.4356090  78.0896810  19.5321040
  31.0368120  77.7837020  20.8873930  30.4970230  74.6061800  27.5960550
  30.0841410  75.4315510  27.8500540  29.7646180  74.0206840  27.4036910
  22.6303020  77.3921700  22.4579220  22.2260020  76.6798950  21.9625120
  22.7166140  77.0474940  23.3467260  23.0984720  81.0789260  24.6218430
  22.8013010  80.4734730  23.9426210  24.0484540  81.1166570  24.5107790
  21.3431640  74.1664910  26.2378260  21.8946230  74.2760250  25.4631510
  21.8575150  74.5402510  26.9533490  31.1870330  84.6521130  28.2841530
  30.7100890  85.4593320  28.0914140  30.5032120  83.9999460  28.4367740
  22.1903150  80.8170950  31.2726230  21.2931680  81.0410920  31.5199630
  22.2156020  80.9405890  30.3237630  29.2308370  77.6664070  17.1867490
  29.6701650  76.8286500  17.0405310  29.9436790  78.2993470  17.2731630
  21.0174370  77.6884270  29.8483600  20.8782140  78.5607070  30.2171000
  20.1355730  77.3457080  29.7031540  27.3403750  82.6060140  21.1548730
  27.7799660  83.3484470  20.7404120  27.2790640  82.8486710  22.0787690
  22.8154720  83.6305970  32.0568750  22.7870150  84.0348920  31.1897180
  22.6519690  82.7016330  31.8940350  32.8125510  68.9206880  15.5008530
  32.4998170  69.0133710  16.4007600  33.5737980  69.4987910  15.4505960
  19.3307650  76.2866680  19.9585870  19.2105250  77.0128770  19.3467140
  19.0208540  75.5169590  19.4813780  34.7669540  84.4133070  33.3532920
  35.2429260  84.8915960  34.0322000  35.3876700  84.3450560  32.6278420
  16.9693020  79.4581820  25.7654510  17.0473440  79.5930590  24.8210230
  17.5834700  78.7497710  25.9582630  18.2140650  81.1582010  22.1760690
  17.8068730  81.2996600  21.3214290  19.1053660  80.8742170  21.9731900
  34.1702790  81.6045920  30.5132930  34.2965850  81.3657800  29.5950110
  34.2124170  80.7730460  30.9855010  28.0319530  85.3073920  29.0827740
  28.5464200  85.2181930  29.8850170  27.1888610  85.6533620  29.3755650
  30.0073930  85.5929260  18.5111740  29.8475070  85.3032200  19.4093570
  29.8420640  84.8169390  17.9756970  22.4862310  85.3727790  20.2883360
  22.3104790  84.4563330  20.0751160  21.6318050  85.7315080  20.5281160
  29.7100060  83.1016820  17.0709740  29.0165220  83.0994110  16.4112020
  30.4522920  82.6776140  16.6403910  29.2749990  84.7279530  21.1458230
  29.7306940  83.9468910  21.4596850  29.6142510  85.4386350  21.6899410
  34.0226800  73.6578380  31.4782670  33.4071070  74.1658050  30.9498130
  33.7023220  72.7576710  31.4208610  17.0252540  80.4995990  28.3048970
  17.1883580  80.0301350  27.4868340  17.4904990  79.9919550  28.9697810
  21.7971310  69.6301750  23.3409540  21.3539460  70.4111290  23.0094060
  22.3556300  69.9531640  24.0480480  26.0841120  72.4970270  28.9444860
  25.6220490  72.7053290  29.7564800  25.6819230  71.6829620  28.6415530
  31.0845630  73.7179220  30.0741520  30.2339220  73.4184970  30.3950590
  30.9247420  73.9621230  29.1625340  28.1795340  75.2180970  32.1740310
  28.5048750  74.3844720  31.8342540  28.9675670  75.7409490  32.3218640
  24.9130130  69.2512450  18.2215370  24.2884310  69.2472320  18.9468680
  24.8260250  68.3843410  17.8251340  23.8347210  70.1749080  25.1999140
  24.1319540  71.0811910  25.1191160  24.3832770  69.6867860  24.5858710
  21.5885530  74.7535320  21.0690790  21.3626450  74.5372490  21.9737410
  20.8078060  75.1863780  20.7236760  28.8183290  74.7598690  19.6681440
  28.2192180  75.4834490  19.4845060  29.3662900  74.6975470  18.8857890
  24.0284740  75.6520900  31.7351060  23.9328340  74.7115630  31.5851460
  24.8716720  75.8735970  31.3399130  27.4248160  73.3962230  21.6984720
  27.8177730  73.7134430  20.8853410  27.7865010  72.5174110  21.8129240
  19.1595280  72.0634570  29.8884840  18.7658670  72.9109780  30.0957620
  18.4713680  71.4260940  30.0793480  25.7340330  72.1469540  32.9581580
  25.0438650  71.9541740  33.5927670  26.4772630  72.4304180  33.4905880
  16.4612330  69.9863030  23.9214920  16.1725380  70.5565890  24.6339900
  17.2058090  69.5067480  24.2846150  16.6482560  73.9283150  15.1317640
  16.5657230  74.8713910  15.2732630  16.2965620  73.7858060  14.2529990
  28.0103300  75.9867980  25.7935500  27.2784420  76.4954790  26.1425600
  27.6127640  75.1697960  25.4924280  24.4480690  72.6622180  24.1987990
  24.4516750  72.2212130  23.3492530  25.3431810  72.9839510  24.3059810
  20.2983070  72.5448670  23.1582200  19.9583120  73.0223900  23.9149250
  19.5360390  72.0913790  22.7983300  24.5100840  73.6634260  17.1894750
  24.6313660  73.6220740  18.1380570  24.1249350  74.5258410  17.0341480
  28.4729210  71.4401660  25.2058440  28.4901950  71.8910310  26.0500290
  28.2244790  70.5407300  25.4191880  23.5222340  75.9735400  16.5878050
  22.9539240  75.5253650  15.9613960  24.2311340  76.3328180  16.0543200
  31.8999960  68.8533840  31.0444820  32.2245730  68.1223500  31.5702800
  31.9356470  68.5347480  30.1425810  18.5991520  79.8747420  30.4644780
  18.2146310  79.2341090  31.0627740  18.9103710  80.5783540  31.0339510
  24.7488660  76.7223960  25.9453400  25.1158790  76.2482530  26.6914740
  24.5593720  77.5965530  26.2861740  17.6129150  71.4667650  22.0746870
  17.3276070  71.1023320  22.9125490  17.5508010  70.7348110  21.4610010
  22.5388030  75.7632600  28.2637610  22.2345100  76.6424580  28.4887970
  23.4934490  75.8232390  28.2995050  21.0669820  79.9693590  18.8604460
  20.2932080  79.4291210  18.7003180  21.7964450  79.4500200  18.5222220
  31.8257800  78.9658950  24.6530850  32.5456920  79.4614240  24.2626960
  31.6239620  78.2876840  24.0084720  27.2867740  70.3596910  18.7960240
  26.4732350  69.8610080  18.7205550  27.0929690  71.1995160  18.3796590
  27.2076600  79.0368010  30.5399850  27.1413910  78.1163680  30.2857440
  26.5781740  79.1343450  31.2544490  30.0016130  74.7316560  17.0922400
  30.8895750  75.0433790  16.9173740  29.9721220  73.8588810  16.7002980
  21.1107220  79.6373970  22.4983270  21.6285890  78.8342230  22.4440160
  20.6591240  79.5753110  23.3400100  25.9976720  80.9040250  17.7710570
  26.3392420  81.6482480  17.2753890  25.1689430  81.2171370  18.1335400
  18.5951760  76.6035340  29.4108970  18.2366700  77.2689190  29.9982310
  18.3006320  75.7718890  29.7821590  21.7964880  77.0619580  32.2948520
  21.4965020  77.2076760  31.3976340  22.5676120  76.5024870  32.2021910
  27.1393330  81.8588580  30.2903650  27.1537870  80.9269540  30.0722560
  26.4318430  81.9448340  30.9293420  32.2730400  76.0428400  16.5602260
  32.1894120  76.4742620  15.7098700  32.9924590  76.5026750  16.9929080
  33.3504540  78.4995920  29.6372230  32.6252730  79.0924700  29.4401620
  33.8780000  78.4919460  28.8385600  33.3017650  82.8970660  19.2884390
  32.6593810  82.2426280  19.5628110  32.9148310  83.3025750  18.5125060
  28.8804130  80.2256090  23.1356080  29.2327950  79.6284220  22.4757450
  27.9966460  79.9000320  23.3064330  24.9667410  80.9853780  20.5426490
  25.6538540  81.5322990  20.9234080  24.1799830  81.5294510  20.5776100
  17.1059810  76.6026600  16.0343570  17.9754660  76.8851400  16.3179490
  16.6150130  77.4162470  15.9192380  24.2694620  77.9899810  20.1551850
  24.7257400  78.8005060  20.3812040  23.9182830  77.6722950  20.9870340
  26.5727230  83.5006150  27.3844150  27.2169450  83.7065530  28.0617570
  26.9356670  82.7394550  26.9315000  20.1706400  68.3337460  20.6274370
  20.0421030  68.3255360  21.5759290  19.3468420  68.6720550  20.2765380
  27.8459310  81.5038500  26.1021600  28.4881540  80.8031660  26.2153770
  28.3708660  82.2836940  25.9218490  31.6915030  81.7887120  15.8260740
  31.4652610  81.0717560  16.4185380  31.3011230  81.5399560  14.9882490
  29.6196930  82.3033400  29.3057660  29.9553170  82.8900090  29.9835580
  28.6997270  82.1726110  29.5355450  17.4731060  85.8153980  16.6005200
  17.8328700  86.4143320  15.9462470  17.3323400  86.3613870  17.3740230
  17.1700330  70.0928580  30.0881070  16.4558850  70.2925500  30.6933680
  17.5895370  69.3168150  30.4595870  31.2731280  79.7059060  17.4874900
  30.9852980  80.1671750  18.2752780  32.0683450  79.2456830  17.7559120
  17.4572920  84.0808840  31.0747600  17.5664040  83.1403580  30.9342990
  16.8053480  84.3463590  30.4261330  25.4485510  82.3524730  32.4745720
  25.1282380  81.6333970  33.0191410  24.7743870  83.0279800  32.5481780
  23.4899680  83.1985180  17.4178870  23.4809780  83.9314870  16.8023380
  22.5698040  82.9516760  17.5105830  19.0906320  78.4200070  18.1625630
  18.4834270  79.1598970  18.1720930  19.5655670  78.5099430  17.3363830
  28.6639110  72.5850890  27.8382520  29.0319930  71.7646100  28.1662090
  27.8037310  72.6452780  28.2538170  32.0301140  71.5407830  18.6470080
  31.4014300  71.6453500  17.9328310  31.5353060  71.7604610  19.4363960
  26.4759280  83.2613420  16.0804060  26.5771260  83.0577410  15.1506040
  25.5761020  83.0071700  16.2851840  23.9985170  73.8193780  20.0627960
  23.2901320  74.2880120  20.5041570  24.2829650  73.1615790  20.6973150
  25.6241100  75.2390480  28.0620490  26.1226350  75.7136300  28.7272340
  25.7664050  74.3154000  28.2690520  28.0300600  70.5444440  21.5023750
  27.9068380  70.5630570  20.5533260  28.9785160  70.5923380  21.6222150
  25.1177390  85.7799740  20.7751730  25.3718890  85.7421130  19.8531100
  24.1689870  85.6533070  20.7679980  22.2020190  72.1278860  17.4378670
  23.0510720  72.5649010  17.3718860  21.8351460  72.4399120  18.2650730
  32.8307960  71.4558440  28.9048880  32.3281560  72.1963840  29.2442690
  33.6464620  71.8442440  28.5885670  31.1229970  76.6991620  22.3510240
  30.1820110  76.7141850  22.5257930  31.4374040  75.9127580  22.7970540
  21.1011610  78.3811220  15.9114200  21.8674880  78.2692580  16.4739630
  21.1786300  77.6849190  15.2590970  19.7958370  75.8136290  16.5947090
  19.8761960  74.8663800  16.7064490  20.6878120  76.1443170  16.7007750
  33.1255550  83.8700470  24.0264500  33.2502970  84.6931640  24.4988310
  33.9921110  83.6591200  23.6788650  20.5973080  85.9631680  23.6981630
  21.3335560  85.4147140  23.9690200  20.9814000  86.8287690  23.5587620
  17.4818560  82.0305250  19.5723140  16.5558340  82.2726390  19.5628550
  17.9474990  82.8579510  19.4507890  19.6031360  85.1477750  32.8867210
  20.4044090  85.4689800  33.3002610  19.0883180  84.7873330  33.6087120
  23.7075390  85.1361990  15.5207200  24.5004000  85.4250820  15.0688990
  23.1879740  84.7054160  14.8419680  28.4395990  81.2557620  32.8342620
  27.8334150  81.2789220  32.0938370  28.1350100  80.5240660  33.3709870
  29.8696360  84.9837910  31.4452030  30.8218110  84.8995930  31.3952270
  29.7224580  85.6479620  32.1185820  32.7605560  84.3632120  16.9443940
  32.4747070  83.9497260  16.1298120  32.5625110  85.2919830  16.8244460
  17.3229170  77.6351210  31.8303260  17.8268190  77.0558490  32.4019490
  16.5836590  77.9191440  32.3679630  24.2252790  80.3565400  15.3849550
  24.1203430  79.7417750  16.1110930  24.0577010  79.8331290  14.6012560
  24.3767110  79.0422200  31.3638780  23.6112780  79.6107200  31.2793450
  24.5583070  78.7498410  30.4707010  27.4655520  79.4185430  15.9891540
  26.9165620  79.8654730  16.6334280  28.0874780  78.9134680  16.5129210
  31.5190460  80.7727530  31.9213800  32.2599930  81.1103290  31.4181260
  30.7563140  80.9419590  31.3683570  19.3552250  75.7780800  32.7253330
  19.3957590  75.4794670  33.6338560  20.2097750  76.1788410  32.5660850
  23.1330640  78.3776350  17.8856840  23.5547060  78.2116220  18.7288230
  23.2581480  77.5676580  17.3911980  21.2958060  74.3572900  30.6927820
  20.7654520  73.8663850  30.0651160  21.9646130  74.7857100  30.1585750
  25.6458280  77.4013960  15.1333940  26.1663940  76.6862980  14.7675090
  26.2926680  78.0399830  15.4334450  30.1936120  78.8242360  30.4569010
  30.6077140  78.9787440  31.3059430  29.2587120  78.9497580  30.6194790
  30.6658290  76.1638520  32.4608160  31.2479060  75.4090840  32.3728640
  30.8420060  76.6945960  31.6839640  21.7830360  71.3235270  30.7725110
  21.6887230  70.7056020  30.0475980  21.2027750  72.0501560  30.5455020
  24.5491800  69.8808510  27.8052500  24.1009100  69.9032770  26.9598050
  23.9157000  69.4827530  28.4022800  24.9551350  78.7762840  28.4264940
  25.3739460  79.6195570  28.2541180  24.0359980  78.9134880  28.1971720
  27.2915250  76.5079020  29.8102780  27.4111460  75.9120160  30.5497620
  28.1509250  76.5448710  29.3904080  29.6303150  77.0616210  28.3865290
  29.1038370  77.5858830  27.7830430  29.9734490  77.6943600  29.0175020
  22.0289540  74.4509580  14.8315000  21.8278600  73.5876940  15.1928340
  21.8581590  74.3642940  13.8936600  22.8058770  85.0815850  29.5422670
  22.2679860  85.8061910  29.2231370  23.0592730  84.6046190  28.7520010
  24.0584020  73.0500370  31.0678600  24.6483710  72.7416220  31.7556420
  23.2404260  72.5780120  31.2238500  28.8777450  72.6666180  31.3011620
  28.1892970  72.0047720  31.2361610  29.5983470  72.2204450  31.7460080
  29.5077850  69.2617810  17.3601880  29.7880140  68.4185710  17.7161300
  28.7343580  69.4940920  17.8740630  20.8272340  71.5510200  14.8192880
  21.1298240  71.5577630  13.9112030  21.5666930  71.2008060  15.3160540
  25.6620980  86.3167060  29.8009320  25.5879680  87.2202200  30.1081690
  24.7599820  85.9978960  29.7731390  24.0457270  70.4944820  15.8049080
  23.6979270  69.8168810  15.2251530  24.2470040  70.0334330  16.6192470
  26.2106310  85.4825570  17.4235680  27.1057100  85.8210540  17.4454440
  26.2423940  84.7604980  16.7959960  19.8502470  80.8552620  15.6522680
  20.2877340  81.3982290  16.3080260  20.3350200  80.0299570  15.6619020
  17.0648270  83.6441650  23.1042940  17.3951280  82.7762710  22.8721580
  17.4939270  83.8500170  23.9347900  21.6610190  81.9750660  20.7644910
  21.3605730  81.8515630  21.6648820  21.5547680  81.1159250  20.3560640
  17.5538480  84.5112240  25.8424570  17.1169470  84.6913040  26.6748720
  18.1216160  85.2686860  25.7006290  33.1900660  84.0129240  30.1301880
  32.5902650  84.0721800  29.3865800  33.3194560  83.0734220  30.2598730
  34.4302110  81.7547060  15.4671590  33.5995070  81.8223710  15.9378820
  34.6073940  82.6451180  15.1638450  33.8858570  78.4994540  17.9705790
  34.6477480  79.0691190  18.0765480  33.9012940  77.9321740  18.7414100
  17.3862910  77.0232470  22.2013450  16.7311750  76.7544110  21.5573150
  18.2240860  76.9136950  21.7515430  34.8918540  79.3544640  22.8147720
  35.2627370  78.5711960  22.4083690  35.5320470  80.0433740  22.6365020
  31.8752300  80.7381220  28.2278040  31.0612140  81.1678380  28.4903830
  32.2826500  81.3499630  27.6147090  33.9377740  78.7928910  15.1278310
  34.2126580  79.7007790  14.9997530  33.7488480  78.7291440  16.0640300
  30.3353350  71.8173760  16.4231940  30.7538230  71.6304740  15.5828600
  30.0289410  70.9652810  16.7334870  33.8343080  76.7297900  20.1207740
  33.4586680  75.9625830  19.6889030  33.1046200  77.1120600  20.6082670
  18.4238840  77.4085040  26.7416790  18.7911880  77.3212440  27.6212810
  17.8549660  76.6451590  26.6423650  33.2242700  75.8769420  29.7547260
  32.9928790  75.6482170  28.8545210  33.4847250  76.7968970  29.7092150
  17.9754840  74.3194130  30.6475210  17.0810890  74.2860890  30.9868920
  18.5152390  74.5180920  31.4126460  31.6630770  71.1025850  32.5326960
  32.5400950  71.1109250  32.9160960  31.6751610  70.3656690  31.9219310
  16.6000990  74.2331400  18.1438780  15.6965070  74.4961600  17.9690440
  17.0841610  74.5042570  17.3638740  33.1094040  74.9555390  23.4214980
  33.6331520  74.4618040  22.7905150  33.6953460  75.0905750  24.1662550
  33.2883760  75.0395260  26.9434530  32.3386470  75.0058800  27.0579520
  33.4696770  75.9495370  26.7084300  19.1428200  73.2896940  16.0533160
  19.8519900  72.8680160  15.5680440  18.4268140  73.3572170  15.4216510
  18.7902360  69.3436270  15.0935810  19.5130490  69.8845210  15.4117030
  19.0626880  69.0699690  14.2177350  32.5994010  74.2128740  19.3607390
  33.0953130  73.9799610  20.1456270  32.4010080  73.3740580  18.9445030
  18.4794550  68.5942460  24.9958430  19.1270740  68.0439840  24.5553590
  18.8996390  68.8485610  25.8174240  34.0281170  72.8489690  21.8945070
  33.9180450  72.6945730  22.8327340  34.7888760  72.3210630  21.6520480
  32.3746890  68.7883820  28.3528070  33.0119110  69.4017960  28.7187260
  32.5221780  68.8244480  27.4077300  34.9171440  70.6797610  15.1351210
  35.8420750  70.5478790  14.9269500  34.8947230  70.7590430  16.0887660
  34.9909930  71.4508270  17.7607920  34.1961430  71.3853390  18.2900830
  35.1953210  72.3858910  17.7493270  31.9328350  85.4899820  21.7546310
  32.5287420  85.1684390  21.0780730  32.1906500  85.0171640  22.5459580
  18.2326550  68.7498130  27.7383750  17.8841370  69.2061950  28.5041930
  17.9014250  67.8555260  27.8206180  19.8390920  81.9217730  31.9036940
  19.7960550  81.5510640  32.7851400  19.9701930  82.8595300  32.0438760
  23.5396950  83.4777320  27.5046660  23.2988310  83.7451880  26.6177180
  24.4799590  83.6483050  27.5597520  25.7451370  69.9410010  31.2603170
  25.6840260  70.5331840  32.0098580  26.6851750  69.8335970  31.1153430
  28.3825930  69.5980070  30.8995460  28.9966340  69.9159360  30.2376540
  28.9275490  69.1128660  31.5191320  34.8001110  85.4971700  28.3057300
  34.3059390  85.8940570  27.5884430  34.1914400  84.8720910  28.6994580
  18.9047190  68.2774330  31.0134520  19.4530180  68.0962380  30.2500630
  18.9702500  67.4868440  31.5490830  19.6778950  84.8679980  29.0234720
  19.0839270  84.7364680  29.7624760  19.6702790  84.0318120  28.5576820
  29.1233970  68.1612210  27.2264750  28.2493810  68.4947320  27.0237680
  29.0144720  67.6885390  28.0516620  30.0305950  70.3683080  28.6106470
  29.7019310  69.5534840  28.2308200  30.9788250  70.3252890  28.4872160
  32.4840560  86.1395120  25.5844040  32.0243530  86.8910930  25.2102060
  31.8553020  85.4201590  25.5258840  19.3091180  82.2338360  27.9742760
  18.5825240  81.6143650  27.9068710  19.3700330  82.6278970  27.1040840
  22.9136280  84.4483360  24.7592170  23.4301300  83.8370720  24.2340430
  23.5633660  84.9512140  25.2503180  25.6531780  85.3391850  25.5861150
  25.9409590  85.0846150  24.7094160  26.1655000  84.7869210  26.1766720
  26.8708790  69.0782050  26.1657660  26.0880580  69.5527550  26.4454420
  26.5771720  68.1736880  26.0570840  31.4229860  69.7805150  24.2106750
  31.8637950  69.7250250  23.3628350  31.1537450  70.6963160  24.2816930
  33.2868430  69.4120390  22.2215570  33.2256830  68.4681610  22.0746590
  34.0660460  69.5200480  22.7669030  17.5921180  85.5512750  21.1839520
  17.4243220  84.9183430  21.8821410  16.7255690  85.7572150  20.8333710
  18.2149200  69.3829530  18.6871380  18.9728560  69.4958410  18.1135410
  17.7526370  70.2198730  18.6414810  24.7563010  71.4968800  21.6773690
  23.9437520  71.1225690  21.3369570  25.2604650  70.7413880  21.9794880
  29.2587990  68.1611250  22.9156760  29.8617360  68.7331460  23.3905280
  28.5180980  68.7250690  22.6930660  32.4022590  68.5632810  18.1897040
  32.5973220  69.4616260  18.4564470  31.6152460  68.3319890  18.6829990
  19.1983880  84.2445980  18.6289660  18.6731500  84.6254010  17.9251620
  19.1228460  84.8696750  19.3499370  20.5874350  69.9093580  17.2273350
  21.1167110  69.1223380  17.0981300  21.2202670  70.5884770  17.4608880
  22.7812190  69.6468720  20.2818740  22.1514930  68.9456030  20.4488870
  22.2417330  70.4072850  20.0651900  25.7204140  86.2607950  32.9529350
  26.6471450  86.0252220  32.9965310  25.7054570  87.0879950  32.4715380
  33.9549200  85.8033520  19.9503600  34.1301390  85.1171260  19.3064520
  33.2570770  86.3280570  19.5580270  22.9067750  68.9252700  32.7171230
  22.6252020  69.4286300  31.9532050  23.2887450  68.1274450  32.3513360
  21.7976850  86.1928360  17.5038910  22.5295670  85.9087640  16.9562800
  22.0570520  85.9541640  18.3938290  20.9591640  82.3093090  17.5085240
  20.3300520  82.7778190  18.0571070  21.0739470  81.4642310  17.9431430
  29.5083210  68.3406280  33.2951700  29.3948660  68.6600890  34.1903220
  30.3252950  68.7418790  32.9988980  32.2881700  85.4877810  32.7770390
  33.0807020  84.9927040  32.5696350  32.5814850  86.1667950  33.3846000
  28.4141360  76.3598750   3.6586440  28.3335410  75.4453360   3.3878150
  28.0005780  76.8565820   2.9526150  26.5459400  78.1377770   5.5395710
  25.7701500  77.6578210   5.8294280  27.1972330  77.4583420   5.3651870
  20.5625230  78.4497580   6.4171470  19.7310110  78.1946290   6.8167980
  21.1706210  78.5208350   7.1529390  30.5666830  82.5437960   4.3194840
  30.1048360  81.7725200   4.6482010  31.3792380  82.5704030   4.8247290
  20.5426490  82.4837670   6.6129490  20.8454530  81.5935410   6.4339710
  21.2870080  83.0407890   6.3851740  16.9350190  76.0105120   6.0853560
  17.5066300  75.2427320   6.0857200  16.9351730  76.3093880   5.1760170
  26.7930140  84.8295970   3.9398830  26.1741580  85.2853470   3.3693270
  27.6481920  84.9847430   3.5388530  25.9868390  80.8134960   5.5465870
  25.9176670  79.8724900   5.3855000  26.7488250  80.9036370   6.1188440
  18.1775060  71.4189480   7.8722490  17.9977900  70.5215230   8.1525250
  17.7755140  71.9661350   8.5469440  27.0173560  73.6205340   5.7734800
  27.3938380  72.7477220   5.6608470  26.9193070  73.9564040   4.8825240
  30.7997680  71.1155780   2.7063140  31.6207300  70.6252350   2.7488620
  30.8331760  71.7053440   3.4594980  18.7961730  73.9149980   6.4804830
  19.4771840  74.1788350   7.0992230  18.4809780  73.0750850   6.8142840
  22.9886300  74.9617340   5.5677420  23.4964520  75.4598310   6.2082440
  23.5199540  74.1852540   5.3916780  35.0897230  73.1322530   9.2706770
  34.3849400  73.5204240   8.7521880  35.3555150  73.8272820   9.8727700
  21.2722400  69.6015900   9.8340840  21.2740840  70.1188290   9.0286740
  20.4426710  69.1246080   9.8110770  22.5225250  79.2411080   8.0114340
  22.1894630  79.8680000   8.6535410  22.6991930  79.7672960   7.2316010
  31.0359160  73.0556160   5.4790680  30.3314730  73.3441050   6.0593790
  31.3971320  73.8656270   5.1190240  20.9537730  71.3125860   7.8411290
  21.2954540  72.1567910   7.5465160  20.0153540  71.4609600   7.9576630
  21.7344350  81.2091880   9.8263520  22.3518350  81.8842960   9.5447970
  20.8737470  81.6179860   9.7351020  32.6521940  82.6731290   7.7418160
  31.9685460  83.3430400   7.7334830  33.1916230  82.8711940   6.9763020
  34.1046080  72.5010950   5.8699890  33.1570990  72.5349930   6.0015320
  34.4296070  73.3149900   6.2549250  24.6365620  68.8008130   4.1655880
  24.9440600  68.2455020   3.4491380  23.7066320  68.9352590   3.9828870
  30.1880680  84.5175420   6.4563340  30.2007840  84.1137710   5.5885600
  29.6355900  85.2922710   6.3524770  29.5866120  79.4205260   7.7845950
  30.0034910  79.2065370   6.9499410  30.3105940  79.6778050   8.3554570
  33.5328220  77.8192480   7.8762190  32.7046850  77.8885570   7.4012320
  34.1278700  78.4046790   7.4078020  30.4970230  74.6061800   8.8217060
  30.0841410  75.4315510   9.0757050  29.7646180  74.0206840   8.6293420
  22.6303020  77.3921700   3.6835730  22.2260020  76.6798950   3.1881630
  22.7166140  77.0474940   4.5723770  23.0984720  81.0789260   5.8474940
  22.8013010  80.4734730   5.1682720  24.0484540  81.1166570   5.7364300
  21.3431640  74.1664910   7.4634770  21.8946230  74.2760250   6.6888020
  21.8575150  74.5402510   8.1790000  31.1870330  84.6521130   9.5098040
  30.7100890  85.4593320   9.3170650  30.5032120  83.9999460   9.6624250
  22.1903150  80.8170950  12.4982740  21.2931680  81.0410920  12.7456140
  22.2156020  80.9405890  11.5494140  21.0174370  77.6884270  11.0740110
  20.8782140  78.5607070  11.4427510  20.1355730  77.3457080  10.9288050
  27.3403750  82.6060140   2.3805240  27.7799660  83.3484470   1.9660630
  27.2790640  82.8486710   3.3044200  22.8154720  83.6305970  13.2825260
  22.7870150  84.0348920  12.4153690  22.6519690  82.7016330  13.1196860
  34.7669540  84.4133070  14.5789430  35.2429260  84.8915960  15.2578510
  35.3876700  84.3450560  13.8534930  16.9693020  79.4581820   6.9911020
  17.0473440  79.5930590   6.0466740  17.5834700  78.7497710   7.1839140
  18.2140650  81.1582010   3.4017200  17.8068730  81.2996600   2.5470800
  19.1053660  80.8742170   3.1988410  34.1702790  81.6045920  11.7389440
  34.2965850  81.3657800  10.8206620  34.2124170  80.7730460  12.2111520
  28.0319530  85.3073920  10.3084250  28.5464200  85.2181930  11.1106680
  27.1888610  85.6533620  10.6012160  29.2749990  84.7279530   2.3714740
  29.7306940  83.9468910   2.6853360  29.6142510  85.4386350   2.9155920
  34.0226800  73.6578380  12.7039180  33.4071070  74.1658050  12.1754640
  33.7023220  72.7576710  12.6465120  17.0252540  80.4995990   9.5305480
  17.1883580  80.0301350   8.7124850  17.4904990  79.9919550  10.1954320
  21.7971310  69.6301750   4.5666050  21.3539460  70.4111290   4.2350570
  22.3556300  69.9531640   5.2736990  26.0841120  72.4970270  10.1701370
  25.6220490  72.7053290  10.9821310  25.6819230  71.6829620   9.8672040
  31.0845630  73.7179220  11.2998030  30.2339220  73.4184970  11.6207100
  30.9247420  73.9621230  10.3881850  28.1795340  75.2180970  13.3996820
  28.5048750  74.3844720  13.0599050  28.9675670  75.7409490  13.5475150
  23.8347210  70.1749080   6.4255650  24.1319540  71.0811910   6.3447670
  24.3832770  69.6867860   5.8115220  21.5885530  74.7535320   2.2947300
  21.3626450  74.5372490   3.1993920  20.8078060  75.1863780   1.9493270
  24.0284740  75.6520900  12.9607570  23.9328340  74.7115630  12.8107970
  24.8716720  75.8735970  12.5655640  27.4248160  73.3962230   2.9241230
  27.8177730  73.7134430   2.1109920  27.7865010  72.5174110   3.0385750
  19.1595280  72.0634570  11.1141350  18.7658670  72.9109780  11.3214130
  18.4713680  71.4260940  11.3049990  25.7340330  72.1469540  14.1838090
  25.0438650  71.9541740  14.8184180  26.4772630  72.4304180  14.7162390
  16.4612330  69.9863030   5.1471430  16.1725380  70.5565890   5.8596410
  17.2058090  69.5067480   5.5102660  28.0103300  75.9867980   7.0192010
  27.2784420  76.4954790   7.3682110  27.6127640  75.1697960   6.7180790
  24.4480690  72.6622180   5.4244500  24.4516750  72.2212130   4.5749040
  25.3431810  72.9839510   5.5316320  20.2983070  72.5448670   4.3838710
  19.9583120  73.0223900   5.1405760  19.5360390  72.0913790   4.0239810
  28.4729210  71.4401660   6.4314950  28.4901950  71.8910310   7.2756800
  28.2244790  70.5407300   6.6448390  31.8999960  68.8533840  12.2701330
  32.2245730  68.1223500  12.7959310  31.9356470  68.5347480  11.3682320
  18.5991520  79.8747420  11.6901290  18.2146310  79.2341090  12.2884250
  18.9103710  80.5783540  12.2596020  24.7488660  76.7223960   7.1709910
  25.1158790  76.2482530   7.9171250  24.5593720  77.5965530   7.5118250
  17.6129150  71.4667650   3.3003380  17.3276070  71.1023320   4.1382000
  17.5508010  70.7348110   2.6866520  22.5388030  75.7632600   9.4894120
  22.2345100  76.6424580   9.7144480  23.4934490  75.8232390   9.5251560
  31.8257800  78.9658950   5.8787360  32.5456920  79.4614240   5.4883470
  31.6239620  78.2876840   5.2341230  27.2076600  79.0368010  11.7656360
  27.1413910  78.1163680  11.5113950  26.5781740  79.1343450  12.4801000
  21.1107220  79.6373970   3.7239780  21.6285890  78.8342230   3.6696670
  20.6591240  79.5753110   4.5656610  18.5951760  76.6035340  10.6365480
  18.2366700  77.2689190  11.2238820  18.3006320  75.7718890  11.0078100
  21.7964880  77.0619580  13.5205030  21.4965020  77.2076760  12.6232850
  22.5676120  76.5024870  13.4278420  27.1393330  81.8588580  11.5160160
  27.1537870  80.9269540  11.2979070  26.4318430  81.9448340  12.1549930
  33.3504540  78.4995920  10.8628740  32.6252730  79.0924700  10.6658130
  33.8780000  78.4919460  10.0642110  28.8804130  80.2256090   4.3612590
  29.2327950  79.6284220   3.7013960  27.9966460  79.9000320   4.5320840
  24.9667410  80.9853780   1.7683000  25.6538540  81.5322990   2.1490590
  24.1799830  81.5294510   1.8032610  26.5727230  83.5006150   8.6100660
  27.2169450  83.7065530   9.2874080  26.9356670  82.7394550   8.1571510
  27.8459310  81.5038500   7.3278110  28.4881540  80.8031660   7.4410280
  28.3708660  82.2836940   7.1475000  29.6196930  82.3033400  10.5314170
  29.9553170  82.8900090  11.2092090  28.6997270  82.1726110  10.7611960
  17.1700330  70.0928580  11.3137580  16.4558850  70.2925500  11.9190190
  17.5895370  69.3168150  11.6852380  17.4572920  84.0808840  12.3004110
  17.5664040  83.1403580  12.1599500  16.8053480  84.3463590  11.6517840
  25.4485510  82.3524730  13.7002230  25.1282380  81.6333970  14.2447920
  24.7743870  83.0279800  13.7738290  28.6639110  72.5850890   9.0639030
  29.0319930  71.7646100   9.3918600  27.8037310  72.6452780   9.4794680
  25.6241100  75.2390480   9.2877000  26.1226350  75.7136300   9.9528850
  25.7664050  74.3154000   9.4947030  28.0300600  70.5444440   2.7280260
  27.9068380  70.5630570   1.7789770  28.9785160  70.5923380   2.8478660
  32.8307960  71.4558440  10.1305390  32.3281560  72.1963840  10.4699200
  33.6464620  71.8442440   9.8142180  31.1229970  76.6991620   3.5766750
  30.1820110  76.7141850   3.7514440  31.4374040  75.9127580   4.0227050
  33.1255550  83.8700470   5.2521010  33.2502970  84.6931640   5.7244820
  33.9921110  83.6591200   4.9045160  20.5973080  85.9631680   4.9238140
  21.3335560  85.4147140   5.1946710  20.9814000  86.8287690   4.7844130
  19.6031360  85.1477750  14.1123720  20.4044090  85.4689800  14.5259120
  19.0883180  84.7873330  14.8343630  28.4395990  81.2557620  14.0599130
  27.8334150  81.2789220  13.3194880  28.1350100  80.5240660  14.5966380
  29.8696360  84.9837910  12.6708540  30.8218110  84.8995930  12.6208780
  29.7224580  85.6479620  13.3442330  17.3229170  77.6351210  13.0559770
  17.8268190  77.0558490  13.6276000  16.5836590  77.9191440  13.5936140
  24.3767110  79.0422200  12.5895290  23.6112780  79.6107200  12.5049960
  24.5583070  78.7498410  11.6963520  31.5190460  80.7727530  13.1470310
  32.2599930  81.1103290  12.6437770  30.7563140  80.9419590  12.5940080
  19.3552250  75.7780800  13.9509840  19.3957590  75.4794670  14.8595070
  20.2097750  76.1788410  13.7917360  21.2958060  74.3572900  11.9184330
  20.7654520  73.8663850  11.2907670  21.9646130  74.7857100  11.3842260
  30.1936120  78.8242360  11.6825520  30.6077140  78.9787440  12.5315940
  29.2587120  78.9497580  11.8451300  30.6658290  76.1638520  13.6864670
  31.2479060  75.4090840  13.5985150  30.8420060  76.6945960  12.9096150
  21.7830360  71.3235270  11.9981620  21.6887230  70.7056020  11.2732490
  21.2027750  72.0501560  11.7711530  24.5491800  69.8808510   9.0309010
  24.1009100  69.9032770   8.1854560  23.9157000  69.4827530   9.6279310
  24.9551350  78.7762840   9.6521450  25.3739460  79.6195570   9.4797690
  24.0359980  78.9134880   9.4228230  27.2915250  76.5079020  11.0359290
  27.4111460  75.9120160  11.7754130  28.1509250  76.5448710  10.6160590
  29.6303150  77.0616210   9.6121800  29.1038370  77.5858830   9.0086940
  29.9734490  77.6943600  10.2431530  22.8058770  85.0815850  10.7679180
  22.2679860  85.8061910  10.4487880  23.0592730  84.6046190   9.9776520
  24.0584020  73.0500370  12.2935110  24.6483710  72.7416220  12.9812930
  23.2404260  72.5780120  12.4495010  28.8777450  72.6666180  12.5268130
  28.1892970  72.0047720  12.4618120  29.5983470  72.2204450  12.9716590
  25.6620980  86.3167060  11.0265830  25.5879680  87.2202200  11.3338200
  24.7599820  85.9978960  10.9987900  17.0648270  83.6441650   4.3299450
  17.3951280  82.7762710   4.0978090  17.4939270  83.8500170   5.1604410
  17.5538480  84.5112240   7.0681080  17.1169470  84.6913040   7.9005230
  18.1216160  85.2686860   6.9262800  33.1900660  84.0129240  11.3558390
  32.5902650  84.0721800  10.6122310  33.3194560  83.0734220  11.4855240
  17.3862910  77.0232470   3.4269960  16.7311750  76.7544110   2.7829660
  18.2240860  76.9136950   2.9771940  34.8918540  79.3544640   4.0404230
  35.2627370  78.5711960   3.6340200  35.5320470  80.0433740   3.8621530
  31.8752300  80.7381220   9.4534550  31.0612140  81.1678380   9.7160340
  32.2826500  81.3499630   8.8403600  18.4238840  77.4085040   7.9673300
  18.7911880  77.3212440   8.8469320  17.8549660  76.6451590   7.8680160
  33.2242700  75.8769420  10.9803770  32.9928790  75.6482170  10.0801720
  33.4847250  76.7968970  10.9348660  17.9754840  74.3194130  11.8731720
  17.0810890  74.2860890  12.2125430  18.5152390  74.5180920  12.6382970
  31.6630770  71.1025850  13.7583470  32.5400950  71.1109250  14.1417470
  31.6751610  70.3656690  13.1475820  33.1094040  74.9555390   4.6471490
  33.6331520  74.4618040   4.0161660  33.6953460  75.0905750   5.3919060
  33.2883760  75.0395260   8.1691040  32.3386470  75.0058800   8.2836030
  33.4696770  75.9495370   7.9340810  18.4794550  68.5942460   6.2214940
  19.1270740  68.0439840   5.7810100  18.8996390  68.8485610   7.0430750
  34.0281170  72.8489690   3.1201580  33.9180450  72.6945730   4.0583850
  34.7888760  72.3210630   2.8776990  32.3746890  68.7883820   9.5784580
  33.0119110  69.4017960   9.9443770  32.5221780  68.8244480   8.6333810
  31.9328350  85.4899820   2.9802820  32.5287420  85.1684390   2.3037240
  32.1906500  85.0171640   3.7716090  18.2326550  68.7498130   8.9640260
  17.8841370  69.2061950   9.7298440  17.9014250  67.8555260   9.0462690
  19.8390920  81.9217730  13.1293450  19.7960550  81.5510640  14.0107910
  19.9701930  82.8595300  13.2695270  23.5396950  83.4777320   8.7303170
  23.2988310  83.7451880   7.8433690  24.4799590  83.6483050   8.7854030
  25.7451370  69.9410010  12.4859680  25.6840260  70.5331840  13.2355090
  26.6851750  69.8335970  12.3409940  28.3825930  69.5980070  12.1251970
  28.9966340  69.9159360  11.4633050  28.9275490  69.1128660  12.7447830
  34.8001110  85.4971700   9.5313810  34.3059390  85.8940570   8.8140940
  34.1914400  84.8720910   9.9251090  18.9047190  68.2774330  12.2391030
  19.4530180  68.0962380  11.4757140  18.9702500  67.4868440  12.7747340
  19.6778950  84.8679980  10.2491230  19.0839270  84.7364680  10.9881270
  19.6702790  84.0318120   9.7833330  29.1233970  68.1612210   8.4521260
  28.2493810  68.4947320   8.2494190  29.0144720  67.6885390   9.2773130
  30.0305950  70.3683080   9.8362980  29.7019310  69.5534840   9.4564710
  30.9788250  70.3252890   9.7128670  32.4840560  86.1395120   6.8100550
  32.0243530  86.8910930   6.4358570  31.8553020  85.4201590   6.7515350
  19.3091180  82.2338360   9.1999270  18.5825240  81.6143650   9.1325220
  19.3700330  82.6278970   8.3297350  22.9136280  84.4483360   5.9848680
  23.4301300  83.8370720   5.4596940  23.5633660  84.9512140   6.4759690
  25.6531780  85.3391850   6.8117660  25.9409590  85.0846150   5.9350670
  26.1655000  84.7869210   7.4023230  26.8708790  69.0782050   7.3914170
  26.0880580  69.5527550   7.6710930  26.5771720  68.1736880   7.2827350
  31.4229860  69.7805150   5.4363260  31.8637950  69.7250250   4.5884860
  31.1537450  70.6963160   5.5073440  33.2868430  69.4120390   3.4472080
  33.2256830  68.4681610   3.3003100  34.0660460  69.5200480   3.9925540
  17.5921180  85.5512750   2.4096030  17.4243220  84.9183430   3.1077920
  16.7255690  85.7572150   2.0590220  24.7563010  71.4968800   2.9030200
  23.9437520  71.1225690   2.5626080  25.2604650  70.7413880   3.2051390
  29.2587990  68.1611250   4.1413270  29.8617360  68.7331460   4.6161790
  28.5180980  68.7250690   3.9187170  25.7204140  86.2607950  14.1785860
  26.6471450  86.0252220  14.2221820  25.7054570  87.0879950  13.6971890
  22.9067750  68.9252700  13.9427740  22.6252020  69.4286300  13.1788560
  23.2887450  68.1274450  13.5769870  29.5083210  68.3406280  14.5208210
  29.3948660  68.6600890  15.4159730  30.3252950  68.7418790  14.2245490
  32.2881700  85.4877810  14.0026900  33.0807020  84.9927040  13.7952860
  32.5814850  86.1667950  14.6102510  28.4141360  57.5855260  97.5303890
  28.3335410  56.6709870  97.2595600  28.0005780  58.0822330  96.8243600
  26.5459400  59.3634280  99.4113160  25.7701500  58.8834720  99.7011730
  27.1972330  58.6839930  99.2369320  20.5625230  59.6754090 100.2888920
  19.7310110  59.4202800 100.6885430  21.1706210  59.7464860 101.0246840
  30.5666830  63.7694470  98.1912290  30.1048360  62.9981710  98.5199460
  31.3792380  63.7960540  98.6964740  20.5426490  63.7094180 100.4846940
  20.8454530  62.8191920 100.3057160  21.2870080  64.2664400 100.2569190
  18.9717180  54.6355980  94.0731310  18.0833880  54.9771950  93.9711190
  19.2558370  54.4356300  93.1812140  16.9350190  57.2361630  99.9571010
  17.5066300  56.4683830  99.9574650  16.9351730  57.5350390  99.0477620
  26.7930140  66.0552480  97.8116280  26.1741580  66.5109980  97.2410720
  27.6481920  66.2103940  97.4105980  25.9868390  62.0391470  99.4183320
  25.9176670  61.0981410  99.2572450  26.7488250  62.1292880  99.9905890
  18.1775060  52.6445990 101.7439940  17.9977900  51.7471740 102.0242700
  17.7755140  53.1917860 102.4186890  27.0173560  54.8461850  99.6452250
  27.3938380  53.9733730  99.5325920  26.9193070  55.1820550  98.7542690
  21.1478570  53.2187480  95.1069690  21.2545320  54.1191210  95.4138450
  20.2370930  53.1705450  94.8164340  30.7997680  52.3412290  96.5780590
  31.6207300  51.8508860  96.6206070  30.8331760  52.9309950  97.3312430
  18.7961730  55.1406490 100.3522280  19.4771840  55.4044860 100.9709680
  18.4809780  54.3007360 100.6860290  22.9886300  56.1873850  99.4394870
  23.4964520  56.6854820 100.0799890  23.5199540  55.4109050  99.2634230
  27.6593490  60.9391720  95.2048190  27.0410760  61.4041170  94.6410910
  28.1716740  61.6319200  95.6217700  22.5225250  60.4667590 101.8831790
  22.1894630  61.0936510 102.5252860  22.6991930  60.9929470 101.1033460
  31.0359160  54.2812670  99.3508130  30.3314730  54.5697560  99.9311240
  31.3971320  55.0912780  98.9907690  20.9537730  52.5382370 101.7128740
  21.2954540  53.3824420 101.4182610  20.0153540  52.6866110 101.8294080
  17.0276690  61.6248250  92.5787820  16.6504670  62.1135350  91.8472720
  17.2849760  62.2973530  93.2094350  32.6521940  63.8987800 101.6135610
  31.9685460  64.5686910 101.6052280  33.1916230  64.0968450 100.8480470
  34.1046080  53.7267460  99.7417340  33.1570990  53.7606440  99.8732770
  34.4296070  54.5406410 100.1266700  24.6365620  50.0264640  98.0373330
  24.9440600  49.4711530  97.3208830  23.7066320  50.1609100  97.8546320
  30.1880680  65.7431930 100.3280790  30.2007840  65.3394220  99.4603050
  29.6355900  66.5179220 100.2242220  31.4826100  62.4648150  95.4170960
  31.3722430  61.5222480  95.5420380  31.4794350  62.8263790  96.3033720
  29.5866120  60.6461770 101.6563400  30.0034910  60.4321880 100.8216860
  30.3105940  60.9034560 102.2272020  27.0246380  58.0913470  94.7733450
  26.0975660  58.0250850  95.0021920  27.1771200  59.0293600  94.6588690
  27.0115460  54.3630470  91.7700610  26.0719130  54.5244430  91.8553070
  27.3298720  55.0816150  91.2236600  33.5328220  59.0448990 101.7479640
  32.7046850  59.1142080 101.2729770  34.1278700  59.6303300 101.2795470
  31.0543670  59.6533770  95.2768700  30.4356090  59.3153320  94.6295000
  31.0368120  59.0093530  95.9847890  22.6303020  58.6178210  97.5553180
  22.2260020  57.9055460  97.0599080  22.7166140  58.2731450  98.4441220
  23.0984720  62.3045770  99.7192390  22.8013010  61.6991240  99.0400170
  24.0484540  62.3423080  99.6081750  21.3431640  55.3921420 101.3352220
  21.8946230  55.5016760 100.5605470  21.8575150  55.7659020 102.0507450
  29.2308370  58.8920580  92.2841450  29.6701650  58.0543010  92.1379270
  29.9436790  59.5249980  92.3705590  27.3403750  63.8316650  96.2522690
  27.7799660  64.5740980  95.8378080  27.2790640  64.0743220  97.1761650
  32.8125510  50.1463390  90.5982490  32.4998170  50.2390220  91.4981560
  33.5737980  50.7244420  90.5479920  19.3307650  57.5123190  95.0559830
  19.2105250  58.2385280  94.4441100  19.0208540  56.7426100  94.5787740
  16.9693020  60.6838330 100.8628470  17.0473440  60.8187100  99.9184190
  17.5834700  59.9754220 101.0556590  18.2140650  62.3838520  97.2734650
  17.8068730  62.5253110  96.4188250  19.1053660  62.0998680  97.0705860
  30.0073930  66.8185770  93.6085700  29.8475070  66.5288710  94.5067530
  29.8420640  66.0425900  93.0730930  22.4862310  66.5984300  95.3857320
  22.3104790  65.6819840  95.1725120  21.6318050  66.9571590  95.6255120
  29.7100060  64.3273330  92.1683700  29.0165220  64.3250620  91.5085980
  30.4522920  63.9032650  91.7377870  29.2749990  65.9536040  96.2432190
  29.7306940  65.1725420  96.5570810  29.6142510  66.6642860  96.7873370
  21.7971310  50.8558260  98.4383500  21.3539460  51.6367800  98.1068020
  22.3556300  51.1788150  99.1454440  24.9130130  50.4768960  93.3189330
  24.2884310  50.4728830  94.0442640  24.8260250  49.6099920  92.9225300
  23.8347210  51.4005590 100.2973100  24.1319540  52.3068420 100.2165120
  24.3832770  50.9124370  99.6832670  21.5885530  55.9791830  96.1664750
  21.3626450  55.7629000  97.0711370  20.8078060  56.4120290  95.8210720
  28.8183290  55.9855200  94.7655400  28.2192180  56.7091000  94.5819020
  29.3662900  55.9231980  93.9831850  27.4248160  54.6218740  96.7958680
  27.8177730  54.9390940  95.9827370  27.7865010  53.7430620  96.9103200
  16.4612330  51.2119540  99.0188880  16.1725380  51.7822400  99.7313860
  17.2058090  50.7323990  99.3820110  16.6482560  55.1539660  90.2291600
  16.5657230  56.0970420  90.3706590  16.2965620  55.0114570  89.3503950
  28.0103300  57.2124490 100.8909460  27.2784420  57.7211300 101.2399560
  27.6127640  56.3954470 100.5898240  24.4480690  53.8878690  99.2961950
  24.4516750  53.4468640  98.4466490  25.3431810  54.2096020  99.4033770
  20.2983070  53.7705180  98.2556160  19.9583120  54.2480410  99.0123210
  19.5360390  53.3170300  97.8957260  24.5100840  54.8890770  92.2868710
  24.6313660  54.8477250  93.2354530  24.1249350  55.7514920  92.1315440
  28.4729210  52.6658170 100.3032400  28.4901950  53.1166820 101.1474250
  28.2244790  51.7663810 100.5165840  23.5222340  57.1991910  91.6852010
  22.9539240  56.7510160  91.0587920  24.2311340  57.5584690  91.1517160
  24.7488660  57.9480470 101.0427360  25.1158790  57.4739040 101.7888700
  24.5593720  58.8222040 101.3835700  17.6129150  52.6924160  97.1720830
  17.3276070  52.3279830  98.0099450  17.5508010  51.9604620  96.5583970
  21.0669820  61.1950100  93.9578420  20.2932080  60.6547720  93.7977140
  21.7964450  60.6756710  93.6196180  31.8257800  60.1915460  99.7504810
  32.5456920  60.6870750  99.3600920  31.6239620  59.5133350  99.1058680
  27.2867740  51.5853420  93.8934200  26.4732350  51.0866590  93.8179510
  27.0929690  52.4251670  93.4770550  30.0016130  55.9573070  92.1896360
  30.8895750  56.2690300  92.0147700  29.9721220  55.0845320  91.7976940
  21.1107220  60.8630480  97.5957230  21.6285890  60.0598740  97.5414120
  20.6591240  60.8009620  98.4374060  25.9976720  62.1296760  92.8684530
  26.3392420  62.8738990  92.3727850  25.1689430  62.4427880  93.2309360
  32.2730400  57.2684910  91.6576220  32.1894120  57.6999130  90.8072660
  32.9924590  57.7283260  92.0903040  33.3017650  64.1227170  94.3858350
  32.6593810  63.4682790  94.6602070  32.9148310  64.5282260  93.6099020
  28.8804130  61.4512600  98.2330040  29.2327950  60.8540730  97.5731410
  27.9966460  61.1256830  98.4038290  24.9667410  62.2110290  95.6400450
  25.6538540  62.7579500  96.0208040  24.1799830  62.7551020  95.6750060
  17.1059810  57.8283110  91.1317530  17.9754660  58.1107910  91.4153450
  16.6150130  58.6418980  91.0166340  24.2694620  59.2156320  95.2525810
  24.7257400  60.0261570  95.4786000  23.9182830  58.8979460  96.0844300
  20.1706400  49.5593970  95.7248330  20.0421030  49.5511870  96.6733250
  19.3468420  49.8977060  95.3739340  27.8459310  62.7295010 101.1995560
  28.4881540  62.0288170 101.3127730  28.3708660  63.5093450 101.0192450
  31.6915030  63.0143630  90.9234700  31.4652610  62.2974070  91.5159340
  31.3011230  62.7656070  90.0856450  17.4731060  67.0410490  91.6979160
  17.8328700  67.6399830  91.0436430  17.3323400  67.5870380  92.4714190
  31.2731280  60.9315570  92.5848860  30.9852980  61.3928260  93.3726740
  32.0683450  60.4713340  92.8533080  23.4899680  64.4241690  92.5152830
  23.4809780  65.1571380  91.8997340  22.5698040  64.1773270  92.6079790
  19.0906320  59.6456580  93.2599590  18.4834270  60.3855480  93.2694890
  19.5655670  59.7355940  92.4337790  32.0301140  52.7664340  93.7444040
  31.4014300  52.8710010  93.0302270  31.5353060  52.9861120  94.5337920
  26.4759280  64.4869930  91.1778020  26.5771260  64.2833920  90.2480000
  25.5761020  64.2328210  91.3825800  23.9985170  55.0450290  95.1601920
  23.2901320  55.5136630  95.6015530  24.2829650  54.3872300  95.7947110
  28.0300600  51.7700950  96.5997710  27.9068380  51.7887080  95.6507220
  28.9785160  51.8179890  96.7196110  25.1177390  67.0056250  95.8725690
  25.3718890  66.9677640  94.9505060  24.1689870  66.8789580  95.8653940
  22.2020190  53.3535370  92.5352630  23.0510720  53.7905520  92.4692820
  21.8351460  53.6655630  93.3624690  31.1229970  57.9248130  97.4484200
  30.1820110  57.9398360  97.6231890  31.4374040  57.1384090  97.8944500
  21.1011610  59.6067730  91.0088160  21.8674880  59.4949090  91.5713590
  21.1786300  58.9105700  90.3564930  19.7958370  57.0392800  91.6921050
  19.8761960  56.0920310  91.8038450  20.6878120  57.3699680  91.7981710
  33.1255550  65.0956980  99.1238460  33.2502970  65.9188150  99.5962270
  33.9921110  64.8847710  98.7762610  20.5973080  67.1888190  98.7955590
  21.3335560  66.6403650  99.0664160  20.9814000  68.0544200  98.6561580
  17.4818560  63.2561760  94.6697100  16.5558340  63.4982900  94.6602510
  17.9474990  64.0836020  94.5481850  23.7075390  66.3618500  90.6181160
  24.5004000  66.6507330  90.1662950  23.1879740  65.9310670  89.9393640
  32.7605560  65.5888630  92.0417900  32.4747070  65.1753770  91.2272080
  32.5625110  66.5176340  91.9218420  24.2252790  61.5821910  90.4823510
  24.1203430  60.9674260  91.2084890  24.0577010  61.0587800  89.6986520
  27.4655520  60.6441940  91.0865500  26.9165620  61.0911240  91.7308240
  28.0874780  60.1391190  91.6103170  23.1330640  59.6032860  92.9830800
  23.5547060  59.4372730  93.8262190  23.2581480  58.7933090  92.4885940
  25.6458280  58.6270470  90.2307900  26.1663940  57.9119490  89.8649050
  26.2926680  59.2656340  90.5308410  22.0289540  55.6766090  89.9288960
  21.8278600  54.8133450  90.2902300  21.8581590  55.5899450  88.9910560
  29.5077850  50.4874320  92.4575840  29.7880140  49.6442220  92.8135260
  28.7343580  50.7197430  92.9714590  20.8272340  52.7766710  89.9166840
  21.1298240  52.7834140  89.0085990  21.5666930  52.4264570  90.4134500
  24.0457270  51.7201330  90.9023040  23.6979270  51.0425320  90.3225490
  24.2470040  51.2590840  91.7166430  26.2106310  66.7082080  92.5209640
  27.1057100  67.0467050  92.5428400  26.2423940  65.9861490  91.8933920
  19.8502470  62.0809130  90.7496640  20.2877340  62.6238800  91.4054220
  20.3350200  61.2556080  90.7592980  17.0648270  64.8698160  98.2016900
  17.3951280  64.0019220  97.9695540  17.4939270  65.0756680  99.0321860
  21.6610190  63.2007170  95.8618870  21.3605730  63.0772140  96.7622780
  21.5547680  62.3415760  95.4534600  17.5538480  65.7368750 100.9398530
  17.1169470  65.9169550 101.7722680  18.1216160  66.4943370 100.7980250
  34.4302110  62.9803570  90.5645550  33.5995070  63.0480220  91.0352780
  34.6073940  63.8707690  90.2612410  33.8858570  59.7251050  93.0679750
  34.6477480  60.2947700  93.1739440  33.9012940  59.1578250  93.8388060
  17.3862910  58.2488980  97.2987410  16.7311750  57.9800620  96.6547110
  18.2240860  58.1393460  96.8489390  34.8918540  60.5801150  97.9121680
  35.2627370  59.7968470  97.5057650  35.5320470  61.2690250  97.7338980
  33.9377740  60.0185420  90.2252270  34.2126580  60.9264300  90.0971490
  33.7488480  59.9547950  91.1614260  30.3353350  53.0430270  91.5205900
  30.7538230  52.8561250  90.6802560  30.0289410  52.1909320  91.8308830
  33.8343080  57.9554410  95.2181700  33.4586680  57.1882340  94.7862990
  33.1046200  58.3377110  95.7056630  18.4238840  58.6341550 101.8390750
  18.7911880  58.5468950 102.7186770  17.8549660  57.8708100 101.7397610
  16.6000990  55.4587910  93.2412740  15.6965070  55.7218110  93.0664400
  17.0841610  55.7299080  92.4612700  33.1094040  56.1811900  98.5188940
  33.6331520  55.6874550  97.8879110  33.6953460  56.3162260  99.2636510
  33.2883760  56.2651770 102.0408490  32.3386470  56.2315310 102.1553480
  33.4696770  57.1751880 101.8058260  19.1428200  54.5153450  91.1507120
  19.8519900  54.0936670  90.6654400  18.4268140  54.5828680  90.5190470
  18.7902360  50.5692780  90.1909770  19.5130490  51.1101720  90.5090990
  19.0626880  50.2956200  89.3151310  32.5994010  55.4385250  94.4581350
  33.0953130  55.2056120  95.2430230  32.4010080  54.5997090  94.0418990
  18.4794550  49.8198970 100.0932390  19.1270740  49.2696350  99.6527550
  18.8996390  50.0742120 100.9148200  34.0281170  54.0746200  96.9919030
  33.9180450  53.9202240  97.9301300  34.7888760  53.5467140  96.7494440
  34.9171440  51.9054120  90.2325170  35.8420750  51.7735300  90.0243460
  34.8947230  51.9846940  91.1861620  34.9909930  52.6764780  92.8581880
  34.1961430  52.6109900  93.3874790  35.1953210  53.6115420  92.8467230
  31.9328350  66.7156330  96.8520270  32.5287420  66.3940900  96.1754690
  32.1906500  66.2428150  97.6433540  23.5396950  64.7033830 102.6020620
  23.2988310  64.9708390 101.7151140  24.4799590  64.8739560 102.6571480
  32.4840560  67.3651630 100.6818000  32.0243530  68.1167440 100.3076020
  31.8553020  66.6458100 100.6232800  22.9136280  65.6739870  99.8566130
  23.4301300  65.0627230  99.3314390  23.5633660  66.1768650 100.3477140
  25.6531780  66.5648360 100.6835110  25.9409590  66.3102660  99.8068120
  26.1655000  66.0125720 101.2740680  26.8708790  50.3038560 101.2631620
  26.0880580  50.7784060 101.5428380  26.5771720  49.3993390 101.1544800
  31.4229860  51.0061660  99.3080710  31.8637950  50.9506760  98.4602310
  31.1537450  51.9219670  99.3790890  33.2868430  50.6376900  97.3189530
  33.2256830  49.6938120  97.1720550  34.0660460  50.7456990  97.8642990
  17.5921180  66.7769260  96.2813480  17.4243220  66.1439940  96.9795370
  16.7255690  66.9828660  95.9307670  18.2149200  50.6086040  93.7845340
  18.9728560  50.7214920  93.2109370  17.7526370  51.4455240  93.7388770
  24.7563010  52.7225310  96.7747650  23.9437520  52.3482200  96.4343530
  25.2604650  51.9670390  97.0768840  29.2587990  49.3867760  98.0130720
  29.8617360  49.9587970  98.4879240  28.5180980  49.9507200  97.7904620
  32.4022590  49.7889320  93.2871000  32.5973220  50.6872770  93.5538430
  31.6152460  49.5576400  93.7803950  19.1983880  65.4702490  93.7263620
  18.6731500  65.8510520  93.0225580  19.1228460  66.0953260  94.4473330
  20.5874350  51.1350090  92.3247310  21.1167110  50.3479890  92.1955260
  21.2202670  51.8141280  92.5582840  22.7812190  50.8725230  95.3792700
  22.1514930  50.1712540  95.5462830  22.2417330  51.6329360  95.1625860
  33.9549200  67.0290030  95.0477560  34.1301390  66.3427770  94.4038480
  33.2570770  67.5537080  94.6554230  21.7976850  67.4184870  92.6012870
  22.5295670  67.1344150  92.0536760  22.0570520  67.1798150  93.4912250
  20.9591640  63.5349600  92.6059200  20.3300520  64.0034700  93.1545030
  21.0739470  62.6898820  93.0405390  28.4141360  57.5855260  78.7560400
  28.3335410  56.6709870  78.4852110  28.0005780  58.0822330  78.0500110
  26.5459400  59.3634280  80.6369670  25.7701500  58.8834720  80.9268240
  27.1972330  58.6839930  80.4625830  20.5625230  59.6754090  81.5145430
  19.7310110  59.4202800  81.9141940  21.1706210  59.7464860  82.2503350
  30.5666830  63.7694470  79.4168800  30.1048360  62.9981710  79.7455970
  31.3792380  63.7960540  79.9221250  20.5426490  63.7094180  81.7103450
  20.8454530  62.8191920  81.5313670  21.2870080  64.2664400  81.4825700
  18.9717180  54.6355980  75.2987820  18.0833880  54.9771950  75.1967700
  19.2558370  54.4356300  74.4068650  16.9350190  57.2361630  81.1827520
  17.5066300  56.4683830  81.1831160  16.9351730  57.5350390  80.2734130
  26.7930140  66.0552480  79.0372790  26.1741580  66.5109980  78.4667230
  27.6481920  66.2103940  78.6362490  25.9868390  62.0391470  80.6439830
  25.9176670  61.0981410  80.4828960  26.7488250  62.1292880  81.2162400
  18.1775060  52.6445990  82.9696450  17.9977900  51.7471740  83.2499210
  17.7755140  53.1917860  83.6443400  27.0173560  54.8461850  80.8708760
  27.3938380  53.9733730  80.7582430  26.9193070  55.1820550  79.9799200
  21.1478570  53.2187480  76.3326200  21.2545320  54.1191210  76.6394960
  20.2370930  53.1705450  76.0420850  30.7997680  52.3412290  77.8037100
  31.6207300  51.8508860  77.8462580  30.8331760  52.9309950  78.5568940
  18.7961730  55.1406490  81.5778790  19.4771840  55.4044860  82.1966190
  18.4809780  54.3007360  81.9116800  22.9886300  56.1873850  80.6651380
  23.4964520  56.6854820  81.3056400  23.5199540  55.4109050  80.4890740
  35.0897230  54.3579040  84.3680730  34.3849400  54.7460750  83.8495840
  35.3555150  55.0529330  84.9701660  21.2722400  50.8272410  84.9314800
  21.2740840  51.3444800  84.1260700  20.4426710  50.3502590  84.9084730
  27.6593490  60.9391720  76.4304700  27.0410760  61.4041170  75.8667420
  28.1716740  61.6319200  76.8474210  22.5225250  60.4667590  83.1088300
  22.1894630  61.0936510  83.7509370  22.6991930  60.9929470  82.3289970
  31.0359160  54.2812670  80.5764640  30.3314730  54.5697560  81.1567750
  31.3971320  55.0912780  80.2164200  20.9537730  52.5382370  82.9385250
  21.2954540  53.3824420  82.6439120  20.0153540  52.6866110  83.0550590
  21.7344350  62.4348390  84.9237480  22.3518350  63.1099470  84.6421930
  20.8737470  62.8436370  84.8324980  17.0276690  61.6248250  73.8044330
  16.6504670  62.1135350  73.0729230  17.2849760  62.2973530  74.4350860
  32.6521940  63.8987800  82.8392120  31.9685460  64.5686910  82.8308790
  33.1916230  64.0968450  82.0736980  34.1046080  53.7267460  80.9673850
  33.1570990  53.7606440  81.0989280  34.4296070  54.5406410  81.3523210
  24.6365620  50.0264640  79.2629840  24.9440600  49.4711530  78.5465340
  23.7066320  50.1609100  79.0802830  30.1880680  65.7431930  81.5537300
  30.2007840  65.3394220  80.6859560  29.6355900  66.5179220  81.4498730
  31.4826100  62.4648150  76.6427470  31.3722430  61.5222480  76.7676890
  31.4794350  62.8263790  77.5290230  29.5866120  60.6461770  82.8819910
  30.0034910  60.4321880  82.0473370  30.3105940  60.9034560  83.4528530
  27.0246380  58.0913470  75.9989960  26.0975660  58.0250850  76.2278430
  27.1771200  59.0293600  75.8845200  27.0115460  54.3630470  72.9957120
  26.0719130  54.5244430  73.0809580  27.3298720  55.0816150  72.4493110
  33.5328220  59.0448990  82.9736150  32.7046850  59.1142080  82.4986280
  34.1278700  59.6303300  82.5051980  31.0543670  59.6533770  76.5025210
  30.4356090  59.3153320  75.8551510  31.0368120  59.0093530  77.2104400
  30.4970230  55.8318310  83.9191020  30.0841410  56.6572020  84.1731010
  29.7646180  55.2463350  83.7267380  22.6303020  58.6178210  78.7809690
  22.2260020  57.9055460  78.2855590  22.7166140  58.2731450  79.6697730
  23.0984720  62.3045770  80.9448900  22.8013010  61.6991240  80.2656680
  24.0484540  62.3423080  80.8338260  21.3431640  55.3921420  82.5608730
  21.8946230  55.5016760  81.7861980  21.8575150  55.7659020  83.2763960
  31.1870330  65.8777640  84.6072000  30.7100890  66.6849830  84.4144610
  30.5032120  65.2255970  84.7598210  22.1903150  62.0427460  87.5956700
  21.2931680  62.2667430  87.8430100  22.2156020  62.1662400  86.6468100
  29.2308370  58.8920580  73.5097960  29.6701650  58.0543010  73.3635780
  29.9436790  59.5249980  73.5962100  21.0174370  58.9140780  86.1714070
  20.8782140  59.7863580  86.5401470  20.1355730  58.5713590  86.0262010
  27.3403750  63.8316650  77.4779200  27.7799660  64.5740980  77.0634590
  27.2790640  64.0743220  78.4018160  22.8154720  64.8562480  88.3799220
  22.7870150  65.2605430  87.5127650  22.6519690  63.9272840  88.2170820
  32.8125510  50.1463390  71.8239000  32.4998170  50.2390220  72.7238070
  33.5737980  50.7244420  71.7736430  19.3307650  57.5123190  76.2816340
  19.2105250  58.2385280  75.6697610  19.0208540  56.7426100  75.8044250
  34.7669540  65.6389580  89.6763390  35.2429260  66.1172470  90.3552470
  35.3876700  65.5707070  88.9508890  16.9693020  60.6838330  82.0884980
  17.0473440  60.8187100  81.1440700  17.5834700  59.9754220  82.2813100
  18.2140650  62.3838520  78.4991160  17.8068730  62.5253110  77.6444760
  19.1053660  62.0998680  78.2962370  34.1702790  62.8302430  86.8363400
  34.2965850  62.5914310  85.9180580  34.2124170  61.9986970  87.3085480
  28.0319530  66.5330430  85.4058210  28.5464200  66.4438440  86.2080640
  27.1888610  66.8790130  85.6986120  30.0073930  66.8185770  74.8342210
  29.8475070  66.5288710  75.7324040  29.8420640  66.0425900  74.2987440
  22.4862310  66.5984300  76.6113830  22.3104790  65.6819840  76.3981630
  21.6318050  66.9571590  76.8511630  29.7100060  64.3273330  73.3940210
  29.0165220  64.3250620  72.7342490  30.4522920  63.9032650  72.9634380
  29.2749990  65.9536040  77.4688700  29.7306940  65.1725420  77.7827320
  29.6142510  66.6642860  78.0129880  34.0226800  54.8834890  87.8013140
  33.4071070  55.3914560  87.2728600  33.7023220  53.9833220  87.7439080
  17.0252540  61.7252500  84.6279440  17.1883580  61.2557860  83.8098810
  17.4904990  61.2176060  85.2928280  21.7971310  50.8558260  79.6640010
  21.3539460  51.6367800  79.3324530  22.3556300  51.1788150  80.3710950
  26.0841120  53.7226780  85.2675330  25.6220490  53.9309800  86.0795270
  25.6819230  52.9086130  84.9646000  31.0845630  54.9435730  86.3971990
  30.2339220  54.6441480  86.7181060  30.9247420  55.1877740  85.4855810
  28.1795340  56.4437480  88.4970780  28.5048750  55.6101230  88.1573010
  28.9675670  56.9666000  88.6449110  24.9130130  50.4768960  74.5445840
  24.2884310  50.4728830  75.2699150  24.8260250  49.6099920  74.1481810
  23.8347210  51.4005590  81.5229610  24.1319540  52.3068420  81.4421630
  24.3832770  50.9124370  80.9089180  21.5885530  55.9791830  77.3921260
  21.3626450  55.7629000  78.2967880  20.8078060  56.4120290  77.0467230
  28.8183290  55.9855200  75.9911910  28.2192180  56.7091000  75.8075530
  29.3662900  55.9231980  75.2088360  24.0284740  56.8777410  88.0581530
  23.9328340  55.9372140  87.9081930  24.8716720  57.0992480  87.6629600
  27.4248160  54.6218740  78.0215190  27.8177730  54.9390940  77.2083880
  27.7865010  53.7430620  78.1359710  19.1595280  53.2891080  86.2115310
  18.7658670  54.1366290  86.4188090  18.4713680  52.6517450  86.4023950
  25.7340330  53.3726050  89.2812050  25.0438650  53.1798250  89.9158140
  26.4772630  53.6560690  89.8136350  16.4612330  51.2119540  80.2445390
  16.1725380  51.7822400  80.9570370  17.2058090  50.7323990  80.6076620
  16.6482560  55.1539660  71.4548110  16.5657230  56.0970420  71.5963100
  16.2965620  55.0114570  70.5760460  28.0103300  57.2124490  82.1165970
  27.2784420  57.7211300  82.4656070  27.6127640  56.3954470  81.8154750
  24.4480690  53.8878690  80.5218460  24.4516750  53.4468640  79.6723000
  25.3431810  54.2096020  80.6290280  20.2983070  53.7705180  79.4812670
  19.9583120  54.2480410  80.2379720  19.5360390  53.3170300  79.1213770
  24.5100840  54.8890770  73.5125220  24.6313660  54.8477250  74.4611040
  24.1249350  55.7514920  73.3571950  28.4729210  52.6658170  81.5288910
  28.4901950  53.1166820  82.3730760  28.2244790  51.7663810  81.7422350
  23.5222340  57.1991910  72.9108520  22.9539240  56.7510160  72.2844430
  24.2311340  57.5584690  72.3773670  31.8999960  50.0790350  87.3675290
  32.2245730  49.3480010  87.8933270  31.9356470  49.7603990  86.4656280
  18.5991520  61.1003930  86.7875250  18.2146310  60.4597600  87.3858210
  18.9103710  61.8040050  87.3569980  24.7488660  57.9480470  82.2683870
  25.1158790  57.4739040  83.0145210  24.5593720  58.8222040  82.6092210
  17.6129150  52.6924160  78.3977340  17.3276070  52.3279830  79.2355960
  17.5508010  51.9604620  77.7840480  22.5388030  56.9889110  84.5868080
  22.2345100  57.8681090  84.8118440  23.4934490  57.0488900  84.6225520
  21.0669820  61.1950100  75.1834930  20.2932080  60.6547720  75.0233650
  21.7964450  60.6756710  74.8452690  31.8257800  60.1915460  80.9761320
  32.5456920  60.6870750  80.5857430  31.6239620  59.5133350  80.3315190
  27.2867740  51.5853420  75.1190710  26.4732350  51.0866590  75.0436020
  27.0929690  52.4251670  74.7027060  27.2076600  60.2624520  86.8630320
  27.1413910  59.3420190  86.6087910  26.5781740  60.3599960  87.5774960
  30.0016130  55.9573070  73.4152870  30.8895750  56.2690300  73.2404210
  29.9721220  55.0845320  73.0233450  21.1107220  60.8630480  78.8213740
  21.6285890  60.0598740  78.7670630  20.6591240  60.8009620  79.6630570
  25.9976720  62.1296760  74.0941040  26.3392420  62.8738990  73.5984360
  25.1689430  62.4427880  74.4565870  18.5951760  57.8291850  85.7339440
  18.2366700  58.4945700  86.3212780  18.3006320  56.9975400  86.1052060
  21.7964880  58.2876090  88.6178990  21.4965020  58.4333270  87.7206810
  22.5676120  57.7281380  88.5252380  27.1393330  63.0845090  86.6134120
  27.1537870  62.1526050  86.3953030  26.4318430  63.1704850  87.2523890
  32.2730400  57.2684910  72.8832730  32.1894120  57.6999130  72.0329170
  32.9924590  57.7283260  73.3159550  33.3504540  59.7252430  85.9602700
  32.6252730  60.3181210  85.7632090  33.8780000  59.7175970  85.1616070
  33.3017650  64.1227170  75.6114860  32.6593810  63.4682790  75.8858580
  32.9148310  64.5282260  74.8355530  28.8804130  61.4512600  79.4586550
  29.2327950  60.8540730  78.7987920  27.9966460  61.1256830  79.6294800
  24.9667410  62.2110290  76.8656960  25.6538540  62.7579500  77.2464550
  24.1799830  62.7551020  76.9006570  17.1059810  57.8283110  72.3574040
  17.9754660  58.1107910  72.6409960  16.6150130  58.6418980  72.2422850
  24.2694620  59.2156320  76.4782320  24.7257400  60.0261570  76.7042510
  23.9182830  58.8979460  77.3100810  26.5727230  64.7262660  83.7074620
  27.2169450  64.9322040  84.3848040  26.9356670  63.9651060  83.2545470
  20.1706400  49.5593970  76.9504840  20.0421030  49.5511870  77.8989760
  19.3468420  49.8977060  76.5995850  27.8459310  62.7295010  82.4252070
  28.4881540  62.0288170  82.5384240  28.3708660  63.5093450  82.2448960
  31.6915030  63.0143630  72.1491210  31.4652610  62.2974070  72.7415850
  31.3011230  62.7656070  71.3112960  29.6196930  63.5289910  85.6288130
  29.9553170  64.1156600  86.3066050  28.6997270  63.3982620  85.8585920
  17.4731060  67.0410490  72.9235670  17.8328700  67.6399830  72.2692940
  17.3323400  67.5870380  73.6970700  17.1700330  51.3185090  86.4111540
  16.4558850  51.5182010  87.0164150  17.5895370  50.5424660  86.7826340
  31.2731280  60.9315570  73.8105370  30.9852980  61.3928260  74.5983250
  32.0683450  60.4713340  74.0789590  17.4572920  65.3065350  87.3978070
  17.5664040  64.3660090  87.2573460  16.8053480  65.5720100  86.7491800
  25.4485510  63.5781240  88.7976190  25.1282380  62.8590480  89.3421880
  24.7743870  64.2536310  88.8712250  23.4899680  64.4241690  73.7409340
  23.4809780  65.1571380  73.1253850  22.5698040  64.1773270  73.8336300
  19.0906320  59.6456580  74.4856100  18.4834270  60.3855480  74.4951400
  19.5655670  59.7355940  73.6594300  28.6639110  53.8107400  84.1612990
  29.0319930  52.9902610  84.4892560  27.8037310  53.8709290  84.5768640
  32.0301140  52.7664340  74.9700550  31.4014300  52.8710010  74.2558780
  31.5353060  52.9861120  75.7594430  26.4759280  64.4869930  72.4034530
  26.5771260  64.2833920  71.4736510  25.5761020  64.2328210  72.6082310
  23.9985170  55.0450290  76.3858430  23.2901320  55.5136630  76.8272040
  24.2829650  54.3872300  77.0203620  25.6241100  56.4646990  84.3850960
  26.1226350  56.9392810  85.0502810  25.7664050  55.5410510  84.5920990
  28.0300600  51.7700950  77.8254220  27.9068380  51.7887080  76.8763730
  28.9785160  51.8179890  77.9452620  25.1177390  67.0056250  77.0982200
  25.3718890  66.9677640  76.1761570  24.1689870  66.8789580  77.0910450
  22.2020190  53.3535370  73.7609140  23.0510720  53.7905520  73.6949330
  21.8351460  53.6655630  74.5881200  32.8307960  52.6814950  85.2279350
  32.3281560  53.4220350  85.5673160  33.6464620  53.0698950  84.9116140
  31.1229970  57.9248130  78.6740710  30.1820110  57.9398360  78.8488400
  31.4374040  57.1384090  79.1201010  21.1011610  59.6067730  72.2344670
  21.8674880  59.4949090  72.7970100  21.1786300  58.9105700  71.5821440
  19.7958370  57.0392800  72.9177560  19.8761960  56.0920310  73.0294960
  20.6878120  57.3699680  73.0238220  33.1255550  65.0956980  80.3494970
  33.2502970  65.9188150  80.8218780  33.9921110  64.8847710  80.0019120
  20.5973080  67.1888190  80.0212100  21.3335560  66.6403650  80.2920670
  20.9814000  68.0544200  79.8818090  17.4818560  63.2561760  75.8953610
  16.5558340  63.4982900  75.8859020  17.9474990  64.0836020  75.7738360
  19.6031360  66.3734260  89.2097680  20.4044090  66.6946310  89.6233080
  19.0883180  66.0129840  89.9317590  23.7075390  66.3618500  71.8437670
  24.5004000  66.6507330  71.3919460  23.1879740  65.9310670  71.1650150
  28.4395990  62.4814130  89.1573090  27.8334150  62.5045730  88.4168840
  28.1350100  61.7497170  89.6940340  29.8696360  66.2094420  87.7682500
  30.8218110  66.1252440  87.7182740  29.7224580  66.8736130  88.4416290
  32.7605560  65.5888630  73.2674410  32.4747070  65.1753770  72.4528590
  32.5625110  66.5176340  73.1474930  17.3229170  58.8607720  88.1533730
  17.8268190  58.2815000  88.7249960  16.5836590  59.1447950  88.6910100
  24.2252790  61.5821910  71.7080020  24.1203430  60.9674260  72.4341400
  24.0577010  61.0587800  70.9243030  24.3767110  60.2678710  87.6869250
  23.6112780  60.8363710  87.6023920  24.5583070  59.9754920  86.7937480
  27.4655520  60.6441940  72.3122010  26.9165620  61.0911240  72.9564750
  28.0874780  60.1391190  72.8359680  31.5190460  61.9984040  88.2444270
  32.2599930  62.3359800  87.7411730  30.7563140  62.1676100  87.6914040
  19.3552250  57.0037310  89.0483800  19.3957590  56.7051180  89.9569030
  20.2097750  57.4044920  88.8891320  23.1330640  59.6032860  74.2087310
  23.5547060  59.4372730  75.0518700  23.2581480  58.7933090  73.7142450
  21.2958060  55.5829410  87.0158290  20.7654520  55.0920360  86.3881630
  21.9646130  56.0113610  86.4816220  25.6458280  58.6270470  71.4564410
  26.1663940  57.9119490  71.0905560  26.2926680  59.2656340  71.7564920
  30.1936120  60.0498870  86.7799480  30.6077140  60.2043950  87.6289900
  29.2587120  60.1754090  86.9425260  30.6658290  57.3895030  88.7838630
  31.2479060  56.6347350  88.6959110  30.8420060  57.9202470  88.0070110
  21.7830360  52.5491780  87.0955580  21.6887230  51.9312530  86.3706450
  21.2027750  53.2758070  86.8685490  24.5491800  51.1065020  84.1282970
  24.1009100  51.1289280  83.2828520  23.9157000  50.7084040  84.7253270
  24.9551350  60.0019350  84.7495410  25.3739460  60.8452080  84.5771650
  24.0359980  60.1391390  84.5202190  27.2915250  57.7335530  86.1333250
  27.4111460  57.1376670  86.8728090  28.1509250  57.7705220  85.7134550
  29.6303150  58.2872720  84.7095760  29.1038370  58.8115340  84.1060900
  29.9734490  58.9200110  85.3405490  22.0289540  55.6766090  71.1545470
  21.8278600  54.8133450  71.5158810  21.8581590  55.5899450  70.2167070
  22.8058770  66.3072360  85.8653140  22.2679860  67.0318420  85.5461840
  23.0592730  65.8302700  85.0750480  24.0584020  54.2756880  87.3909070
  24.6483710  53.9672730  88.0786890  23.2404260  53.8036630  87.5468970
  28.8777450  53.8922690  87.6242090  28.1892970  53.2304230  87.5592080
  29.5983470  53.4460960  88.0690550  29.5077850  50.4874320  73.6832350
  29.7880140  49.6442220  74.0391770  28.7343580  50.7197430  74.1971100
  20.8272340  52.7766710  71.1423350  21.1298240  52.7834140  70.2342500
  21.5666930  52.4264570  71.6391010  25.6620980  67.5423570  86.1239790
  25.5879680  68.4458710  86.4312160  24.7599820  67.2235470  86.0961860
  24.0457270  51.7201330  72.1279550  23.6979270  51.0425320  71.5482000
  24.2470040  51.2590840  72.9422940  26.2106310  66.7082080  73.7466150
  27.1057100  67.0467050  73.7684910  26.2423940  65.9861490  73.1190430
  19.8502470  62.0809130  71.9753150  20.2877340  62.6238800  72.6310730
  20.3350200  61.2556080  71.9849490  17.0648270  64.8698160  79.4273410
  17.3951280  64.0019220  79.1952050  17.4939270  65.0756680  80.2578370
  21.6610190  63.2007170  77.0875380  21.3605730  63.0772140  77.9879290
  21.5547680  62.3415760  76.6791110  17.5538480  65.7368750  82.1655040
  17.1169470  65.9169550  82.9979190  18.1216160  66.4943370  82.0236760
  33.1900660  65.2385750  86.4532350  32.5902650  65.2978310  85.7096270
  33.3194560  64.2990730  86.5829200  34.4302110  62.9803570  71.7902060
  33.5995070  63.0480220  72.2609290  34.6073940  63.8707690  71.4868920
  33.8858570  59.7251050  74.2936260  34.6477480  60.2947700  74.3995950
  33.9012940  59.1578250  75.0644570  17.3862910  58.2488980  78.5243920
  16.7311750  57.9800620  77.8803620  18.2240860  58.1393460  78.0745900
  34.8918540  60.5801150  79.1378190  35.2627370  59.7968470  78.7314160
  35.5320470  61.2690250  78.9595490  31.8752300  61.9637730  84.5508510
  31.0612140  62.3934890  84.8134300  32.2826500  62.5756140  83.9377560
  33.9377740  60.0185420  71.4508780  34.2126580  60.9264300  71.3228000
  33.7488480  59.9547950  72.3870770  30.3353350  53.0430270  72.7462410
  30.7538230  52.8561250  71.9059070  30.0289410  52.1909320  73.0565340
  33.8343080  57.9554410  76.4438210  33.4586680  57.1882340  76.0119500
  33.1046200  58.3377110  76.9313140  18.4238840  58.6341550  83.0647260
  18.7911880  58.5468950  83.9443280  17.8549660  57.8708100  82.9654120
  33.2242700  57.1025930  86.0777730  32.9928790  56.8738680  85.1775680
  33.4847250  58.0225480  86.0322620  17.9754840  55.5450640  86.9705680
  17.0810890  55.5117400  87.3099390  18.5152390  55.7437430  87.7356930
  31.6630770  52.3282360  88.8557430  32.5400950  52.3365760  89.2391430
  31.6751610  51.5913200  88.2449780  16.6000990  55.4587910  74.4669250
  15.6965070  55.7218110  74.2920910  17.0841610  55.7299080  73.6869210
  33.1094040  56.1811900  79.7445450  33.6331520  55.6874550  79.1135620
  33.6953460  56.3162260  80.4893020  33.2883760  56.2651770  83.2665000
  32.3386470  56.2315310  83.3809990  33.4696770  57.1751880  83.0314770
  19.1428200  54.5153450  72.3763630  19.8519900  54.0936670  71.8910910
  18.4268140  54.5828680  71.7446980  18.7902360  50.5692780  71.4166280
  19.5130490  51.1101720  71.7347500  19.0626880  50.2956200  70.5407820
  32.5994010  55.4385250  75.6837860  33.0953130  55.2056120  76.4686740
  32.4010080  54.5997090  75.2675500  18.4794550  49.8198970  81.3188900
  19.1270740  49.2696350  80.8784060  18.8996390  50.0742120  82.1404710
  34.0281170  54.0746200  78.2175540  33.9180450  53.9202240  79.1557810
  34.7888760  53.5467140  77.9750950  32.3746890  50.0140330  84.6758540
  33.0119110  50.6274470  85.0417730  32.5221780  50.0500990  83.7307770
  34.9171440  51.9054120  71.4581680  35.8420750  51.7735300  71.2499970
  34.8947230  51.9846940  72.4118130  34.9909930  52.6764780  74.0838390
  34.1961430  52.6109900  74.6131300  35.1953210  53.6115420  74.0723740
  31.9328350  66.7156330  78.0776780  32.5287420  66.3940900  77.4011200
  32.1906500  66.2428150  78.8690050  18.2326550  49.9754640  84.0614220
  17.8841370  50.4318460  84.8272400  17.9014250  49.0811770  84.1436650
  19.8390920  63.1474240  88.2267410  19.7960550  62.7767150  89.1081870
  19.9701930  64.0851810  88.3669230  23.5396950  64.7033830  83.8277130
  23.2988310  64.9708390  82.9407650  24.4799590  64.8739560  83.8827990
  25.7451370  51.1666520  87.5833640  25.6840260  51.7588350  88.3329050
  26.6851750  51.0592480  87.4383900  28.3825930  50.8236580  87.2225930
  28.9966340  51.1415870  86.5607010  28.9275490  50.3385170  87.8421790
  34.8001110  66.7228210  84.6287770  34.3059390  67.1197080  83.9114900
  34.1914400  66.0977420  85.0225050  18.9047190  49.5030840  87.3364990
  19.4530180  49.3218890  86.5731100  18.9702500  48.7124950  87.8721300
  19.6778950  66.0936490  85.3465190  19.0839270  65.9621190  86.0855230
  19.6702790  65.2574630  84.8807290  29.1233970  49.3868720  83.5495220
  28.2493810  49.7203830  83.3468150  29.0144720  48.9141900  84.3747090
  30.0305950  51.5939590  84.9336940  29.7019310  50.7791350  84.5538670
  30.9788250  51.5509400  84.8102630  32.4840560  67.3651630  81.9074510
  32.0243530  68.1167440  81.5332530  31.8553020  66.6458100  81.8489310
  19.3091180  63.4594870  84.2973230  18.5825240  62.8400160  84.2299180
  19.3700330  63.8535480  83.4271310  22.9136280  65.6739870  81.0822640
  23.4301300  65.0627230  80.5570900  23.5633660  66.1768650  81.5733650
  25.6531780  66.5648360  81.9091620  25.9409590  66.3102660  81.0324630
  26.1655000  66.0125720  82.4997190  26.8708790  50.3038560  82.4888130
  26.0880580  50.7784060  82.7684890  26.5771720  49.3993390  82.3801310
  31.4229860  51.0061660  80.5337220  31.8637950  50.9506760  79.6858820
  31.1537450  51.9219670  80.6047400  33.2868430  50.6376900  78.5446040
  33.2256830  49.6938120  78.3977060  34.0660460  50.7456990  79.0899500
  17.5921180  66.7769260  77.5069990  17.4243220  66.1439940  78.2051880
  16.7255690  66.9828660  77.1564180  18.2149200  50.6086040  75.0101850
  18.9728560  50.7214920  74.4365880  17.7526370  51.4455240  74.9645280
  24.7563010  52.7225310  78.0004160  23.9437520  52.3482200  77.6600040
  25.2604650  51.9670390  78.3025350  29.2587990  49.3867760  79.2387230
  29.8617360  49.9587970  79.7135750  28.5180980  49.9507200  79.0161130
  32.4022590  49.7889320  74.5127510  32.5973220  50.6872770  74.7794940
  31.6152460  49.5576400  75.0060460  19.1983880  65.4702490  74.9520130
  18.6731500  65.8510520  74.2482090  19.1228460  66.0953260  75.6729840
  20.5874350  51.1350090  73.5503820  21.1167110  50.3479890  73.4211770
  21.2202670  51.8141280  73.7839350  22.7812190  50.8725230  76.6049210
  22.1514930  50.1712540  76.7719340  22.2417330  51.6329360  76.3882370
  25.7204140  67.4864460  89.2759820  26.6471450  67.2508730  89.3195780
  25.7054570  68.3136460  88.7945850  33.9549200  67.0290030  76.2734070
  34.1301390  66.3427770  75.6294990  33.2570770  67.5537080  75.8810740
  22.9067750  50.1509210  89.0401700  22.6252020  50.6542810  88.2762520
  23.2887450  49.3530960  88.6743830  21.7976850  67.4184870  73.8269380
  22.5295670  67.1344150  73.2793270  22.0570520  67.1798150  74.7168760
  20.9591640  63.5349600  73.8315710  20.3300520  64.0034700  74.3801540
  21.0739470  62.6898820  74.2661900  29.5083210  49.5662790  89.6182170
  29.3948660  49.8857400  90.5133690  30.3252950  49.9675300  89.3219450
  32.2881700  66.7134320  89.1000860  33.0807020  66.2183550  88.8926820
  32.5814850  67.3924460  89.7076470  28.4141360  57.5855260  59.9816910
  28.3335410  56.6709870  59.7108620  28.0005780  58.0822330  59.2756620
  20.5625230  59.6754090  62.7401940  19.7310110  59.4202800  63.1398450
  21.1706210  59.7464860  63.4759860  20.5426490  63.7094180  62.9359960
  20.8454530  62.8191920  62.7570180  21.2870080  64.2664400  62.7082210
  18.9717180  54.6355980  56.5244330  18.0833880  54.9771950  56.4224210
  19.2558370  54.4356300  55.6325160  16.9350190  57.2361630  62.4084030
  17.5066300  56.4683830  62.4087670  16.9351730  57.5350390  61.4990640
  18.1775060  52.6445990  64.1952960  17.9977900  51.7471740  64.4755720
  17.7755140  53.1917860  64.8699910  27.0173560  54.8461850  62.0965270
  27.3938380  53.9733730  61.9838940  26.9193070  55.1820550  61.2055710
  21.1478570  53.2187480  57.5582710  21.2545320  54.1191210  57.8651470
  20.2370930  53.1705450  57.2677360  30.7997680  52.3412290  59.0293610
  31.6207300  51.8508860  59.0719090  30.8331760  52.9309950  59.7825450
  18.7961730  55.1406490  62.8035300  19.4771840  55.4044860  63.4222700
  18.4809780  54.3007360  63.1373310  22.9886300  56.1873850  61.8907890
  23.4964520  56.6854820  62.5312910  23.5199540  55.4109050  61.7147250
  35.0897230  54.3579040  65.5937240  34.3849400  54.7460750  65.0752350
  35.3555150  55.0529330  66.1958170  21.2722400  50.8272410  66.1571310
  21.2740840  51.3444800  65.3517210  20.4426710  50.3502590  66.1341240
  22.5225250  60.4667590  64.3344810  22.1894630  61.0936510  64.9765880
  22.6991930  60.9929470  63.5546480  31.0359160  54.2812670  61.8021150
  30.3314730  54.5697560  62.3824260  31.3971320  55.0912780  61.4420710
  20.9537730  52.5382370  64.1641760  21.2954540  53.3824420  63.8695630
  20.0153540  52.6866110  64.2807100  21.7344350  62.4348390  66.1493990
  22.3518350  63.1099470  65.8678440  20.8737470  62.8436370  66.0581490
  17.0276690  61.6248250  55.0300840  16.6504670  62.1135350  54.2985740
  17.2849760  62.2973530  55.6607370  32.6521940  63.8987800  64.0648630
  31.9685460  64.5686910  64.0565300  33.1916230  64.0968450  63.2993490
  34.1046080  53.7267460  62.1930360  33.1570990  53.7606440  62.3245790
  34.4296070  54.5406410  62.5779720  24.6365620  50.0264640  60.4886350
  24.9440600  49.4711530  59.7721850  23.7066320  50.1609100  60.3059340
  30.1880680  65.7431930  62.7793810  30.2007840  65.3394220  61.9116070
  29.6355900  66.5179220  62.6755240  29.5866120  60.6461770  64.1076420
  30.0034910  60.4321880  63.2729880  30.3105940  60.9034560  64.6785040
  27.0115460  54.3630470  54.2213630  26.0719130  54.5244430  54.3066090
  27.3298720  55.0816150  53.6749620  33.5328220  59.0448990  64.1992660
  32.7046850  59.1142080  63.7242790  34.1278700  59.6303300  63.7308490
  30.4970230  55.8318310  65.1447530  30.0841410  56.6572020  65.3987520
  29.7646180  55.2463350  64.9523890  22.6303020  58.6178210  60.0066200
  22.2260020  57.9055460  59.5112100  22.7166140  58.2731450  60.8954240
  23.0984720  62.3045770  62.1705410  22.8013010  61.6991240  61.4913190
  24.0484540  62.3423080  62.0594770  21.3431640  55.3921420  63.7865240
  21.8946230  55.5016760  63.0118490  21.8575150  55.7659020  64.5020470
  31.1870330  65.8777640  65.8328510  30.7100890  66.6849830  65.6401120
  30.5032120  65.2255970  65.9854720  22.1903150  62.0427460  68.8213210
  21.2931680  62.2667430  69.0686610  22.2156020  62.1662400  67.8724610
  21.0174370  58.9140780  67.3970580  20.8782140  59.7863580  67.7657980
  20.1355730  58.5713590  67.2518520  22.8154720  64.8562480  69.6055730
  22.7870150  65.2605430  68.7384160  22.6519690  63.9272840  69.4427330
  32.8125510  50.1463390  53.0495510  32.4998170  50.2390220  53.9494580
  33.5737980  50.7244420  52.9992940  19.3307650  57.5123190  57.5072850
  19.2105250  58.2385280  56.8954120  19.0208540  56.7426100  57.0300760
  34.7669540  65.6389580  70.9019900  35.2429260  66.1172470  71.5808980
  35.3876700  65.5707070  70.1765400  16.9693020  60.6838330  63.3141490
  17.0473440  60.8187100  62.3697210  17.5834700  59.9754220  63.5069610
  18.2140650  62.3838520  59.7247670  17.8068730  62.5253110  58.8701270
  19.1053660  62.0998680  59.5218880  34.1702790  62.8302430  68.0619910
  34.2965850  62.5914310  67.1437090  34.2124170  61.9986970  68.5341990
  28.0319530  66.5330430  66.6314720  28.5464200  66.4438440  67.4337150
  27.1888610  66.8790130  66.9242630  22.4862310  66.5984300  57.8370340
  22.3104790  65.6819840  57.6238140  21.6318050  66.9571590  58.0768140
  34.0226800  54.8834890  69.0269650  33.4071070  55.3914560  68.4985110
  33.7023220  53.9833220  68.9695590  17.0252540  61.7252500  65.8535950
  17.1883580  61.2557860  65.0355320  17.4904990  61.2176060  66.5184790
  21.7971310  50.8558260  60.8896520  21.3539460  51.6367800  60.5581040
  22.3556300  51.1788150  61.5967460  26.0841120  53.7226780  66.4931840
  25.6220490  53.9309800  67.3051780  25.6819230  52.9086130  66.1902510
  31.0845630  54.9435730  67.6228500  30.2339220  54.6441480  67.9437570
  30.9247420  55.1877740  66.7112320  28.1795340  56.4437480  69.7227290
  28.5048750  55.6101230  69.3829520  28.9675670  56.9666000  69.8705620
  24.9130130  50.4768960  55.7702350  24.2884310  50.4728830  56.4955660
  24.8260250  49.6099920  55.3738320  23.8347210  51.4005590  62.7486120
  24.1319540  52.3068420  62.6678140  24.3832770  50.9124370  62.1345690
  21.5885530  55.9791830  58.6177770  21.3626450  55.7629000  59.5224390
  20.8078060  56.4120290  58.2723740  28.8183290  55.9855200  57.2168420
  28.2192180  56.7091000  57.0332040  29.3662900  55.9231980  56.4344870
  24.0284740  56.8777410  69.2838040  23.9328340  55.9372140  69.1338440
  24.8716720  57.0992480  68.8886110  27.4248160  54.6218740  59.2471700
  27.8177730  54.9390940  58.4340390  27.7865010  53.7430620  59.3616220
  19.1595280  53.2891080  67.4371820  18.7658670  54.1366290  67.6444600
  18.4713680  52.6517450  67.6280460  25.7340330  53.3726050  70.5068560
  25.0438650  53.1798250  71.1414650  26.4772630  53.6560690  71.0392860
  16.4612330  51.2119540  61.4701900  16.1725380  51.7822400  62.1826880
  17.2058090  50.7323990  61.8333130  16.6482560  55.1539660  52.6804620
  16.5657230  56.0970420  52.8219610  16.2965620  55.0114570  51.8016970
  28.0103300  57.2124490  63.3422480  27.2784420  57.7211300  63.6912580
  27.6127640  56.3954470  63.0411260  24.4480690  53.8878690  61.7474970
  24.4516750  53.4468640  60.8979510  25.3431810  54.2096020  61.8546790
  20.2983070  53.7705180  60.7069180  19.9583120  54.2480410  61.4636230
  19.5360390  53.3170300  60.3470280  24.5100840  54.8890770  54.7381730
  24.6313660  54.8477250  55.6867550  24.1249350  55.7514920  54.5828460
  28.4729210  52.6658170  62.7545420  28.4901950  53.1166820  63.5987270
  28.2244790  51.7663810  62.9678860  23.5222340  57.1991910  54.1365030
  22.9539240  56.7510160  53.5100940  24.2311340  57.5584690  53.6030180
  31.8999960  50.0790350  68.5931800  32.2245730  49.3480010  69.1189780
  31.9356470  49.7603990  67.6912790  18.5991520  61.1003930  68.0131760
  18.2146310  60.4597600  68.6114720  18.9103710  61.8040050  68.5826490
  24.7488660  57.9480470  63.4940380  25.1158790  57.4739040  64.2401720
  24.5593720  58.8222040  63.8348720  17.6129150  52.6924160  59.6233850
  17.3276070  52.3279830  60.4612470  17.5508010  51.9604620  59.0096990
  22.5388030  56.9889110  65.8124590  22.2345100  57.8681090  66.0374950
  23.4934490  57.0488900  65.8482030  21.0669820  61.1950100  56.4091440
  20.2932080  60.6547720  56.2490160  21.7964450  60.6756710  56.0709200
  31.8257800  60.1915460  62.2017830  32.5456920  60.6870750  61.8113940
  31.6239620  59.5133350  61.5571700  27.2867740  51.5853420  56.3447220
  26.4732350  51.0866590  56.2692530  27.0929690  52.4251670  55.9283570
  27.2076600  60.2624520  68.0886830  27.1413910  59.3420190  67.8344420
  26.5781740  60.3599960  68.8031470  21.1107220  60.8630480  60.0470250
  21.6285890  60.0598740  59.9927140  20.6591240  60.8009620  60.8887080
  18.5951760  57.8291850  66.9595950  18.2366700  58.4945700  67.5469290
  18.3006320  56.9975400  67.3308570  21.7964880  58.2876090  69.8435500
  21.4965020  58.4333270  68.9463320  22.5676120  57.7281380  69.7508890
  27.1393330  63.0845090  67.8390630  27.1537870  62.1526050  67.6209540
  26.4318430  63.1704850  68.4780400  33.3504540  59.7252430  67.1859210
  32.6252730  60.3181210  66.9888600  33.8780000  59.7175970  66.3872580
  17.1059810  57.8283110  53.5830550  17.9754660  58.1107910  53.8666470
  16.6150130  58.6418980  53.4679360  26.5727230  64.7262660  64.9331130
  27.2169450  64.9322040  65.6104550  26.9356670  63.9651060  64.4801980
  20.1706400  49.5593970  58.1761350  20.0421030  49.5511870  59.1246270
  19.3468420  49.8977060  57.8252360  27.8459310  62.7295010  63.6508580
  28.4881540  62.0288170  63.7640750  28.3708660  63.5093450  63.4705470
  29.6196930  63.5289910  66.8544640  29.9553170  64.1156600  67.5322560
  28.6997270  63.3982620  67.0842430  17.4731060  67.0410490  54.1492180
  17.8328700  67.6399830  53.4949450  17.3323400  67.5870380  54.9227210
  17.1700330  51.3185090  67.6368050  16.4558850  51.5182010  68.2420660
  17.5895370  50.5424660  68.0082850  17.4572920  65.3065350  68.6234580
  17.5664040  64.3660090  68.4829970  16.8053480  65.5720100  67.9748310
  25.4485510  63.5781240  70.0232700  25.1282380  62.8590480  70.5678390
  24.7743870  64.2536310  70.0968760  23.4899680  64.4241690  54.9665850
  23.4809780  65.1571380  54.3510360  22.5698040  64.1773270  55.0592810
  19.0906320  59.6456580  55.7112610  18.4834270  60.3855480  55.7207910
  19.5655670  59.7355940  54.8850810  28.6639110  53.8107400  65.3869500
  29.0319930  52.9902610  65.7149070  27.8037310  53.8709290  65.8025150
  32.0301140  52.7664340  56.1957060  31.4014300  52.8710010  55.4815290
  31.5353060  52.9861120  56.9850940  23.9985170  55.0450290  57.6114940
  23.2901320  55.5136630  58.0528550  24.2829650  54.3872300  58.2460130
  25.6241100  56.4646990  65.6107470  26.1226350  56.9392810  66.2759320
  25.7664050  55.5410510  65.8177500  28.0300600  51.7700950  59.0510730
  27.9068380  51.7887080  58.1020240  28.9785160  51.8179890  59.1709130
  25.1177390  67.0056250  58.3238710  25.3718890  66.9677640  57.4018080
  24.1689870  66.8789580  58.3166960  22.2020190  53.3535370  54.9865650
  23.0510720  53.7905520  54.9205840  21.8351460  53.6655630  55.8137710
  32.8307960  52.6814950  66.4535860  32.3281560  53.4220350  66.7929670
  33.6464620  53.0698950  66.1372650  31.1229970  57.9248130  59.8997220
  30.1820110  57.9398360  60.0744910  31.4374040  57.1384090  60.3457520
  21.1011610  59.6067730  53.4601180  21.8674880  59.4949090  54.0226610
  21.1786300  58.9105700  52.8077950  19.7958370  57.0392800  54.1434070
  19.8761960  56.0920310  54.2551470  20.6878120  57.3699680  54.2494730
  33.1255550  65.0956980  61.5751480  33.2502970  65.9188150  62.0475290
  33.9921110  64.8847710  61.2275630  20.5973080  67.1888190  61.2468610
  21.3335560  66.6403650  61.5177180  20.9814000  68.0544200  61.1074600
  17.4818560  63.2561760  57.1210120  16.5558340  63.4982900  57.1115530
  17.9474990  64.0836020  56.9994870  19.6031360  66.3734260  70.4354190
  20.4044090  66.6946310  70.8489590  19.0883180  66.0129840  71.1574100
  28.4395990  62.4814130  70.3829600  27.8334150  62.5045730  69.6425350
  28.1350100  61.7497170  70.9196850  29.8696360  66.2094420  68.9939010
  30.8218110  66.1252440  68.9439250  29.7224580  66.8736130  69.6672800
  17.3229170  58.8607720  69.3790240  17.8268190  58.2815000  69.9506470
  16.5836590  59.1447950  69.9166610  24.2252790  61.5821910  52.9336530
  24.1203430  60.9674260  53.6597910  24.0577010  61.0587800  52.1499540
  24.3767110  60.2678710  68.9125760  23.6112780  60.8363710  68.8280430
  24.5583070  59.9754920  68.0193990  27.4655520  60.6441940  53.5378520
  26.9165620  61.0911240  54.1821260  28.0874780  60.1391190  54.0616190
  31.5190460  61.9984040  69.4700780  32.2599930  62.3359800  68.9668240
  30.7563140  62.1676100  68.9170550  19.3552250  57.0037310  70.2740310
  19.3957590  56.7051180  71.1825540  20.2097750  57.4044920  70.1147830
  23.1330640  59.6032860  55.4343820  23.5547060  59.4372730  56.2775210
  23.2581480  58.7933090  54.9398960  21.2958060  55.5829410  68.2414800
  20.7654520  55.0920360  67.6138140  21.9646130  56.0113610  67.7072730
  25.6458280  58.6270470  52.6820920  26.1663940  57.9119490  52.3162070
  26.2926680  59.2656340  52.9821430  30.1936120  60.0498870  68.0055990
  30.6077140  60.2043950  68.8546410  29.2587120  60.1754090  68.1681770
  30.6658290  57.3895030  70.0095140  31.2479060  56.6347350  69.9215620
  30.8420060  57.9202470  69.2326620  21.7830360  52.5491780  68.3212090
  21.6887230  51.9312530  67.5962960  21.2027750  53.2758070  68.0942000
  24.5491800  51.1065020  65.3539480  24.1009100  51.1289280  64.5085030
  23.9157000  50.7084040  65.9509780  24.9551350  60.0019350  65.9751920
  25.3739460  60.8452080  65.8028160  24.0359980  60.1391390  65.7458700
  27.2915250  57.7335530  67.3589760  27.4111460  57.1376670  68.0984600
  28.1509250  57.7705220  66.9391060  29.6303150  58.2872720  65.9352270
  29.1038370  58.8115340  65.3317410  29.9734490  58.9200110  66.5662000
  22.0289540  55.6766090  52.3801980  21.8278600  54.8133450  52.7415320
  21.8581590  55.5899450  51.4423580  22.8058770  66.3072360  67.0909650
  22.2679860  67.0318420  66.7718350  23.0592730  65.8302700  66.3006990
  24.0584020  54.2756880  68.6165580  24.6483710  53.9672730  69.3043400
  23.2404260  53.8036630  68.7725480  28.8777450  53.8922690  68.8498600
  28.1892970  53.2304230  68.7848590  29.5983470  53.4460960  69.2947060
  29.5077850  50.4874320  54.9088860  29.7880140  49.6442220  55.2648280
  28.7343580  50.7197430  55.4227610  20.8272340  52.7766710  52.3679860
  21.1298240  52.7834140  51.4599010  21.5666930  52.4264570  52.8647520
  25.6620980  67.5423570  67.3496300  25.5879680  68.4458710  67.6568670
  24.7599820  67.2235470  67.3218370  24.0457270  51.7201330  53.3536060
  23.6979270  51.0425320  52.7738510  24.2470040  51.2590840  54.1679450
  19.8502470  62.0809130  53.2009660  20.2877340  62.6238800  53.8567240
  20.3350200  61.2556080  53.2106000  17.0648270  64.8698160  60.6529920
  17.3951280  64.0019220  60.4208560  17.4939270  65.0756680  61.4834880
  21.6610190  63.2007170  58.3131890  21.3605730  63.0772140  59.2135800
  21.5547680  62.3415760  57.9047620  17.5538480  65.7368750  63.3911550
  17.1169470  65.9169550  64.2235700  18.1216160  66.4943370  63.2493270
  33.1900660  65.2385750  67.6788860  32.5902650  65.2978310  66.9352780
  33.3194560  64.2990730  67.8085710  17.3862910  58.2488980  59.7500430
  16.7311750  57.9800620  59.1060130  18.2240860  58.1393460  59.3002410
  31.8752300  61.9637730  65.7765020  31.0612140  62.3934890  66.0390810
  32.2826500  62.5756140  65.1634070  30.3353350  53.0430270  53.9718920
  30.7538230  52.8561250  53.1315580  30.0289410  52.1909320  54.2821850
  18.4238840  58.6341550  64.2903770  18.7911880  58.5468950  65.1699790
  17.8549660  57.8708100  64.1910630  33.2242700  57.1025930  67.3034240
  32.9928790  56.8738680  66.4032190  33.4847250  58.0225480  67.2579130
  17.9754840  55.5450640  68.1962190  17.0810890  55.5117400  68.5355900
  18.5152390  55.7437430  68.9613440  31.6630770  52.3282360  70.0813940
  32.5400950  52.3365760  70.4647940  31.6751610  51.5913200  69.4706290
  16.6000990  55.4587910  55.6925760  15.6965070  55.7218110  55.5177420
  17.0841610  55.7299080  54.9125720  33.1094040  56.1811900  60.9701960
  33.6331520  55.6874550  60.3392130  33.6953460  56.3162260  61.7149530
  33.2883760  56.2651770  64.4921510  32.3386470  56.2315310  64.6066500
  33.4696770  57.1751880  64.2571280  19.1428200  54.5153450  53.6020140
  19.8519900  54.0936670  53.1167420  18.4268140  54.5828680  52.9703490
  18.7902360  50.5692780  52.6422790  19.5130490  51.1101720  52.9604010
  19.0626880  50.2956200  51.7664330  32.5994010  55.4385250  56.9094370
  33.0953130  55.2056120  57.6943250  32.4010080  54.5997090  56.4932010
  18.4794550  49.8198970  62.5445410  19.1270740  49.2696350  62.1040570
  18.8996390  50.0742120  63.3661220  34.0281170  54.0746200  59.4432050
  33.9180450  53.9202240  60.3814320  34.7888760  53.5467140  59.2007460
  32.3746890  50.0140330  65.9015050  33.0119110  50.6274470  66.2674240
  32.5221780  50.0500990  64.9564280  34.9909930  52.6764780  55.3094900
  34.1961430  52.6109900  55.8387810  35.1953210  53.6115420  55.2980250
  31.9328350  66.7156330  59.3033290  32.5287420  66.3940900  58.6267710
  32.1906500  66.2428150  60.0946560  18.2326550  49.9754640  65.2870730
  17.8841370  50.4318460  66.0528910  17.9014250  49.0811770  65.3693160
  19.8390920  63.1474240  69.4523920  19.7960550  62.7767150  70.3338380
  19.9701930  64.0851810  69.5925740  23.5396950  64.7033830  65.0533640
  23.2988310  64.9708390  64.1664160  24.4799590  64.8739560  65.1084500
  25.7451370  51.1666520  68.8090150  25.6840260  51.7588350  69.5585560
  26.6851750  51.0592480  68.6640410  28.3825930  50.8236580  68.4482440
  28.9966340  51.1415870  67.7863520  28.9275490  50.3385170  69.0678300
  34.8001110  66.7228210  65.8544280  34.3059390  67.1197080  65.1371410
  34.1914400  66.0977420  66.2481560  18.9047190  49.5030840  68.5621500
  19.4530180  49.3218890  67.7987610  18.9702500  48.7124950  69.0977810
  19.6778950  66.0936490  66.5721700  19.0839270  65.9621190  67.3111740
  19.6702790  65.2574630  66.1063800  29.1233970  49.3868720  64.7751730
  28.2493810  49.7203830  64.5724660  29.0144720  48.9141900  65.6003600
  30.0305950  51.5939590  66.1593450  29.7019310  50.7791350  65.7795180
  30.9788250  51.5509400  66.0359140  32.4840560  67.3651630  63.1331020
  32.0243530  68.1167440  62.7589040  31.8553020  66.6458100  63.0745820
  19.3091180  63.4594870  65.5229740  18.5825240  62.8400160  65.4555690
  19.3700330  63.8535480  64.6527820  22.9136280  65.6739870  62.3079150
  23.4301300  65.0627230  61.7827410  23.5633660  66.1768650  62.7990160
  25.6531780  66.5648360  63.1348130  25.9409590  66.3102660  62.2581140
  26.1655000  66.0125720  63.7253700  26.8708790  50.3038560  63.7144640
  26.0880580  50.7784060  63.9941400  26.5771720  49.3993390  63.6057820
  31.4229860  51.0061660  61.7593730  31.8637950  50.9506760  60.9115330
  31.1537450  51.9219670  61.8303910  33.2868430  50.6376900  59.7702550
  33.2256830  49.6938120  59.6233570  34.0660460  50.7456990  60.3156010
  17.5921180  66.7769260  58.7326500  17.4243220  66.1439940  59.4308390
  16.7255690  66.9828660  58.3820690  18.2149200  50.6086040  56.2358360
  18.9728560  50.7214920  55.6622390  17.7526370  51.4455240  56.1901790
  24.7563010  52.7225310  59.2260670  23.9437520  52.3482200  58.8856550
  25.2604650  51.9670390  59.5281860  29.2587990  49.3867760  60.4643740
  29.8617360  49.9587970  60.9392260  28.5180980  49.9507200  60.2417640
  32.4022590  49.7889320  55.7384020  32.5973220  50.6872770  56.0051450
  31.6152460  49.5576400  56.2316970  19.1983880  65.4702490  56.1776640
  18.6731500  65.8510520  55.4738600  19.1228460  66.0953260  56.8986350
  20.5874350  51.1350090  54.7760330  21.1167110  50.3479890  54.6468280
  21.2202670  51.8141280  55.0095860  22.7812190  50.8725230  57.8305720
  22.1514930  50.1712540  57.9975850  22.2417330  51.6329360  57.6138880
  25.7204140  67.4864460  70.5016330  26.6471450  67.2508730  70.5452290
  25.7054570  68.3136460  70.0202360  22.9067750  50.1509210  70.2658210
  22.6252020  50.6542810  69.5019030  23.2887450  49.3530960  69.9000340
  21.7976850  67.4184870  55.0525890  22.5295670  67.1344150  54.5049780
  22.0570520  67.1798150  55.9425270  20.9591640  63.5349600  55.0572220
  20.3300520  64.0034700  55.6058050  21.0739470  62.6898820  55.4918410
  29.5083210  49.5662790  70.8438680  29.3948660  49.8857400  71.7390200
  30.3252950  49.9675300  70.5475960  32.2881700  66.7134320  70.3257370
  33.0807020  66.2183550  70.1183330  32.5814850  67.3924460  70.9332980
  28.4141360  57.5855260  41.2073420  28.3335410  56.6709870  40.9365130
  28.0005780  58.0822330  40.5013130  26.5459400  59.3634280  43.0882690
  25.7701500  58.8834720  43.3781260  27.1972330  58.6839930  42.9138850
  20.5625230  59.6754090  43.9658450  19.7310110  59.4202800  44.3654960
  21.1706210  59.7464860  44.7016370  30.5666830  63.7694470  41.8681820
  30.1048360  62.9981710  42.1968990  31.3792380  63.7960540  42.3734270
  20.5426490  63.7094180  44.1616470  20.8454530  62.8191920  43.9826690
  21.2870080  64.2664400  43.9338720  18.9717180  54.6355980  37.7500840
  18.0833880  54.9771950  37.6480720  19.2558370  54.4356300  36.8581670
  16.9350190  57.2361630  43.6340540  17.5066300  56.4683830  43.6344180
  16.9351730  57.5350390  42.7247150  25.9868390  62.0391470  43.0952850
  25.9176670  61.0981410  42.9341980  26.7488250  62.1292880  43.6675420
  18.1775060  52.6445990  45.4209470  17.9977900  51.7471740  45.7012230
  17.7755140  53.1917860  46.0956420  27.0173560  54.8461850  43.3221780
  27.3938380  53.9733730  43.2095450  26.9193070  55.1820550  42.4312220
  21.1478570  53.2187480  38.7839220  21.2545320  54.1191210  39.0907980
  20.2370930  53.1705450  38.4933870  30.7997680  52.3412290  40.2550120
  31.6207300  51.8508860  40.2975600  30.8331760  52.9309950  41.0081960
  18.7961730  55.1406490  44.0291810  19.4771840  55.4044860  44.6479210
  18.4809780  54.3007360  44.3629820  22.9886300  56.1873850  43.1164400
  23.4964520  56.6854820  43.7569420  23.5199540  55.4109050  42.9403760
  35.0897230  54.3579040  46.8193750  34.3849400  54.7460750  46.3008860
  35.3555150  55.0529330  47.4214680  21.2722400  50.8272410  47.3827820
  21.2740840  51.3444800  46.5773720  20.4426710  50.3502590  47.3597750
  27.6593490  60.9391720  38.8817720  27.0410760  61.4041170  38.3180440
  28.1716740  61.6319200  39.2987230  22.5225250  60.4667590  45.5601320
  22.1894630  61.0936510  46.2022390  22.6991930  60.9929470  44.7802990
  31.0359160  54.2812670  43.0277660  30.3314730  54.5697560  43.6080770
  31.3971320  55.0912780  42.6677220  20.9537730  52.5382370  45.3898270
  21.2954540  53.3824420  45.0952140  20.0153540  52.6866110  45.5063610
  21.7344350  62.4348390  47.3750500  22.3518350  63.1099470  47.0934950
  20.8737470  62.8436370  47.2838000  17.0276690  61.6248250  36.2557350
  16.6504670  62.1135350  35.5242250  17.2849760  62.2973530  36.8863880
  34.1046080  53.7267460  43.4186870  33.1570990  53.7606440  43.5502300
  34.4296070  54.5406410  43.8036230  24.6365620  50.0264640  41.7142860
  24.9440600  49.4711530  40.9978360  23.7066320  50.1609100  41.5315850
  31.4826100  62.4648150  39.0940490  31.3722430  61.5222480  39.2189910
  31.4794350  62.8263790  39.9803250  29.5866120  60.6461770  45.3332930
  30.0034910  60.4321880  44.4986390  30.3105940  60.9034560  45.9041550
  27.0246380  58.0913470  38.4502980  26.0975660  58.0250850  38.6791450
  27.1771200  59.0293600  38.3358220  27.0115460  54.3630470  35.4470140
  26.0719130  54.5244430  35.5322600  27.3298720  55.0816150  34.9006130
  33.5328220  59.0448990  45.4249170  32.7046850  59.1142080  44.9499300
  34.1278700  59.6303300  44.9565000  31.0543670  59.6533770  38.9538230
  30.4356090  59.3153320  38.3064530  31.0368120  59.0093530  39.6617420
  30.4970230  55.8318310  46.3704040  30.0841410  56.6572020  46.6244030
  29.7646180  55.2463350  46.1780400  22.6303020  58.6178210  41.2322710
  22.2260020  57.9055460  40.7368610  22.7166140  58.2731450  42.1210750
  23.0984720  62.3045770  43.3961920  22.8013010  61.6991240  42.7169700
  24.0484540  62.3423080  43.2851280  21.3431640  55.3921420  45.0121750
  21.8946230  55.5016760  44.2375000  21.8575150  55.7659020  45.7276980
  22.1903150  62.0427460  50.0469720  21.2931680  62.2667430  50.2943120
  22.2156020  62.1662400  49.0981120  29.2308370  58.8920580  35.9610980
  29.6701650  58.0543010  35.8148800  29.9436790  59.5249980  36.0475120
  21.0174370  58.9140780  48.6227090  20.8782140  59.7863580  48.9914490
  20.1355730  58.5713590  48.4775030  27.3403750  63.8316650  39.9292220
  27.7799660  64.5740980  39.5147610  27.2790640  64.0743220  40.8531180
  22.8154720  64.8562480  50.8312240  22.7870150  65.2605430  49.9640670
  22.6519690  63.9272840  50.6683840  32.8125510  50.1463390  34.2752020
  32.4998170  50.2390220  35.1751090  33.5737980  50.7244420  34.2249450
  19.3307650  57.5123190  38.7329360  19.2105250  58.2385280  38.1210630
  19.0208540  56.7426100  38.2557270  16.9693020  60.6838330  44.5398000
  17.0473440  60.8187100  43.5953720  17.5834700  59.9754220  44.7326120
  18.2140650  62.3838520  40.9504180  17.8068730  62.5253110  40.0957780
  19.1053660  62.0998680  40.7475390  30.0073930  66.8185770  37.2855230
  29.8475070  66.5288710  38.1837060  29.8420640  66.0425900  36.7500460
  22.4862310  66.5984300  39.0626850  22.3104790  65.6819840  38.8494650
  21.6318050  66.9571590  39.3024650  29.7100060  64.3273330  35.8453230
  29.0165220  64.3250620  35.1855510  30.4522920  63.9032650  35.4147400
  29.2749990  65.9536040  39.9201720  29.7306940  65.1725420  40.2340340
  29.6142510  66.6642860  40.4642900  17.0252540  61.7252500  47.0792460
  17.1883580  61.2557860  46.2611830  17.4904990  61.2176060  47.7441300
  21.7971310  50.8558260  42.1153030  21.3539460  51.6367800  41.7837550
  22.3556300  51.1788150  42.8223970  26.0841120  53.7226780  47.7188350
  25.6220490  53.9309800  48.5308290  25.6819230  52.9086130  47.4159020
  28.1795340  56.4437480  50.9483800  28.5048750  55.6101230  50.6086030
  28.9675670  56.9666000  51.0962130  24.9130130  50.4768960  36.9958860
  24.2884310  50.4728830  37.7212170  24.8260250  49.6099920  36.5994830
  23.8347210  51.4005590  43.9742630  24.1319540  52.3068420  43.8934650
  24.3832770  50.9124370  43.3602200  21.5885530  55.9791830  39.8434280
  21.3626450  55.7629000  40.7480900  20.8078060  56.4120290  39.4980250
  28.8183290  55.9855200  38.4424930  28.2192180  56.7091000  38.2588550
  29.3662900  55.9231980  37.6601380  24.0284740  56.8777410  50.5094550
  23.9328340  55.9372140  50.3594950  24.8716720  57.0992480  50.1142620
  27.4248160  54.6218740  40.4728210  27.8177730  54.9390940  39.6596900
  27.7865010  53.7430620  40.5872730  19.1595280  53.2891080  48.6628330
  18.7658670  54.1366290  48.8701110  18.4713680  52.6517450  48.8536970
  25.7340330  53.3726050  51.7325070  25.0438650  53.1798250  52.3671160
  26.4772630  53.6560690  52.2649370  16.4612330  51.2119540  42.6958410
  16.1725380  51.7822400  43.4083390  17.2058090  50.7323990  43.0589640
  16.6482560  55.1539660  33.9061130  16.5657230  56.0970420  34.0476120
  16.2965620  55.0114570  33.0273480  28.0103300  57.2124490  44.5678990
  27.2784420  57.7211300  44.9169090  27.6127640  56.3954470  44.2667770
  24.4480690  53.8878690  42.9731480  24.4516750  53.4468640  42.1236020
  25.3431810  54.2096020  43.0803300  20.2983070  53.7705180  41.9325690
  19.9583120  54.2480410  42.6892740  19.5360390  53.3170300  41.5726790
  28.4729210  52.6658170  43.9801930  28.4901950  53.1166820  44.8243780
  28.2244790  51.7663810  44.1935370  31.8999960  50.0790350  49.8188310
  32.2245730  49.3480010  50.3446290  31.9356470  49.7603990  48.9169300
  18.5991520  61.1003930  49.2388270  18.2146310  60.4597600  49.8371230
  18.9103710  61.8040050  49.8083000  24.7488660  57.9480470  44.7196890
  25.1158790  57.4739040  45.4658230  24.5593720  58.8222040  45.0605230
  17.6129150  52.6924160  40.8490360  17.3276070  52.3279830  41.6868980
  17.5508010  51.9604620  40.2353500  22.5388030  56.9889110  47.0381100
  22.2345100  57.8681090  47.2631460  23.4934490  57.0488900  47.0738540
  21.0669820  61.1950100  37.6347950  20.2932080  60.6547720  37.4746670
  21.7964450  60.6756710  37.2965710  31.8257800  60.1915460  43.4274340
  32.5456920  60.6870750  43.0370450  31.6239620  59.5133350  42.7828210
  27.2867740  51.5853420  37.5703730  26.4732350  51.0866590  37.4949040
  27.0929690  52.4251670  37.1540080  27.2076600  60.2624520  49.3143340
  27.1413910  59.3420190  49.0600930  26.5781740  60.3599960  50.0287980
  30.0016130  55.9573070  35.8665890  30.8895750  56.2690300  35.6917230
  29.9721220  55.0845320  35.4746470  21.1107220  60.8630480  41.2726760
  21.6285890  60.0598740  41.2183650  20.6591240  60.8009620  42.1143590
  25.9976720  62.1296760  36.5454060  26.3392420  62.8738990  36.0497380
  25.1689430  62.4427880  36.9078890  18.5951760  57.8291850  48.1852460
  18.2366700  58.4945700  48.7725800  18.3006320  56.9975400  48.5565080
  21.7964880  58.2876090  51.0692010  21.4965020  58.4333270  50.1719830
  22.5676120  57.7281380  50.9765400  32.2730400  57.2684910  35.3345750
  32.1894120  57.6999130  34.4842190  32.9924590  57.7283260  35.7672570
  33.3017650  64.1227170  38.0627880  32.6593810  63.4682790  38.3371600
  32.9148310  64.5282260  37.2868550  28.8804130  61.4512600  41.9099570
  29.2327950  60.8540730  41.2500940  27.9966460  61.1256830  42.0807820
  24.9667410  62.2110290  39.3169980  25.6538540  62.7579500  39.6977570
  24.1799830  62.7551020  39.3519590  17.1059810  57.8283110  34.8087060
  17.9754660  58.1107910  35.0922980  16.6150130  58.6418980  34.6935870
  24.2694620  59.2156320  38.9295340  24.7257400  60.0261570  39.1555530
  23.9182830  58.8979460  39.7613830  20.1706400  49.5593970  39.4017860
  20.0421030  49.5511870  40.3502780  19.3468420  49.8977060  39.0508870
  31.6915030  63.0143630  34.6004230  31.4652610  62.2974070  35.1928870
  31.3011230  62.7656070  33.7625980  17.4731060  67.0410490  35.3748690
  17.8328700  67.6399830  34.7205960  17.3323400  67.5870380  36.1483720
  17.1700330  51.3185090  48.8624560  16.4558850  51.5182010  49.4677170
  17.5895370  50.5424660  49.2339360  31.2731280  60.9315570  36.2618390
  30.9852980  61.3928260  37.0496270  32.0683450  60.4713340  36.5302610
  17.4572920  65.3065350  49.8491090  17.5664040  64.3660090  49.7086480
  16.8053480  65.5720100  49.2004820  25.4485510  63.5781240  51.2489210
  25.1282380  62.8590480  51.7934900  24.7743870  64.2536310  51.3225270
  23.4899680  64.4241690  36.1922360  23.4809780  65.1571380  35.5766870
  22.5698040  64.1773270  36.2849320  19.0906320  59.6456580  36.9369120
  18.4834270  60.3855480  36.9464420  19.5655670  59.7355940  36.1107320
  28.6639110  53.8107400  46.6126010  29.0319930  52.9902610  46.9405580
  27.8037310  53.8709290  47.0281660  32.0301140  52.7664340  37.4213570
  31.4014300  52.8710010  36.7071800  31.5353060  52.9861120  38.2107450
  26.4759280  64.4869930  34.8547550  26.5771260  64.2833920  33.9249530
  25.5761020  64.2328210  35.0595330  23.9985170  55.0450290  38.8371450
  23.2901320  55.5136630  39.2785060  24.2829650  54.3872300  39.4716640
  25.6241100  56.4646990  46.8363980  26.1226350  56.9392810  47.5015830
  25.7664050  55.5410510  47.0434010  28.0300600  51.7700950  40.2767240
  27.9068380  51.7887080  39.3276750  28.9785160  51.8179890  40.3965640
  25.1177390  67.0056250  39.5495220  25.3718890  66.9677640  38.6274590
  24.1689870  66.8789580  39.5423470  32.8307960  52.6814950  47.6792370
  32.3281560  53.4220350  48.0186180  33.6464620  53.0698950  47.3629160
  31.1229970  57.9248130  41.1253730  30.1820110  57.9398360  41.3001420
  31.4374040  57.1384090  41.5714030  33.1255550  65.0956980  42.8007990
  33.2502970  65.9188150  43.2731800  33.9921110  64.8847710  42.4532140
  20.5973080  67.1888190  42.4725120  21.3335560  66.6403650  42.7433690
  20.9814000  68.0544200  42.3331110  17.4818560  63.2561760  38.3466630
  16.5558340  63.4982900  38.3372040  17.9474990  64.0836020  38.2251380
  19.6031360  66.3734260  51.6610700  20.4044090  66.6946310  52.0746100
  19.0883180  66.0129840  52.3830610  23.7075390  66.3618500  34.2950690
  24.5004000  66.6507330  33.8432480  23.1879740  65.9310670  33.6163170
  32.7605560  65.5888630  35.7187430  32.4747070  65.1753770  34.9041610
  32.5625110  66.5176340  35.5987950  17.3229170  58.8607720  50.6046750
  17.8268190  58.2815000  51.1762980  16.5836590  59.1447950  51.1423120
  24.2252790  61.5821910  34.1593040  24.1203430  60.9674260  34.8854420
  24.0577010  61.0587800  33.3756050  24.3767110  60.2678710  50.1382270
  23.6112780  60.8363710  50.0536940  24.5583070  59.9754920  49.2450500
  27.4655520  60.6441940  34.7635030  26.9165620  61.0911240  35.4077770
  28.0874780  60.1391190  35.2872700  19.3552250  57.0037310  51.4996820
  19.3957590  56.7051180  52.4082050  20.2097750  57.4044920  51.3404340
  23.1330640  59.6032860  36.6600330  23.5547060  59.4372730  37.5031720
  23.2581480  58.7933090  36.1655470  21.2958060  55.5829410  49.4671310
  20.7654520  55.0920360  48.8394650  21.9646130  56.0113610  48.9329240
  21.7830360  52.5491780  49.5468600  21.6887230  51.9312530  48.8219470
  21.2027750  53.2758070  49.3198510  24.5491800  51.1065020  46.5795990
  24.1009100  51.1289280  45.7341540  23.9157000  50.7084040  47.1766290
  24.9551350  60.0019350  47.2008430  25.3739460  60.8452080  47.0284670
  24.0359980  60.1391390  46.9715210  27.2915250  57.7335530  48.5846270
  27.4111460  57.1376670  49.3241110  28.1509250  57.7705220  48.1647570
  29.6303150  58.2872720  47.1608780  29.1038370  58.8115340  46.5573920
  29.9734490  58.9200110  47.7918510  22.8058770  66.3072360  48.3166160
  22.2679860  67.0318420  47.9974860  23.0592730  65.8302700  47.5263500
  24.0584020  54.2756880  49.8422090  24.6483710  53.9672730  50.5299910
  23.2404260  53.8036630  49.9981990  28.8777450  53.8922690  50.0755110
  28.1892970  53.2304230  50.0105100  29.5983470  53.4460960  50.5203570
  29.5077850  50.4874320  36.1345370  29.7880140  49.6442220  36.4904790
  28.7343580  50.7197430  36.6484120  24.0457270  51.7201330  34.5792570
  23.6979270  51.0425320  33.9995020  24.2470040  51.2590840  35.3935960
  26.2106310  66.7082080  36.1979170  27.1057100  67.0467050  36.2197930
  26.2423940  65.9861490  35.5703450  19.8502470  62.0809130  34.4266170
  20.2877340  62.6238800  35.0823750  20.3350200  61.2556080  34.4362510
  17.0648270  64.8698160  41.8786430  17.3951280  64.0019220  41.6465070
  17.4939270  65.0756680  42.7091390  21.6610190  63.2007170  39.5388400
  21.3605730  63.0772140  40.4392310  21.5547680  62.3415760  39.1304130
  17.5538480  65.7368750  44.6168060  17.1169470  65.9169550  45.4492210
  18.1216160  66.4943370  44.4749780  34.4302110  62.9803570  34.2415080
  33.5995070  63.0480220  34.7122310  34.6073940  63.8707690  33.9381940
  33.8858570  59.7251050  36.7449280  34.6477480  60.2947700  36.8508970
  33.9012940  59.1578250  37.5157590  17.3862910  58.2488980  40.9756940
  16.7311750  57.9800620  40.3316640  18.2240860  58.1393460  40.5258920
  34.8918540  60.5801150  41.5891210  35.2627370  59.7968470  41.1827180
  35.5320470  61.2690250  41.4108510  31.8752300  61.9637730  47.0021530
  31.0612140  62.3934890  47.2647320  32.2826500  62.5756140  46.3890580
  33.9377740  60.0185420  33.9021800  34.2126580  60.9264300  33.7741020
  33.7488480  59.9547950  34.8383790  30.3353350  53.0430270  35.1975430
  30.7538230  52.8561250  34.3572090  30.0289410  52.1909320  35.5078360
  33.8343080  57.9554410  38.8951230  33.4586680  57.1882340  38.4632520
  33.1046200  58.3377110  39.3826160  18.4238840  58.6341550  45.5160280
  18.7911880  58.5468950  46.3956300  17.8549660  57.8708100  45.4167140
  17.9754840  55.5450640  49.4218700  17.0810890  55.5117400  49.7612410
  18.5152390  55.7437430  50.1869950  16.6000990  55.4587910  36.9182270
  15.6965070  55.7218110  36.7433930  17.0841610  55.7299080  36.1382230
  33.1094040  56.1811900  42.1958470  33.6331520  55.6874550  41.5648640
  33.6953460  56.3162260  42.9406040  33.2883760  56.2651770  45.7178020
  32.3386470  56.2315310  45.8323010  33.4696770  57.1751880  45.4827790
  18.7902360  50.5692780  33.8679300  19.5130490  51.1101720  34.1860520
  19.0626880  50.2956200  32.9920840  18.4794550  49.8198970  43.7701920
  19.1270740  49.2696350  43.3297080  18.8996390  50.0742120  44.5917730
  32.3746890  50.0140330  47.1271560  33.0119110  50.6274470  47.4930750
  32.5221780  50.0500990  46.1820790  34.9171440  51.9054120  33.9094700
  35.8420750  51.7735300  33.7012990  34.8947230  51.9846940  34.8631150
  31.9328350  66.7156330  40.5289800  32.5287420  66.3940900  39.8524220
  32.1906500  66.2428150  41.3203070  18.2326550  49.9754640  46.5127240
  17.8841370  50.4318460  47.2785420  17.9014250  49.0811770  46.5949670
  19.8390920  63.1474240  50.6780430  19.7960550  62.7767150  51.5594890
  19.9701930  64.0851810  50.8182250  23.5396950  64.7033830  46.2790150
  23.2988310  64.9708390  45.3920670  24.4799590  64.8739560  46.3341010
  25.7451370  51.1666520  50.0346660  25.6840260  51.7588350  50.7842070
  26.6851750  51.0592480  49.8896920  28.3825930  50.8236580  49.6738950
  28.9966340  51.1415870  49.0120030  28.9275490  50.3385170  50.2934810
  18.9047190  49.5030840  49.7878010  19.4530180  49.3218890  49.0244120
  18.9702500  48.7124950  50.3234320  19.6778950  66.0936490  47.7978210
  19.0839270  65.9621190  48.5368250  19.6702790  65.2574630  47.3320310
  29.1233970  49.3868720  46.0008240  28.2493810  49.7203830  45.7981170
  29.0144720  48.9141900  46.8260110  30.0305950  51.5939590  47.3849960
  29.7019310  50.7791350  47.0051690  30.9788250  51.5509400  47.2615650
  19.3091180  63.4594870  46.7486250  18.5825240  62.8400160  46.6812200
  19.3700330  63.8535480  45.8784330  22.9136280  65.6739870  43.5335660
  23.4301300  65.0627230  43.0083920  23.5633660  66.1768650  44.0246670
  26.8708790  50.3038560  44.9401150  26.0880580  50.7784060  45.2197910
  26.5771720  49.3993390  44.8314330  31.4229860  51.0061660  42.9850240
  31.8637950  50.9506760  42.1371840  31.1537450  51.9219670  43.0560420
  17.5921180  66.7769260  39.9583010  17.4243220  66.1439940  40.6564900
  16.7255690  66.9828660  39.6077200  18.2149200  50.6086040  37.4614870
  18.9728560  50.7214920  36.8878900  17.7526370  51.4455240  37.4158300
  24.7563010  52.7225310  40.4517180  23.9437520  52.3482200  40.1113060
  25.2604650  51.9670390  40.7538370  29.2587990  49.3867760  41.6900250
  29.8617360  49.9587970  42.1648770  28.5180980  49.9507200  41.4674150
  32.4022590  49.7889320  36.9640530  32.5973220  50.6872770  37.2307960
  31.6152460  49.5576400  37.4573480  19.1983880  65.4702490  37.4033150
  18.6731500  65.8510520  36.6995110  19.1228460  66.0953260  38.1242860
  20.5874350  51.1350090  36.0016840  21.1167110  50.3479890  35.8724790
  21.2202670  51.8141280  36.2352370  22.7812190  50.8725230  39.0562230
  22.1514930  50.1712540  39.2232360  22.2417330  51.6329360  38.8395390
  33.9549200  67.0290030  38.7247090  34.1301390  66.3427770  38.0808010
  33.2570770  67.5537080  38.3323760  22.9067750  50.1509210  51.4914720
  22.6252020  50.6542810  50.7275540  23.2887450  49.3530960  51.1256850
  21.7976850  67.4184870  36.2782400  22.5295670  67.1344150  35.7306290
  22.0570520  67.1798150  37.1681780  20.9591640  63.5349600  36.2828730
  20.3300520  64.0034700  36.8314560  21.0739470  62.6898820  36.7174920
  29.5083210  49.5662790  52.0695190  29.3948660  49.8857400  52.9646710
  30.3252950  49.9675300  51.7732470  28.4141360  57.5855260  22.4329930
  28.3335410  56.6709870  22.1621640  28.0005780  58.0822330  21.7269640
  26.5459400  59.3634280  24.3139200  25.7701500  58.8834720  24.6037770
  27.1972330  58.6839930  24.1395360  20.5625230  59.6754090  25.1914960
  19.7310110  59.4202800  25.5911470  21.1706210  59.7464860  25.9272880
  30.5666830  63.7694470  23.0938330  30.1048360  62.9981710  23.4225500
  31.3792380  63.7960540  23.5990780  20.5426490  63.7094180  25.3872980
  20.8454530  62.8191920  25.2083200  21.2870080  64.2664400  25.1595230
  18.9717180  54.6355980  18.9757350  18.0833880  54.9771950  18.8737230
  19.2558370  54.4356300  18.0838180  16.9350190  57.2361630  24.8597050
  17.5066300  56.4683830  24.8600690  16.9351730  57.5350390  23.9503660
  26.7930140  66.0552480  22.7142320  26.1741580  66.5109980  22.1436760
  27.6481920  66.2103940  22.3132020  25.9868390  62.0391470  24.3209360
  25.9176670  61.0981410  24.1598490  26.7488250  62.1292880  24.8931930
  18.1775060  52.6445990  26.6465980  17.9977900  51.7471740  26.9268740
  17.7755140  53.1917860  27.3212930  27.0173560  54.8461850  24.5478290
  27.3938380  53.9733730  24.4351960  26.9193070  55.1820550  23.6568730
  21.1478570  53.2187480  20.0095730  21.2545320  54.1191210  20.3164490
  20.2370930  53.1705450  19.7190380  30.7997680  52.3412290  21.4806630
  31.6207300  51.8508860  21.5232110  30.8331760  52.9309950  22.2338470
  18.7961730  55.1406490  25.2548320  19.4771840  55.4044860  25.8735720
  18.4809780  54.3007360  25.5886330  22.9886300  56.1873850  24.3420910
  23.4964520  56.6854820  24.9825930  23.5199540  55.4109050  24.1660270
  35.0897230  54.3579040  28.0450260  34.3849400  54.7460750  27.5265370
  35.3555150  55.0529330  28.6471190  21.2722400  50.8272410  28.6084330
  21.2740840  51.3444800  27.8030230  20.4426710  50.3502590  28.5854260
  27.6593490  60.9391720  20.1074230  27.0410760  61.4041170  19.5436950
  28.1716740  61.6319200  20.5243740  22.5225250  60.4667590  26.7857830
  22.1894630  61.0936510  27.4278900  22.6991930  60.9929470  26.0059500
  31.0359160  54.2812670  24.2534170  30.3314730  54.5697560  24.8337280
  31.3971320  55.0912780  23.8933730  20.9537730  52.5382370  26.6154780
  21.2954540  53.3824420  26.3208650  20.0153540  52.6866110  26.7320120
  21.7344350  62.4348390  28.6007010  22.3518350  63.1099470  28.3191460
  20.8737470  62.8436370  28.5094510  17.0276690  61.6248250  17.4813860
  16.6504670  62.1135350  16.7498760  17.2849760  62.2973530  18.1120390
  32.6521940  63.8987800  26.5161650  31.9685460  64.5686910  26.5078320
  33.1916230  64.0968450  25.7506510  34.1046080  53.7267460  24.6443380
  33.1570990  53.7606440  24.7758810  34.4296070  54.5406410  25.0292740
  24.6365620  50.0264640  22.9399370  24.9440600  49.4711530  22.2234870
  23.7066320  50.1609100  22.7572360  30.1880680  65.7431930  25.2306830
  30.2007840  65.3394220  24.3629090  29.6355900  66.5179220  25.1268260
  31.4826100  62.4648150  20.3197000  31.3722430  61.5222480  20.4446420
  31.4794350  62.8263790  21.2059760  29.5866120  60.6461770  26.5589440
  30.0034910  60.4321880  25.7242900  30.3105940  60.9034560  27.1298060
  27.0246380  58.0913470  19.6759490  26.0975660  58.0250850  19.9047960
  27.1771200  59.0293600  19.5614730  27.0115460  54.3630470  16.6726650
  26.0719130  54.5244430  16.7579110  27.3298720  55.0816150  16.1262640
  33.5328220  59.0448990  26.6505680  32.7046850  59.1142080  26.1755810
  34.1278700  59.6303300  26.1821510  31.0543670  59.6533770  20.1794740
  30.4356090  59.3153320  19.5321040  31.0368120  59.0093530  20.8873930
  30.4970230  55.8318310  27.5960550  30.0841410  56.6572020  27.8500540
  29.7646180  55.2463350  27.4036910  22.6303020  58.6178210  22.4579220
  22.2260020  57.9055460  21.9625120  22.7166140  58.2731450  23.3467260
  23.0984720  62.3045770  24.6218430  22.8013010  61.6991240  23.9426210
  24.0484540  62.3423080  24.5107790  21.3431640  55.3921420  26.2378260
  21.8946230  55.5016760  25.4631510  21.8575150  55.7659020  26.9533490
  31.1870330  65.8777640  28.2841530  30.7100890  66.6849830  28.0914140
  30.5032120  65.2255970  28.4367740  22.1903150  62.0427460  31.2726230
  21.2931680  62.2667430  31.5199630  22.2156020  62.1662400  30.3237630
  29.2308370  58.8920580  17.1867490  29.6701650  58.0543010  17.0405310
  29.9436790  59.5249980  17.2731630  21.0174370  58.9140780  29.8483600
  20.8782140  59.7863580  30.2171000  20.1355730  58.5713590  29.7031540
  27.3403750  63.8316650  21.1548730  27.7799660  64.5740980  20.7404120
  27.2790640  64.0743220  22.0787690  22.8154720  64.8562480  32.0568750
  22.7870150  65.2605430  31.1897180  22.6519690  63.9272840  31.8940350
  32.8125510  50.1463390  15.5008530  32.4998170  50.2390220  16.4007600
  33.5737980  50.7244420  15.4505960  19.3307650  57.5123190  19.9585870
  19.2105250  58.2385280  19.3467140  19.0208540  56.7426100  19.4813780
  34.7669540  65.6389580  33.3532920  35.2429260  66.1172470  34.0322000
  35.3876700  65.5707070  32.6278420  16.9693020  60.6838330  25.7654510
  17.0473440  60.8187100  24.8210230  17.5834700  59.9754220  25.9582630
  18.2140650  62.3838520  22.1760690  17.8068730  62.5253110  21.3214290
  19.1053660  62.0998680  21.9731900  34.1702790  62.8302430  30.5132930
  34.2965850  62.5914310  29.5950110  34.2124170  61.9986970  30.9855010
  28.0319530  66.5330430  29.0827740  28.5464200  66.4438440  29.8850170
  27.1888610  66.8790130  29.3755650  30.0073930  66.8185770  18.5111740
  29.8475070  66.5288710  19.4093570  29.8420640  66.0425900  17.9756970
  22.4862310  66.5984300  20.2883360  22.3104790  65.6819840  20.0751160
  21.6318050  66.9571590  20.5281160  29.7100060  64.3273330  17.0709740
  29.0165220  64.3250620  16.4112020  30.4522920  63.9032650  16.6403910
  29.2749990  65.9536040  21.1458230  29.7306940  65.1725420  21.4596850
  29.6142510  66.6642860  21.6899410  34.0226800  54.8834890  31.4782670
  33.4071070  55.3914560  30.9498130  33.7023220  53.9833220  31.4208610
  17.0252540  61.7252500  28.3048970  17.1883580  61.2557860  27.4868340
  17.4904990  61.2176060  28.9697810  21.7971310  50.8558260  23.3409540
  21.3539460  51.6367800  23.0094060  22.3556300  51.1788150  24.0480480
  26.0841120  53.7226780  28.9444860  25.6220490  53.9309800  29.7564800
  25.6819230  52.9086130  28.6415530  31.0845630  54.9435730  30.0741520
  30.2339220  54.6441480  30.3950590  30.9247420  55.1877740  29.1625340
  28.1795340  56.4437480  32.1740310  28.5048750  55.6101230  31.8342540
  28.9675670  56.9666000  32.3218640  24.9130130  50.4768960  18.2215370
  24.2884310  50.4728830  18.9468680  24.8260250  49.6099920  17.8251340
  23.8347210  51.4005590  25.1999140  24.1319540  52.3068420  25.1191160
  24.3832770  50.9124370  24.5858710  21.5885530  55.9791830  21.0690790
  21.3626450  55.7629000  21.9737410  20.8078060  56.4120290  20.7236760
  28.8183290  55.9855200  19.6681440  28.2192180  56.7091000  19.4845060
  29.3662900  55.9231980  18.8857890  27.4248160  54.6218740  21.6984720
  27.8177730  54.9390940  20.8853410  27.7865010  53.7430620  21.8129240
  19.1595280  53.2891080  29.8884840  18.7658670  54.1366290  30.0957620
  18.4713680  52.6517450  30.0793480  16.4612330  51.2119540  23.9214920
  16.1725380  51.7822400  24.6339900  17.2058090  50.7323990  24.2846150
  16.6482560  55.1539660  15.1317640  16.5657230  56.0970420  15.2732630
  16.2965620  55.0114570  14.2529990  28.0103300  57.2124490  25.7935500
  27.2784420  57.7211300  26.1425600  27.6127640  56.3954470  25.4924280
  24.4480690  53.8878690  24.1987990  24.4516750  53.4468640  23.3492530
  25.3431810  54.2096020  24.3059810  20.2983070  53.7705180  23.1582200
  19.9583120  54.2480410  23.9149250  19.5360390  53.3170300  22.7983300
  24.5100840  54.8890770  17.1894750  24.6313660  54.8477250  18.1380570
  24.1249350  55.7514920  17.0341480  28.4729210  52.6658170  25.2058440
  28.4901950  53.1166820  26.0500290  28.2244790  51.7663810  25.4191880
  23.5222340  57.1991910  16.5878050  22.9539240  56.7510160  15.9613960
  24.2311340  57.5584690  16.0543200  31.8999960  50.0790350  31.0444820
  32.2245730  49.3480010  31.5702800  31.9356470  49.7603990  30.1425810
  18.5991520  61.1003930  30.4644780  18.2146310  60.4597600  31.0627740
  18.9103710  61.8040050  31.0339510  24.7488660  57.9480470  25.9453400
  25.1158790  57.4739040  26.6914740  24.5593720  58.8222040  26.2861740
  17.6129150  52.6924160  22.0746870  17.3276070  52.3279830  22.9125490
  17.5508010  51.9604620  21.4610010  22.5388030  56.9889110  28.2637610
  22.2345100  57.8681090  28.4887970  23.4934490  57.0488900  28.2995050
  21.0669820  61.1950100  18.8604460  20.2932080  60.6547720  18.7003180
  21.7964450  60.6756710  18.5222220  31.8257800  60.1915460  24.6530850
  32.5456920  60.6870750  24.2626960  31.6239620  59.5133350  24.0084720
  27.2867740  51.5853420  18.7960240  26.4732350  51.0866590  18.7205550
  27.0929690  52.4251670  18.3796590  27.2076600  60.2624520  30.5399850
  27.1413910  59.3420190  30.2857440  26.5781740  60.3599960  31.2544490
  30.0016130  55.9573070  17.0922400  30.8895750  56.2690300  16.9173740
  29.9721220  55.0845320  16.7002980  21.1107220  60.8630480  22.4983270
  21.6285890  60.0598740  22.4440160  20.6591240  60.8009620  23.3400100
  25.9976720  62.1296760  17.7710570  26.3392420  62.8738990  17.2753890
  25.1689430  62.4427880  18.1335400  18.5951760  57.8291850  29.4108970
  18.2366700  58.4945700  29.9982310  18.3006320  56.9975400  29.7821590
  27.1393330  63.0845090  30.2903650  27.1537870  62.1526050  30.0722560
  26.4318430  63.1704850  30.9293420  32.2730400  57.2684910  16.5602260
  32.1894120  57.6999130  15.7098700  32.9924590  57.7283260  16.9929080
  33.3504540  59.7252430  29.6372230  32.6252730  60.3181210  29.4401620
  33.8780000  59.7175970  28.8385600  33.3017650  64.1227170  19.2884390
  32.6593810  63.4682790  19.5628110  32.9148310  64.5282260  18.5125060
  28.8804130  61.4512600  23.1356080  29.2327950  60.8540730  22.4757450
  27.9966460  61.1256830  23.3064330  24.9667410  62.2110290  20.5426490
  25.6538540  62.7579500  20.9234080  24.1799830  62.7551020  20.5776100
  17.1059810  57.8283110  16.0343570  17.9754660  58.1107910  16.3179490
  16.6150130  58.6418980  15.9192380  24.2694620  59.2156320  20.1551850
  24.7257400  60.0261570  20.3812040  23.9182830  58.8979460  20.9870340
  26.5727230  64.7262660  27.3844150  27.2169450  64.9322040  28.0617570
  26.9356670  63.9651060  26.9315000  20.1706400  49.5593970  20.6274370
  20.0421030  49.5511870  21.5759290  19.3468420  49.8977060  20.2765380
  27.8459310  62.7295010  26.1021600  28.4881540  62.0288170  26.2153770
  28.3708660  63.5093450  25.9218490  31.6915030  63.0143630  15.8260740
  31.4652610  62.2974070  16.4185380  31.3011230  62.7656070  14.9882490
  29.6196930  63.5289910  29.3057660  29.9553170  64.1156600  29.9835580
  28.6997270  63.3982620  29.5355450  17.4731060  67.0410490  16.6005200
  17.8328700  67.6399830  15.9462470  17.3323400  67.5870380  17.3740230
  17.1700330  51.3185090  30.0881070  16.4558850  51.5182010  30.6933680
  17.5895370  50.5424660  30.4595870  31.2731280  60.9315570  17.4874900
  30.9852980  61.3928260  18.2752780  32.0683450  60.4713340  17.7559120
  17.4572920  65.3065350  31.0747600  17.5664040  64.3660090  30.9342990
  16.8053480  65.5720100  30.4261330  25.4485510  63.5781240  32.4745720
  25.1282380  62.8590480  33.0191410  24.7743870  64.2536310  32.5481780
  23.4899680  64.4241690  17.4178870  23.4809780  65.1571380  16.8023380
  22.5698040  64.1773270  17.5105830  19.0906320  59.6456580  18.1625630
  18.4834270  60.3855480  18.1720930  19.5655670  59.7355940  17.3363830
  28.6639110  53.8107400  27.8382520  29.0319930  52.9902610  28.1662090
  27.8037310  53.8709290  28.2538170  32.0301140  52.7664340  18.6470080
  31.4014300  52.8710010  17.9328310  31.5353060  52.9861120  19.4363960
  26.4759280  64.4869930  16.0804060  26.5771260  64.2833920  15.1506040
  25.5761020  64.2328210  16.2851840  23.9985170  55.0450290  20.0627960
  23.2901320  55.5136630  20.5041570  24.2829650  54.3872300  20.6973150
  25.6241100  56.4646990  28.0620490  26.1226350  56.9392810  28.7272340
  25.7664050  55.5410510  28.2690520  28.0300600  51.7700950  21.5023750
  27.9068380  51.7887080  20.5533260  28.9785160  51.8179890  21.6222150
  25.1177390  67.0056250  20.7751730  25.3718890  66.9677640  19.8531100
  24.1689870  66.8789580  20.7679980  22.2020190  53.3535370  17.4378670
  23.0510720  53.7905520  17.3718860  21.8351460  53.6655630  18.2650730
  32.8307960  52.6814950  28.9048880  32.3281560  53.4220350  29.2442690
  33.6464620  53.0698950  28.5885670  31.1229970  57.9248130  22.3510240
  30.1820110  57.9398360  22.5257930  31.4374040  57.1384090  22.7970540
  21.1011610  59.6067730  15.9114200  21.8674880  59.4949090  16.4739630
  21.1786300  58.9105700  15.2590970  19.7958370  57.0392800  16.5947090
  19.8761960  56.0920310  16.7064490  20.6878120  57.3699680  16.7007750
  33.1255550  65.0956980  24.0264500  33.2502970  65.9188150  24.4988310
  33.9921110  64.8847710  23.6788650  20.5973080  67.1888190  23.6981630
  21.3335560  66.6403650  23.9690200  20.9814000  68.0544200  23.5587620
  17.4818560  63.2561760  19.5723140  16.5558340  63.4982900  19.5628550
  17.9474990  64.0836020  19.4507890  19.6031360  66.3734260  32.8867210
  20.4044090  66.6946310  33.3002610  19.0883180  66.0129840  33.6087120
  23.7075390  66.3618500  15.5207200  24.5004000  66.6507330  15.0688990
  23.1879740  65.9310670  14.8419680  28.4395990  62.4814130  32.8342620
  27.8334150  62.5045730  32.0938370  28.1350100  61.7497170  33.3709870
  29.8696360  66.2094420  31.4452030  30.8218110  66.1252440  31.3952270
  29.7224580  66.8736130  32.1185820  32.7605560  65.5888630  16.9443940
  32.4747070  65.1753770  16.1298120  32.5625110  66.5176340  16.8244460
  17.3229170  58.8607720  31.8303260  17.8268190  58.2815000  32.4019490
  16.5836590  59.1447950  32.3679630  24.2252790  61.5821910  15.3849550
  24.1203430  60.9674260  16.1110930  24.0577010  61.0587800  14.6012560
  24.3767110  60.2678710  31.3638780  23.6112780  60.8363710  31.2793450
  24.5583070  59.9754920  30.4707010  27.4655520  60.6441940  15.9891540
  26.9165620  61.0911240  16.6334280  28.0874780  60.1391190  16.5129210
  31.5190460  61.9984040  31.9213800  32.2599930  62.3359800  31.4181260
  30.7563140  62.1676100  31.3683570  23.1330640  59.6032860  17.8856840
  23.5547060  59.4372730  18.7288230  23.2581480  58.7933090  17.3911980
  25.6458280  58.6270470  15.1333940  26.1663940  57.9119490  14.7675090
  26.2926680  59.2656340  15.4334450  30.1936120  60.0498870  30.4569010
  30.6077140  60.2043950  31.3059430  29.2587120  60.1754090  30.6194790
  30.6658290  57.3895030  32.4608160  31.2479060  56.6347350  32.3728640
  30.8420060  57.9202470  31.6839640  24.5491800  51.1065020  27.8052500
  24.1009100  51.1289280  26.9598050  23.9157000  50.7084040  28.4022800
  24.9551350  60.0019350  28.4264940  25.3739460  60.8452080  28.2541180
  24.0359980  60.1391390  28.1971720  27.2915250  57.7335530  29.8102780
  27.4111460  57.1376670  30.5497620  28.1509250  57.7705220  29.3904080
  29.6303150  58.2872720  28.3865290  29.1038370  58.8115340  27.7830430
  29.9734490  58.9200110  29.0175020  22.0289540  55.6766090  14.8315000
  21.8278600  54.8133450  15.1928340  21.8581590  55.5899450  13.8936600
  22.8058770  66.3072360  29.5422670  22.2679860  67.0318420  29.2231370
  23.0592730  65.8302700  28.7520010  28.8777450  53.8922690  31.3011620
  28.1892970  53.2304230  31.2361610  29.5983470  53.4460960  31.7460080
  29.5077850  50.4874320  17.3601880  29.7880140  49.6442220  17.7161300
  28.7343580  50.7197430  17.8740630  20.8272340  52.7766710  14.8192880
  21.1298240  52.7834140  13.9112030  21.5666930  52.4264570  15.3160540
  25.6620980  67.5423570  29.8009320  25.5879680  68.4458710  30.1081690
  24.7599820  67.2235470  29.7731390  24.0457270  51.7201330  15.8049080
  23.6979270  51.0425320  15.2251530  24.2470040  51.2590840  16.6192470
  26.2106310  66.7082080  17.4235680  27.1057100  67.0467050  17.4454440
  26.2423940  65.9861490  16.7959960  19.8502470  62.0809130  15.6522680
  20.2877340  62.6238800  16.3080260  20.3350200  61.2556080  15.6619020
  17.0648270  64.8698160  23.1042940  17.3951280  64.0019220  22.8721580
  17.4939270  65.0756680  23.9347900  21.6610190  63.2007170  20.7644910
  21.3605730  63.0772140  21.6648820  21.5547680  62.3415760  20.3560640
  17.5538480  65.7368750  25.8424570  17.1169470  65.9169550  26.6748720
  18.1216160  66.4943370  25.7006290  33.1900660  65.2385750  30.1301880
  32.5902650  65.2978310  29.3865800  33.3194560  64.2990730  30.2598730
  34.4302110  62.9803570  15.4671590  33.5995070  63.0480220  15.9378820
  34.6073940  63.8707690  15.1638450  33.8858570  59.7251050  17.9705790
  34.6477480  60.2947700  18.0765480  33.9012940  59.1578250  18.7414100
  17.3862910  58.2488980  22.2013450  16.7311750  57.9800620  21.5573150
  18.2240860  58.1393460  21.7515430  34.8918540  60.5801150  22.8147720
  35.2627370  59.7968470  22.4083690  35.5320470  61.2690250  22.6365020
  31.8752300  61.9637730  28.2278040  31.0612140  62.3934890  28.4903830
  32.2826500  62.5756140  27.6147090  33.9377740  60.0185420  15.1278310
  34.2126580  60.9264300  14.9997530  33.7488480  59.9547950  16.0640300
  30.3353350  53.0430270  16.4231940  30.7538230  52.8561250  15.5828600
  30.0289410  52.1909320  16.7334870  33.8343080  57.9554410  20.1207740
  33.4586680  57.1882340  19.6889030  33.1046200  58.3377110  20.6082670
  18.4238840  58.6341550  26.7416790  18.7911880  58.5468950  27.6212810
  17.8549660  57.8708100  26.6423650  33.2242700  57.1025930  29.7547260
  32.9928790  56.8738680  28.8545210  33.4847250  58.0225480  29.7092150
  17.9754840  55.5450640  30.6475210  17.0810890  55.5117400  30.9868920
  18.5152390  55.7437430  31.4126460  31.6630770  52.3282360  32.5326960
  32.5400950  52.3365760  32.9160960  31.6751610  51.5913200  31.9219310
  16.6000990  55.4587910  18.1438780  15.6965070  55.7218110  17.9690440
  17.0841610  55.7299080  17.3638740  33.1094040  56.1811900  23.4214980
  33.6331520  55.6874550  22.7905150  33.6953460  56.3162260  24.1662550
  33.2883760  56.2651770  26.9434530  32.3386470  56.2315310  27.0579520
  33.4696770  57.1751880  26.7084300  19.1428200  54.5153450  16.0533160
  19.8519900  54.0936670  15.5680440  18.4268140  54.5828680  15.4216510
  18.7902360  50.5692780  15.0935810  19.5130490  51.1101720  15.4117030
  19.0626880  50.2956200  14.2177350  32.5994010  55.4385250  19.3607390
  33.0953130  55.2056120  20.1456270  32.4010080  54.5997090  18.9445030
  18.4794550  49.8198970  24.9958430  19.1270740  49.2696350  24.5553590
  18.8996390  50.0742120  25.8174240  34.0281170  54.0746200  21.8945070
  33.9180450  53.9202240  22.8327340  34.7888760  53.5467140  21.6520480
  32.3746890  50.0140330  28.3528070  33.0119110  50.6274470  28.7187260
  32.5221780  50.0500990  27.4077300  34.9171440  51.9054120  15.1351210
  35.8420750  51.7735300  14.9269500  34.8947230  51.9846940  16.0887660
  34.9909930  52.6764780  17.7607920  34.1961430  52.6109900  18.2900830
  35.1953210  53.6115420  17.7493270  31.9328350  66.7156330  21.7546310
  32.5287420  66.3940900  21.0780730  32.1906500  66.2428150  22.5459580
  18.2326550  49.9754640  27.7383750  17.8841370  50.4318460  28.5041930
  17.9014250  49.0811770  27.8206180  19.8390920  63.1474240  31.9036940
  19.7960550  62.7767150  32.7851400  19.9701930  64.0851810  32.0438760
  23.5396950  64.7033830  27.5046660  23.2988310  64.9708390  26.6177180
  24.4799590  64.8739560  27.5597520  25.7451370  51.1666520  31.2603170
  25.6840260  51.7588350  32.0098580  26.6851750  51.0592480  31.1153430
  28.3825930  50.8236580  30.8995460  28.9966340  51.1415870  30.2376540
  28.9275490  50.3385170  31.5191320  34.8001110  66.7228210  28.3057300
  34.3059390  67.1197080  27.5884430  34.1914400  66.0977420  28.6994580
  18.9047190  49.5030840  31.0134520  19.4530180  49.3218890  30.2500630
  18.9702500  48.7124950  31.5490830  19.6778950  66.0936490  29.0234720
  19.0839270  65.9621190  29.7624760  19.6702790  65.2574630  28.5576820
  29.1233970  49.3868720  27.2264750  28.2493810  49.7203830  27.0237680
  29.0144720  48.9141900  28.0516620  30.0305950  51.5939590  28.6106470
  29.7019310  50.7791350  28.2308200  30.9788250  51.5509400  28.4872160
  32.4840560  67.3651630  25.5844040  32.0243530  68.1167440  25.2102060
  31.8553020  66.6458100  25.5258840  19.3091180  63.4594870  27.9742760
  18.5825240  62.8400160  27.9068710  19.3700330  63.8535480  27.1040840
  22.9136280  65.6739870  24.7592170  23.4301300  65.0627230  24.2340430
  23.5633660  66.1768650  25.2503180  25.6531780  66.5648360  25.5861150
  25.9409590  66.3102660  24.7094160  26.1655000  66.0125720  26.1766720
  26.8708790  50.3038560  26.1657660  26.0880580  50.7784060  26.4454420
  26.5771720  49.3993390  26.0570840  31.4229860  51.0061660  24.2106750
  31.8637950  50.9506760  23.3628350  31.1537450  51.9219670  24.2816930
  33.2868430  50.6376900  22.2215570  33.2256830  49.6938120  22.0746590
  34.0660460  50.7456990  22.7669030  17.5921180  66.7769260  21.1839520
  17.4243220  66.1439940  21.8821410  16.7255690  66.9828660  20.8333710
  18.2149200  50.6086040  18.6871380  18.9728560  50.7214920  18.1135410
  17.7526370  51.4455240  18.6414810  24.7563010  52.7225310  21.6773690
  23.9437520  52.3482200  21.3369570  25.2604650  51.9670390  21.9794880
  29.2587990  49.3867760  22.9156760  29.8617360  49.9587970  23.3905280
  28.5180980  49.9507200  22.6930660  32.4022590  49.7889320  18.1897040
  32.5973220  50.6872770  18.4564470  31.6152460  49.5576400  18.6829990
  19.1983880  65.4702490  18.6289660  18.6731500  65.8510520  17.9251620
  19.1228460  66.0953260  19.3499370  20.5874350  51.1350090  17.2273350
  21.1167110  50.3479890  17.0981300  21.2202670  51.8141280  17.4608880
  22.7812190  50.8725230  20.2818740  22.1514930  50.1712540  20.4488870
  22.2417330  51.6329360  20.0651900  25.7204140  67.4864460  32.9529350
  26.6471450  67.2508730  32.9965310  25.7054570  68.3136460  32.4715380
  33.9549200  67.0290030  19.9503600  34.1301390  66.3427770  19.3064520
  33.2570770  67.5537080  19.5580270  22.9067750  50.1509210  32.7171230
  22.6252020  50.6542810  31.9532050  23.2887450  49.3530960  32.3513360
  21.7976850  67.4184870  17.5038910  22.5295670  67.1344150  16.9562800
  22.0570520  67.1798150  18.3938290  20.9591640  63.5349600  17.5085240
  20.3300520  64.0034700  18.0571070  21.0739470  62.6898820  17.9431430
  29.5083210  49.5662790  33.2951700  29.3948660  49.8857400  34.1903220
  30.3252950  49.9675300  32.9988980  32.2881700  66.7134320  32.7770390
  33.0807020  66.2183550  32.5696350  32.5814850  67.3924460  33.3846000
  28.4141360  57.5855260   3.6586440  28.3335410  56.6709870   3.3878150
  28.0005780  58.0822330   2.9526150  26.5459400  59.3634280   5.5395710
  25.7701500  58.8834720   5.8294280  27.1972330  58.6839930   5.3651870
  20.5625230  59.6754090   6.4171470  19.7310110  59.4202800   6.8167980
  21.1706210  59.7464860   7.1529390  30.5666830  63.7694470   4.3194840
  30.1048360  62.9981710   4.6482010  31.3792380  63.7960540   4.8247290
  20.5426490  63.7094180   6.6129490  20.8454530  62.8191920   6.4339710
  21.2870080  64.2664400   6.3851740  16.9350190  57.2361630   6.0853560
  17.5066300  56.4683830   6.0857200  16.9351730  57.5350390   5.1760170
  26.7930140  66.0552480   3.9398830  26.1741580  66.5109980   3.3693270
  27.6481920  66.2103940   3.5388530  25.9868390  62.0391470   5.5465870
  25.9176670  61.0981410   5.3855000  26.7488250  62.1292880   6.1188440
  18.1775060  52.6445990   7.8722490  17.9977900  51.7471740   8.1525250
  17.7755140  53.1917860   8.5469440  27.0173560  54.8461850   5.7734800
  27.3938380  53.9733730   5.6608470  26.9193070  55.1820550   4.8825240
  30.7997680  52.3412290   2.7063140  31.6207300  51.8508860   2.7488620
  30.8331760  52.9309950   3.4594980  18.7961730  55.1406490   6.4804830
  19.4771840  55.4044860   7.0992230  18.4809780  54.3007360   6.8142840
  22.9886300  56.1873850   5.5677420  23.4964520  56.6854820   6.2082440
  23.5199540  55.4109050   5.3916780  35.0897230  54.3579040   9.2706770
  34.3849400  54.7460750   8.7521880  35.3555150  55.0529330   9.8727700
  21.2722400  50.8272410   9.8340840  21.2740840  51.3444800   9.0286740
  20.4426710  50.3502590   9.8110770  22.5225250  60.4667590   8.0114340
  22.1894630  61.0936510   8.6535410  22.6991930  60.9929470   7.2316010
  31.0359160  54.2812670   5.4790680  30.3314730  54.5697560   6.0593790
  31.3971320  55.0912780   5.1190240  20.9537730  52.5382370   7.8411290
  21.2954540  53.3824420   7.5465160  20.0153540  52.6866110   7.9576630
  21.7344350  62.4348390   9.8263520  22.3518350  63.1099470   9.5447970
  20.8737470  62.8436370   9.7351020  32.6521940  63.8987800   7.7418160
  31.9685460  64.5686910   7.7334830  33.1916230  64.0968450   6.9763020
  34.1046080  53.7267460   5.8699890  33.1570990  53.7606440   6.0015320
  34.4296070  54.5406410   6.2549250  24.6365620  50.0264640   4.1655880
  24.9440600  49.4711530   3.4491380  23.7066320  50.1609100   3.9828870
  30.1880680  65.7431930   6.4563340  30.2007840  65.3394220   5.5885600
  29.6355900  66.5179220   6.3524770  29.5866120  60.6461770   7.7845950
  30.0034910  60.4321880   6.9499410  30.3105940  60.9034560   8.3554570
  33.5328220  59.0448990   7.8762190  32.7046850  59.1142080   7.4012320
  34.1278700  59.6303300   7.4078020  30.4970230  55.8318310   8.8217060
  30.0841410  56.6572020   9.0757050  29.7646180  55.2463350   8.6293420
  22.6303020  58.6178210   3.6835730  22.2260020  57.9055460   3.1881630
  22.7166140  58.2731450   4.5723770  23.0984720  62.3045770   5.8474940
  22.8013010  61.6991240   5.1682720  24.0484540  62.3423080   5.7364300
  21.3431640  55.3921420   7.4634770  21.8946230  55.5016760   6.6888020
  21.8575150  55.7659020   8.1790000  31.1870330  65.8777640   9.5098040
  30.7100890  66.6849830   9.3170650  30.5032120  65.2255970   9.6624250
  22.1903150  62.0427460  12.4982740  21.2931680  62.2667430  12.7456140
  22.2156020  62.1662400  11.5494140  21.0174370  58.9140780  11.0740110
  20.8782140  59.7863580  11.4427510  20.1355730  58.5713590  10.9288050
  27.3403750  63.8316650   2.3805240  27.7799660  64.5740980   1.9660630
  27.2790640  64.0743220   3.3044200  22.8154720  64.8562480  13.2825260
  22.7870150  65.2605430  12.4153690  22.6519690  63.9272840  13.1196860
  34.7669540  65.6389580  14.5789430  35.2429260  66.1172470  15.2578510
  35.3876700  65.5707070  13.8534930  16.9693020  60.6838330   6.9911020
  17.0473440  60.8187100   6.0466740  17.5834700  59.9754220   7.1839140
  18.2140650  62.3838520   3.4017200  17.8068730  62.5253110   2.5470800
  19.1053660  62.0998680   3.1988410  34.1702790  62.8302430  11.7389440
  34.2965850  62.5914310  10.8206620  34.2124170  61.9986970  12.2111520
  28.0319530  66.5330430  10.3084250  28.5464200  66.4438440  11.1106680
  27.1888610  66.8790130  10.6012160  29.2749990  65.9536040   2.3714740
  29.7306940  65.1725420   2.6853360  29.6142510  66.6642860   2.9155920
  34.0226800  54.8834890  12.7039180  33.4071070  55.3914560  12.1754640
  33.7023220  53.9833220  12.6465120  17.0252540  61.7252500   9.5305480
  17.1883580  61.2557860   8.7124850  17.4904990  61.2176060  10.1954320
  21.7971310  50.8558260   4.5666050  21.3539460  51.6367800   4.2350570
  22.3556300  51.1788150   5.2736990  26.0841120  53.7226780  10.1701370
  25.6220490  53.9309800  10.9821310  25.6819230  52.9086130   9.8672040
  31.0845630  54.9435730  11.2998030  30.2339220  54.6441480  11.6207100
  30.9247420  55.1877740  10.3881850  28.1795340  56.4437480  13.3996820
  28.5048750  55.6101230  13.0599050  28.9675670  56.9666000  13.5475150
  23.8347210  51.4005590   6.4255650  24.1319540  52.3068420   6.3447670
  24.3832770  50.9124370   5.8115220  21.5885530  55.9791830   2.2947300
  21.3626450  55.7629000   3.1993920  20.8078060  56.4120290   1.9493270
  24.0284740  56.8777410  12.9607570  23.9328340  55.9372140  12.8107970
  24.8716720  57.0992480  12.5655640  27.4248160  54.6218740   2.9241230
  27.8177730  54.9390940   2.1109920  27.7865010  53.7430620   3.0385750
  19.1595280  53.2891080  11.1141350  18.7658670  54.1366290  11.3214130
  18.4713680  52.6517450  11.3049990  25.7340330  53.3726050  14.1838090
  25.0438650  53.1798250  14.8184180  26.4772630  53.6560690  14.7162390
  16.4612330  51.2119540   5.1471430  16.1725380  51.7822400   5.8596410
  17.2058090  50.7323990   5.5102660  28.0103300  57.2124490   7.0192010
  27.2784420  57.7211300   7.3682110  27.6127640  56.3954470   6.7180790
  24.4480690  53.8878690   5.4244500  24.4516750  53.4468640   4.5749040
  25.3431810  54.2096020   5.5316320  20.2983070  53.7705180   4.3838710
  19.9583120  54.2480410   5.1405760  19.5360390  53.3170300   4.0239810
  28.4729210  52.6658170   6.4314950  28.4901950  53.1166820   7.2756800
  28.2244790  51.7663810   6.6448390  31.8999960  50.0790350  12.2701330
  32.2245730  49.3480010  12.7959310  31.9356470  49.7603990  11.3682320
  18.5991520  61.1003930  11.6901290  18.2146310  60.4597600  12.2884250
  18.9103710  61.8040050  12.2596020  24.7488660  57.9480470   7.1709910
  25.1158790  57.4739040   7.9171250  24.5593720  58.8222040   7.5118250
  17.6129150  52.6924160   3.3003380  17.3276070  52.3279830   4.1382000
  17.5508010  51.9604620   2.6866520  22.5388030  56.9889110   9.4894120
  22.2345100  57.8681090   9.7144480  23.4934490  57.0488900   9.5251560
  31.8257800  60.1915460   5.8787360  32.5456920  60.6870750   5.4883470
  31.6239620  59.5133350   5.2341230  27.2076600  60.2624520  11.7656360
  27.1413910  59.3420190  11.5113950  26.5781740  60.3599960  12.4801000
  21.1107220  60.8630480   3.7239780  21.6285890  60.0598740   3.6696670
  20.6591240  60.8009620   4.5656610  18.5951760  57.8291850  10.6365480
  18.2366700  58.4945700  11.2238820  18.3006320  56.9975400  11.0078100
  21.7964880  58.2876090  13.5205030  21.4965020  58.4333270  12.6232850
  22.5676120  57.7281380  13.4278420  27.1393330  63.0845090  11.5160160
  27.1537870  62.1526050  11.2979070  26.4318430  63.1704850  12.1549930
  33.3504540  59.7252430  10.8628740  32.6252730  60.3181210  10.6658130
  33.8780000  59.7175970  10.0642110  28.8804130  61.4512600   4.3612590
  29.2327950  60.8540730   3.7013960  27.9966460  61.1256830   4.5320840
  24.9667410  62.2110290   1.7683000  25.6538540  62.7579500   2.1490590
  24.1799830  62.7551020   1.8032610  26.5727230  64.7262660   8.6100660
  27.2169450  64.9322040   9.2874080  26.9356670  63.9651060   8.1571510
  27.8459310  62.7295010   7.3278110  28.4881540  62.0288170   7.4410280
  28.3708660  63.5093450   7.1475000  29.6196930  63.5289910  10.5314170
  29.9553170  64.1156600  11.2092090  28.6997270  63.3982620  10.7611960
  17.1700330  51.3185090  11.3137580  16.4558850  51.5182010  11.9190190
  17.5895370  50.5424660  11.6852380  17.4572920  65.3065350  12.3004110
  17.5664040  64.3660090  12.1599500  16.8053480  65.5720100  11.6517840
  25.4485510  63.5781240  13.7002230  25.1282380  62.8590480  14.2447920
  24.7743870  64.2536310  13.7738290  28.6639110  53.8107400   9.0639030
  29.0319930  52.9902610   9.3918600  27.8037310  53.8709290   9.4794680
  25.6241100  56.4646990   9.2877000  26.1226350  56.9392810   9.9528850
  25.7664050  55.5410510   9.4947030  28.0300600  51.7700950   2.7280260
  27.9068380  51.7887080   1.7789770  28.9785160  51.8179890   2.8478660
  32.8307960  52.6814950  10.1305390  32.3281560  53.4220350  10.4699200
  33.6464620  53.0698950   9.8142180  31.1229970  57.9248130   3.5766750
  30.1820110  57.9398360   3.7514440  31.4374040  57.1384090   4.0227050
  33.1255550  65.0956980   5.2521010  33.2502970  65.9188150   5.7244820
  33.9921110  64.8847710   4.9045160  20.5973080  67.1888190   4.9238140
  21.3335560  66.6403650   5.1946710  20.9814000  68.0544200   4.7844130
  19.6031360  66.3734260  14.1123720  20.4044090  66.6946310  14.5259120
  19.0883180  66.0129840  14.8343630  28.4395990  62.4814130  14.0599130
  27.8334150  62.5045730  13.3194880  28.1350100  61.7497170  14.5966380
  29.8696360  66.2094420  12.6708540  30.8218110  66.1252440  12.6208780
  29.7224580  66.8736130  13.3442330  17.3229170  58.8607720  13.0559770
  17.8268190  58.2815000  13.6276000  16.5836590  59.1447950  13.5936140
  24.3767110  60.2678710  12.5895290  23.6112780  60.8363710  12.5049960
  24.5583070  59.9754920  11.6963520  31.5190460  61.9984040  13.1470310
  32.2599930  62.3359800  12.6437770  30.7563140  62.1676100  12.5940080
  19.3552250  57.0037310  13.9509840  19.3957590  56.7051180  14.8595070
  20.2097750  57.4044920  13.7917360  21.2958060  55.5829410  11.9184330
  20.7654520  55.0920360  11.2907670  21.9646130  56.0113610  11.3842260
  30.1936120  60.0498870  11.6825520  30.6077140  60.2043950  12.5315940
  29.2587120  60.1754090  11.8451300  30.6658290  57.3895030  13.6864670
  31.2479060  56.6347350  13.5985150  30.8420060  57.9202470  12.9096150
  21.7830360  52.5491780  11.9981620  21.6887230  51.9312530  11.2732490
  21.2027750  53.2758070  11.7711530  24.5491800  51.1065020   9.0309010
  24.1009100  51.1289280   8.1854560  23.9157000  50.7084040   9.6279310
  24.9551350  60.0019350   9.6521450  25.3739460  60.8452080   9.4797690
  24.0359980  60.1391390   9.4228230  27.2915250  57.7335530  11.0359290
  27.4111460  57.1376670  11.7754130  28.1509250  57.7705220  10.6160590
  29.6303150  58.2872720   9.6121800  29.1038370  58.8115340   9.0086940
  29.9734490  58.9200110  10.2431530  22.8058770  66.3072360  10.7679180
  22.2679860  67.0318420  10.4487880  23.0592730  65.8302700   9.9776520
  24.0584020  54.2756880  12.2935110  24.6483710  53.9672730  12.9812930
  23.2404260  53.8036630  12.4495010  28.8777450  53.8922690  12.5268130
  28.1892970  53.2304230  12.4618120  29.5983470  53.4460960  12.9716590
  25.6620980  67.5423570  11.0265830  25.5879680  68.4458710  11.3338200
  24.7599820  67.2235470  10.9987900  17.0648270  64.8698160   4.3299450
  17.3951280  64.0019220   4.0978090  17.4939270  65.0756680   5.1604410
  17.5538480  65.7368750   7.0681080  17.1169470  65.9169550   7.9005230
  18.1216160  66.4943370   6.9262800  33.1900660  65.2385750  11.3558390
  32.5902650  65.2978310  10.6122310  33.3194560  64.2990730  11.4855240
  17.3862910  58.2488980   3.4269960  16.7311750  57.9800620   2.7829660
  18.2240860  58.1393460   2.9771940  34.8918540  60.5801150   4.0404230
  35.2627370  59.7968470   3.6340200  35.5320470  61.2690250   3.8621530
  31.8752300  61.9637730   9.4534550  31.0612140  62.3934890   9.7160340
  32.2826500  62.5756140   8.8403600  18.4238840  58.6341550   7.9673300
  18.7911880  58.5468950   8.8469320  17.8549660  57.8708100   7.8680160
  33.2242700  57.1025930  10.9803770  32.9928790  56.8738680  10.0801720
  33.4847250  58.0225480  10.9348660  17.9754840  55.5450640  11.8731720
  17.0810890  55.5117400  12.2125430  18.5152390  55.7437430  12.6382970
  31.6630770  52.3282360  13.7583470  32.5400950  52.3365760  14.1417470
  31.6751610  51.5913200  13.1475820  33.1094040  56.1811900   4.6471490
  33.6331520  55.6874550   4.0161660  33.6953460  56.3162260   5.3919060
  33.2883760  56.2651770   8.1691040  32.3386470  56.2315310   8.2836030
  33.4696770  57.1751880   7.9340810  18.4794550  49.8198970   6.2214940
  19.1270740  49.2696350   5.7810100  18.8996390  50.0742120   7.0430750
  34.0281170  54.0746200   3.1201580  33.9180450  53.9202240   4.0583850
  34.7888760  53.5467140   2.8776990  32.3746890  50.0140330   9.5784580
  33.0119110  50.6274470   9.9443770  32.5221780  50.0500990   8.6333810
  31.9328350  66.7156330   2.9802820  32.5287420  66.3940900   2.3037240
  32.1906500  66.2428150   3.7716090  18.2326550  49.9754640   8.9640260
  17.8841370  50.4318460   9.7298440  17.9014250  49.0811770   9.0462690
  19.8390920  63.1474240  13.1293450  19.7960550  62.7767150  14.0107910
  19.9701930  64.0851810  13.2695270  23.5396950  64.7033830   8.7303170
  23.2988310  64.9708390   7.8433690  24.4799590  64.8739560   8.7854030
  25.7451370  51.1666520  12.4859680  25.6840260  51.7588350  13.2355090
  26.6851750  51.0592480  12.3409940  28.3825930  50.8236580  12.1251970
  28.9966340  51.1415870  11.4633050  28.9275490  50.3385170  12.7447830
  34.8001110  66.7228210   9.5313810  34.3059390  67.1197080   8.8140940
  34.1914400  66.0977420   9.9251090  18.9047190  49.5030840  12.2391030
  19.4530180  49.3218890  11.4757140  18.9702500  48.7124950  12.7747340
  19.6778950  66.0936490  10.2491230  19.0839270  65.9621190  10.9881270
  19.6702790  65.2574630   9.7833330  29.1233970  49.3868720   8.4521260
  28.2493810  49.7203830   8.2494190  29.0144720  48.9141900   9.2773130
  30.0305950  51.5939590   9.8362980  29.7019310  50.7791350   9.4564710
  30.9788250  51.5509400   9.7128670  32.4840560  67.3651630   6.8100550
  32.0243530  68.1167440   6.4358570  31.8553020  66.6458100   6.7515350
  19.3091180  63.4594870   9.1999270  18.5825240  62.8400160   9.1325220
  19.3700330  63.8535480   8.3297350  22.9136280  65.6739870   5.9848680
  23.4301300  65.0627230   5.4596940  23.5633660  66.1768650   6.4759690
  25.6531780  66.5648360   6.8117660  25.9409590  66.3102660   5.9350670
  26.1655000  66.0125720   7.4023230  26.8708790  50.3038560   7.3914170
  26.0880580  50.7784060   7.6710930  26.5771720  49.3993390   7.2827350
  31.4229860  51.0061660   5.4363260  31.8637950  50.9506760   4.5884860
  31.1537450  51.9219670   5.5073440  33.2868430  50.6376900   3.4472080
  33.2256830  49.6938120   3.3003100  34.0660460  50.7456990   3.9925540
  17.5921180  66.7769260   2.4096030  17.4243220  66.1439940   3.1077920
  16.7255690  66.9828660   2.0590220  24.7563010  52.7225310   2.9030200
  23.9437520  52.3482200   2.5626080  25.2604650  51.9670390   3.2051390
  29.2587990  49.3867760   4.1413270  29.8617360  49.9587970   4.6161790
  28.5180980  49.9507200   3.9187170  25.7204140  67.4864460  14.1785860
  26.6471450  67.2508730  14.2221820  25.7054570  68.3136460  13.6971890
  22.9067750  50.1509210  13.9427740  22.6252020  50.6542810  13.1788560
  23.2887450  49.3530960  13.5769870  29.5083210  49.5662790  14.5208210
  29.3948660  49.8857400  15.4159730  30.3252950  49.9675300  14.2245490
  32.2881700  66.7134320  14.0026900  33.0807020  66.2183550  13.7952860
  32.5814850  67.3924460  14.6102510  28.4141360  38.8111770  97.5303890
  28.3335410  37.8966380  97.2595600  28.0005780  39.3078840  96.8243600
  26.5459400  40.5890790  99.4113160  25.7701500  40.1091230  99.7011730
  27.1972330  39.9096440  99.2369320  20.5625230  40.9010600 100.2888920
  19.7310110  40.6459310 100.6885430  21.1706210  40.9721370 101.0246840
  30.5666830  44.9950980  98.1912290  30.1048360  44.2238220  98.5199460
  31.3792380  45.0217050  98.6964740  20.5426490  44.9350690 100.4846940
  20.8454530  44.0448430 100.3057160  21.2870080  45.4920910 100.2569190
  18.9717180  35.8612490  94.0731310  18.0833880  36.2028460  93.9711190
  19.2558370  35.6612810  93.1812140  16.9350190  38.4618140  99.9571010
  17.5066300  37.6940340  99.9574650  16.9351730  38.7606900  99.0477620
  26.7930140  47.2808990  97.8116280  26.1741580  47.7366490  97.2410720
  27.6481920  47.4360450  97.4105980  25.9868390  43.2647980  99.4183320
  25.9176670  42.3237920  99.2572450  26.7488250  43.3549390  99.9905890
  18.1775060  33.8702500 101.7439940  17.9977900  32.9728250 102.0242700
  17.7755140  34.4174370 102.4186890  27.0173560  36.0718360  99.6452250
  27.3938380  35.1990240  99.5325920  26.9193070  36.4077060  98.7542690
  21.1478570  34.4443990  95.1069690  21.2545320  35.3447720  95.4138450
  20.2370930  34.3961960  94.8164340  30.7997680  33.5668800  96.5780590
  31.6207300  33.0765370  96.6206070  30.8331760  34.1566460  97.3312430
  18.7961730  36.3663000 100.3522280  19.4771840  36.6301370 100.9709680
  18.4809780  35.5263870 100.6860290  22.9886300  37.4130360  99.4394870
  23.4964520  37.9111330 100.0799890  23.5199540  36.6365560  99.2634230
  27.6593490  42.1648230  95.2048190  27.0410760  42.6297680  94.6410910
  28.1716740  42.8575710  95.6217700  22.5225250  41.6924100 101.8831790
  22.1894630  42.3193020 102.5252860  22.6991930  42.2185980 101.1033460
  31.0359160  35.5069180  99.3508130  30.3314730  35.7954070  99.9311240
  31.3971320  36.3169290  98.9907690  20.9537730  33.7638880 101.7128740
  21.2954540  34.6080930 101.4182610  20.0153540  33.9122620 101.8294080
  17.0276690  42.8504760  92.5787820  16.6504670  43.3391860  91.8472720
  17.2849760  43.5230040  93.2094350  32.6521940  45.1244310 101.6135610
  31.9685460  45.7943420 101.6052280  33.1916230  45.3224960 100.8480470
  34.1046080  34.9523970  99.7417340  33.1570990  34.9862950  99.8732770
  34.4296070  35.7662920 100.1266700  24.6365620  31.2521150  98.0373330
  24.9440600  30.6968040  97.3208830  23.7066320  31.3865610  97.8546320
  30.1880680  46.9688440 100.3280790  30.2007840  46.5650730  99.4603050
  29.6355900  47.7435730 100.2242220  31.4826100  43.6904660  95.4170960
  31.3722430  42.7478990  95.5420380  31.4794350  44.0520300  96.3033720
  29.5866120  41.8718280 101.6563400  30.0034910  41.6578390 100.8216860
  30.3105940  42.1291070 102.2272020  27.0246380  39.3169980  94.7733450
  26.0975660  39.2507360  95.0021920  27.1771200  40.2550110  94.6588690
  27.0115460  35.5886980  91.7700610  26.0719130  35.7500940  91.8553070
  27.3298720  36.3072660  91.2236600  33.5328220  40.2705500 101.7479640
  32.7046850  40.3398590 101.2729770  34.1278700  40.8559810 101.2795470
  31.0543670  40.8790280  95.2768700  30.4356090  40.5409830  94.6295000
  31.0368120  40.2350040  95.9847890  22.6303020  39.8434720  97.5553180
  22.2260020  39.1311970  97.0599080  22.7166140  39.4987960  98.4441220
  23.0984720  43.5302280  99.7192390  22.8013010  42.9247750  99.0400170
  24.0484540  43.5679590  99.6081750  21.3431640  36.6177930 101.3352220
  21.8946230  36.7273270 100.5605470  21.8575150  36.9915530 102.0507450
  29.2308370  40.1177090  92.2841450  29.6701650  39.2799520  92.1379270
  29.9436790  40.7506490  92.3705590  27.3403750  45.0573160  96.2522690
  27.7799660  45.7997490  95.8378080  27.2790640  45.2999730  97.1761650
  32.8125510  31.3719900  90.5982490  32.4998170  31.4646730  91.4981560
  33.5737980  31.9500930  90.5479920  19.3307650  38.7379700  95.0559830
  19.2105250  39.4641790  94.4441100  19.0208540  37.9682610  94.5787740
  16.9693020  41.9094840 100.8628470  17.0473440  42.0443610  99.9184190
  17.5834700  41.2010730 101.0556590  18.2140650  43.6095030  97.2734650
  17.8068730  43.7509620  96.4188250  19.1053660  43.3255190  97.0705860
  30.0073930  48.0442280  93.6085700  29.8475070  47.7545220  94.5067530
  29.8420640  47.2682410  93.0730930  22.4862310  47.8240810  95.3857320
  22.3104790  46.9076350  95.1725120  21.6318050  48.1828100  95.6255120
  29.7100060  45.5529840  92.1683700  29.0165220  45.5507130  91.5085980
  30.4522920  45.1289160  91.7377870  29.2749990  47.1792550  96.2432190
  29.7306940  46.3981930  96.5570810  29.6142510  47.8899370  96.7873370
  21.7971310  32.0814770  98.4383500  21.3539460  32.8624310  98.1068020
  22.3556300  32.4044660  99.1454440  24.9130130  31.7025470  93.3189330
  24.2884310  31.6985340  94.0442640  24.8260250  30.8356430  92.9225300
  23.8347210  32.6262100 100.2973100  24.1319540  33.5324930 100.2165120
  24.3832770  32.1380880  99.6832670  21.5885530  37.2048340  96.1664750
  21.3626450  36.9885510  97.0711370  20.8078060  37.6376800  95.8210720
  28.8183290  37.2111710  94.7655400  28.2192180  37.9347510  94.5819020
  29.3662900  37.1488490  93.9831850  27.4248160  35.8475250  96.7958680
  27.8177730  36.1647450  95.9827370  27.7865010  34.9687130  96.9103200
  16.4612330  32.4376050  99.0188880  16.1725380  33.0078910  99.7313860
  17.2058090  31.9580500  99.3820110  16.6482560  36.3796170  90.2291600
  16.5657230  37.3226930  90.3706590  16.2965620  36.2371080  89.3503950
  28.0103300  38.4381000 100.8909460  27.2784420  38.9467810 101.2399560
  27.6127640  37.6210980 100.5898240  24.4480690  35.1135200  99.2961950
  24.4516750  34.6725150  98.4466490  25.3431810  35.4352530  99.4033770
  20.2983070  34.9961690  98.2556160  19.9583120  35.4736920  99.0123210
  19.5360390  34.5426810  97.8957260  24.5100840  36.1147280  92.2868710
  24.6313660  36.0733760  93.2354530  24.1249350  36.9771430  92.1315440
  28.4729210  33.8914680 100.3032400  28.4901950  34.3423330 101.1474250
  28.2244790  32.9920320 100.5165840  23.5222340  38.4248420  91.6852010
  22.9539240  37.9766670  91.0587920  24.2311340  38.7841200  91.1517160
  24.7488660  39.1736980 101.0427360  25.1158790  38.6995550 101.7888700
  24.5593720  40.0478550 101.3835700  17.6129150  33.9180670  97.1720830
  17.3276070  33.5536340  98.0099450  17.5508010  33.1861130  96.5583970
  21.0669820  42.4206610  93.9578420  20.2932080  41.8804230  93.7977140
  21.7964450  41.9013220  93.6196180  31.8257800  41.4171970  99.7504810
  32.5456920  41.9127260  99.3600920  31.6239620  40.7389860  99.1058680
  27.2867740  32.8109930  93.8934200  26.4732350  32.3123100  93.8179510
  27.0929690  33.6508180  93.4770550  30.0016130  37.1829580  92.1896360
  30.8895750  37.4946810  92.0147700  29.9721220  36.3101830  91.7976940
  21.1107220  42.0886990  97.5957230  21.6285890  41.2855250  97.5414120
  20.6591240  42.0266130  98.4374060  25.9976720  43.3553270  92.8684530
  26.3392420  44.0995500  92.3727850  25.1689430  43.6684390  93.2309360
  32.2730400  38.4941420  91.6576220  32.1894120  38.9255640  90.8072660
  32.9924590  38.9539770  92.0903040  33.3017650  45.3483680  94.3858350
  32.6593810  44.6939300  94.6602070  32.9148310  45.7538770  93.6099020
  28.8804130  42.6769110  98.2330040  29.2327950  42.0797240  97.5731410
  27.9966460  42.3513340  98.4038290  24.9667410  43.4366800  95.6400450
  25.6538540  43.9836010  96.0208040  24.1799830  43.9807530  95.6750060
  17.1059810  39.0539620  91.1317530  17.9754660  39.3364420  91.4153450
  16.6150130  39.8675490  91.0166340  24.2694620  40.4412830  95.2525810
  24.7257400  41.2518080  95.4786000  23.9182830  40.1235970  96.0844300
  20.1706400  30.7850480  95.7248330  20.0421030  30.7768380  96.6733250
  19.3468420  31.1233570  95.3739340  27.8459310  43.9551520 101.1995560
  28.4881540  43.2544680 101.3127730  28.3708660  44.7349960 101.0192450
  31.6915030  44.2400140  90.9234700  31.4652610  43.5230580  91.5159340
  31.3011230  43.9912580  90.0856450  17.4731060  48.2667000  91.6979160
  17.8328700  48.8656340  91.0436430  17.3323400  48.8126890  92.4714190
  31.2731280  42.1572080  92.5848860  30.9852980  42.6184770  93.3726740
  32.0683450  41.6969850  92.8533080  23.4899680  45.6498200  92.5152830
  23.4809780  46.3827890  91.8997340  22.5698040  45.4029780  92.6079790
  19.0906320  40.8713090  93.2599590  18.4834270  41.6111990  93.2694890
  19.5655670  40.9612450  92.4337790  32.0301140  33.9920850  93.7444040
  31.4014300  34.0966520  93.0302270  31.5353060  34.2117630  94.5337920
  26.4759280  45.7126440  91.1778020  26.5771260  45.5090430  90.2480000
  25.5761020  45.4584720  91.3825800  23.9985170  36.2706800  95.1601920
  23.2901320  36.7393140  95.6015530  24.2829650  35.6128810  95.7947110
  28.0300600  32.9957460  96.5997710  27.9068380  33.0143590  95.6507220
  28.9785160  33.0436400  96.7196110  25.1177390  48.2312760  95.8725690
  25.3718890  48.1934150  94.9505060  24.1689870  48.1046090  95.8653940
  22.2020190  34.5791880  92.5352630  23.0510720  35.0162030  92.4692820
  21.8351460  34.8912140  93.3624690  31.1229970  39.1504640  97.4484200
  30.1820110  39.1654870  97.6231890  31.4374040  38.3640600  97.8944500
  21.1011610  40.8324240  91.0088160  21.8674880  40.7205600  91.5713590
  21.1786300  40.1362210  90.3564930  19.7958370  38.2649310  91.6921050
  19.8761960  37.3176820  91.8038450  20.6878120  38.5956190  91.7981710
  33.1255550  46.3213490  99.1238460  33.2502970  47.1444660  99.5962270
  33.9921110  46.1104220  98.7762610  20.5973080  48.4144700  98.7955590
  21.3335560  47.8660160  99.0664160  20.9814000  49.2800710  98.6561580
  17.4818560  44.4818270  94.6697100  16.5558340  44.7239410  94.6602510
  17.9474990  45.3092530  94.5481850  23.7075390  47.5875010  90.6181160
  24.5004000  47.8763840  90.1662950  23.1879740  47.1567180  89.9393640
  32.7605560  46.8145140  92.0417900  32.4747070  46.4010280  91.2272080
  32.5625110  47.7432850  91.9218420  24.2252790  42.8078420  90.4823510
  24.1203430  42.1930770  91.2084890  24.0577010  42.2844310  89.6986520
  27.4655520  41.8698450  91.0865500  26.9165620  42.3167750  91.7308240
  28.0874780  41.3647700  91.6103170  23.1330640  40.8289370  92.9830800
  23.5547060  40.6629240  93.8262190  23.2581480  40.0189600  92.4885940
  25.6458280  39.8526980  90.2307900  26.1663940  39.1376000  89.8649050
  26.2926680  40.4912850  90.5308410  22.0289540  36.9022600  89.9288960
  21.8278600  36.0389960  90.2902300  21.8581590  36.8155960  88.9910560
  29.5077850  31.7130830  92.4575840  29.7880140  30.8698730  92.8135260
  28.7343580  31.9453940  92.9714590  20.8272340  34.0023220  89.9166840
  21.1298240  34.0090650  89.0085990  21.5666930  33.6521080  90.4134500
  24.0457270  32.9457840  90.9023040  23.6979270  32.2681830  90.3225490
  24.2470040  32.4847350  91.7166430  26.2106310  47.9338590  92.5209640
  27.1057100  48.2723560  92.5428400  26.2423940  47.2118000  91.8933920
  19.8502470  43.3065640  90.7496640  20.2877340  43.8495310  91.4054220
  20.3350200  42.4812590  90.7592980  17.0648270  46.0954670  98.2016900
  17.3951280  45.2275730  97.9695540  17.4939270  46.3013190  99.0321860
  21.6610190  44.4263680  95.8618870  21.3605730  44.3028650  96.7622780
  21.5547680  43.5672270  95.4534600  17.5538480  46.9625260 100.9398530
  17.1169470  47.1426060 101.7722680  18.1216160  47.7199880 100.7980250
  34.4302110  44.2060080  90.5645550  33.5995070  44.2736730  91.0352780
  34.6073940  45.0964200  90.2612410  33.8858570  40.9507560  93.0679750
  34.6477480  41.5204210  93.1739440  33.9012940  40.3834760  93.8388060
  17.3862910  39.4745490  97.2987410  16.7311750  39.2057130  96.6547110
  18.2240860  39.3649970  96.8489390  34.8918540  41.8057660  97.9121680
  35.2627370  41.0224980  97.5057650  35.5320470  42.4946760  97.7338980
  33.9377740  41.2441930  90.2252270  34.2126580  42.1520810  90.0971490
  33.7488480  41.1804460  91.1614260  30.3353350  34.2686780  91.5205900
  30.7538230  34.0817760  90.6802560  30.0289410  33.4165830  91.8308830
  33.8343080  39.1810920  95.2181700  33.4586680  38.4138850  94.7862990
  33.1046200  39.5633620  95.7056630  18.4238840  39.8598060 101.8390750
  18.7911880  39.7725460 102.7186770  17.8549660  39.0964610 101.7397610
  16.6000990  36.6844420  93.2412740  15.6965070  36.9474620  93.0664400
  17.0841610  36.9555590  92.4612700  33.1094040  37.4068410  98.5188940
  33.6331520  36.9131060  97.8879110  33.6953460  37.5418770  99.2636510
  33.2883760  37.4908280 102.0408490  32.3386470  37.4571820 102.1553480
  33.4696770  38.4008390 101.8058260  19.1428200  35.7409960  91.1507120
  19.8519900  35.3193180  90.6654400  18.4268140  35.8085190  90.5190470
  18.7902360  31.7949290  90.1909770  19.5130490  32.3358230  90.5090990
  19.0626880  31.5212710  89.3151310  32.5994010  36.6641760  94.4581350
  33.0953130  36.4312630  95.2430230  32.4010080  35.8253600  94.0418990
  18.4794550  31.0455480 100.0932390  19.1270740  30.4952860  99.6527550
  18.8996390  31.2998630 100.9148200  34.0281170  35.3002710  96.9919030
  33.9180450  35.1458750  97.9301300  34.7888760  34.7723650  96.7494440
  34.9171440  33.1310630  90.2325170  35.8420750  32.9991810  90.0243460
  34.8947230  33.2103450  91.1861620  34.9909930  33.9021290  92.8581880
  34.1961430  33.8366410  93.3874790  35.1953210  34.8371930  92.8467230
  31.9328350  47.9412840  96.8520270  32.5287420  47.6197410  96.1754690
  32.1906500  47.4684660  97.6433540  23.5396950  45.9290340 102.6020620
  23.2988310  46.1964900 101.7151140  24.4799590  46.0996070 102.6571480
  32.4840560  48.5908140 100.6818000  32.0243530  49.3423950 100.3076020
  31.8553020  47.8714610 100.6232800  22.9136280  46.8996380  99.8566130
  23.4301300  46.2883740  99.3314390  23.5633660  47.4025160 100.3477140
  25.6531780  47.7904870 100.6835110  25.9409590  47.5359170  99.8068120
  26.1655000  47.2382230 101.2740680  26.8708790  31.5295070 101.2631620
  26.0880580  32.0040570 101.5428380  26.5771720  30.6249900 101.1544800
  31.4229860  32.2318170  99.3080710  31.8637950  32.1763270  98.4602310
  31.1537450  33.1476180  99.3790890  33.2868430  31.8633410  97.3189530
  33.2256830  30.9194630  97.1720550  34.0660460  31.9713500  97.8642990
  17.5921180  48.0025770  96.2813480  17.4243220  47.3696450  96.9795370
  16.7255690  48.2085170  95.9307670  18.2149200  31.8342550  93.7845340
  18.9728560  31.9471430  93.2109370  17.7526370  32.6711750  93.7388770
  24.7563010  33.9481820  96.7747650  23.9437520  33.5738710  96.4343530
  25.2604650  33.1926900  97.0768840  29.2587990  30.6124270  98.0130720
  29.8617360  31.1844480  98.4879240  28.5180980  31.1763710  97.7904620
  32.4022590  31.0145830  93.2871000  32.5973220  31.9129280  93.5538430
  31.6152460  30.7832910  93.7803950  19.1983880  46.6959000  93.7263620
  18.6731500  47.0767030  93.0225580  19.1228460  47.3209770  94.4473330
  20.5874350  32.3606600  92.3247310  21.1167110  31.5736400  92.1955260
  21.2202670  33.0397790  92.5582840  22.7812190  32.0981740  95.3792700
  22.1514930  31.3969050  95.5462830  22.2417330  32.8585870  95.1625860
  33.9549200  48.2546540  95.0477560  34.1301390  47.5684280  94.4038480
  33.2570770  48.7793590  94.6554230  21.7976850  48.6441380  92.6012870
  22.5295670  48.3600660  92.0536760  22.0570520  48.4054660  93.4912250
  20.9591640  44.7606110  92.6059200  20.3300520  45.2291210  93.1545030
  21.0739470  43.9155330  93.0405390  28.4141360  38.8111770  78.7560400
  28.3335410  37.8966380  78.4852110  28.0005780  39.3078840  78.0500110
  26.5459400  40.5890790  80.6369670  25.7701500  40.1091230  80.9268240
  27.1972330  39.9096440  80.4625830  20.5625230  40.9010600  81.5145430
  19.7310110  40.6459310  81.9141940  21.1706210  40.9721370  82.2503350
  30.5666830  44.9950980  79.4168800  30.1048360  44.2238220  79.7455970
  31.3792380  45.0217050  79.9221250  20.5426490  44.9350690  81.7103450
  20.8454530  44.0448430  81.5313670  21.2870080  45.4920910  81.4825700
  18.9717180  35.8612490  75.2987820  18.0833880  36.2028460  75.1967700
  19.2558370  35.6612810  74.4068650  16.9350190  38.4618140  81.1827520
  17.5066300  37.6940340  81.1831160  16.9351730  38.7606900  80.2734130
  26.7930140  47.2808990  79.0372790  26.1741580  47.7366490  78.4667230
  27.6481920  47.4360450  78.6362490  25.9868390  43.2647980  80.6439830
  25.9176670  42.3237920  80.4828960  26.7488250  43.3549390  81.2162400
  18.1775060  33.8702500  82.9696450  17.9977900  32.9728250  83.2499210
  17.7755140  34.4174370  83.6443400  27.0173560  36.0718360  80.8708760
  27.3938380  35.1990240  80.7582430  26.9193070  36.4077060  79.9799200
  21.1478570  34.4443990  76.3326200  21.2545320  35.3447720  76.6394960
  20.2370930  34.3961960  76.0420850  30.7997680  33.5668800  77.8037100
  31.6207300  33.0765370  77.8462580  30.8331760  34.1566460  78.5568940
  18.7961730  36.3663000  81.5778790  19.4771840  36.6301370  82.1966190
  18.4809780  35.5263870  81.9116800  22.9886300  37.4130360  80.6651380
  23.4964520  37.9111330  81.3056400  23.5199540  36.6365560  80.4890740
  35.0897230  35.5835550  84.3680730  34.3849400  35.9717260  83.8495840
  35.3555150  36.2785840  84.9701660  21.2722400  32.0528920  84.9314800
  21.2740840  32.5701310  84.1260700  20.4426710  31.5759100  84.9084730
  27.6593490  42.1648230  76.4304700  27.0410760  42.6297680  75.8667420
  28.1716740  42.8575710  76.8474210  22.5225250  41.6924100  83.1088300
  22.1894630  42.3193020  83.7509370  22.6991930  42.2185980  82.3289970
  31.0359160  35.5069180  80.5764640  30.3314730  35.7954070  81.1567750
  31.3971320  36.3169290  80.2164200  20.9537730  33.7638880  82.9385250
  21.2954540  34.6080930  82.6439120  20.0153540  33.9122620  83.0550590
  21.7344350  43.6604900  84.9237480  22.3518350  44.3355980  84.6421930
  20.8737470  44.0692880  84.8324980  17.0276690  42.8504760  73.8044330
  16.6504670  43.3391860  73.0729230  17.2849760  43.5230040  74.4350860
  32.6521940  45.1244310  82.8392120  31.9685460  45.7943420  82.8308790
  33.1916230  45.3224960  82.0736980  34.1046080  34.9523970  80.9673850
  33.1570990  34.9862950  81.0989280  34.4296070  35.7662920  81.3523210
  24.6365620  31.2521150  79.2629840  24.9440600  30.6968040  78.5465340
  23.7066320  31.3865610  79.0802830  30.1880680  46.9688440  81.5537300
  30.2007840  46.5650730  80.6859560  29.6355900  47.7435730  81.4498730
  31.4826100  43.6904660  76.6427470  31.3722430  42.7478990  76.7676890
  31.4794350  44.0520300  77.5290230  29.5866120  41.8718280  82.8819910
  30.0034910  41.6578390  82.0473370  30.3105940  42.1291070  83.4528530
  27.0246380  39.3169980  75.9989960  26.0975660  39.2507360  76.2278430
  27.1771200  40.2550110  75.8845200  27.0115460  35.5886980  72.9957120
  26.0719130  35.7500940  73.0809580  27.3298720  36.3072660  72.4493110
  33.5328220  40.2705500  82.9736150  32.7046850  40.3398590  82.4986280
  34.1278700  40.8559810  82.5051980  31.0543670  40.8790280  76.5025210
  30.4356090  40.5409830  75.8551510  31.0368120  40.2350040  77.2104400
  30.4970230  37.0574820  83.9191020  30.0841410  37.8828530  84.1731010
  29.7646180  36.4719860  83.7267380  22.6303020  39.8434720  78.7809690
  22.2260020  39.1311970  78.2855590  22.7166140  39.4987960  79.6697730
  23.0984720  43.5302280  80.9448900  22.8013010  42.9247750  80.2656680
  24.0484540  43.5679590  80.8338260  21.3431640  36.6177930  82.5608730
  21.8946230  36.7273270  81.7861980  21.8575150  36.9915530  83.2763960
  31.1870330  47.1034150  84.6072000  30.7100890  47.9106340  84.4144610
  30.5032120  46.4512480  84.7598210  22.1903150  43.2683970  87.5956700
  21.2931680  43.4923940  87.8430100  22.2156020  43.3918910  86.6468100
  29.2308370  40.1177090  73.5097960  29.6701650  39.2799520  73.3635780
  29.9436790  40.7506490  73.5962100  21.0174370  40.1397290  86.1714070
  20.8782140  41.0120090  86.5401470  20.1355730  39.7970100  86.0262010
  27.3403750  45.0573160  77.4779200  27.7799660  45.7997490  77.0634590
  27.2790640  45.2999730  78.4018160  22.8154720  46.0818990  88.3799220
  22.7870150  46.4861940  87.5127650  22.6519690  45.1529350  88.2170820
  32.8125510  31.3719900  71.8239000  32.4998170  31.4646730  72.7238070
  33.5737980  31.9500930  71.7736430  19.3307650  38.7379700  76.2816340
  19.2105250  39.4641790  75.6697610  19.0208540  37.9682610  75.8044250
  34.7669540  46.8646090  89.6763390  35.2429260  47.3428980  90.3552470
  35.3876700  46.7963580  88.9508890  16.9693020  41.9094840  82.0884980
  17.0473440  42.0443610  81.1440700  17.5834700  41.2010730  82.2813100
  18.2140650  43.6095030  78.4991160  17.8068730  43.7509620  77.6444760
  19.1053660  43.3255190  78.2962370  34.1702790  44.0558940  86.8363400
  34.2965850  43.8170820  85.9180580  34.2124170  43.2243480  87.3085480
  28.0319530  47.7586940  85.4058210  28.5464200  47.6694950  86.2080640
  27.1888610  48.1046640  85.6986120  30.0073930  48.0442280  74.8342210
  29.8475070  47.7545220  75.7324040  29.8420640  47.2682410  74.2987440
  22.4862310  47.8240810  76.6113830  22.3104790  46.9076350  76.3981630
  21.6318050  48.1828100  76.8511630  29.7100060  45.5529840  73.3940210
  29.0165220  45.5507130  72.7342490  30.4522920  45.1289160  72.9634380
  29.2749990  47.1792550  77.4688700  29.7306940  46.3981930  77.7827320
  29.6142510  47.8899370  78.0129880  34.0226800  36.1091400  87.8013140
  33.4071070  36.6171070  87.2728600  33.7023220  35.2089730  87.7439080
  17.0252540  42.9509010  84.6279440  17.1883580  42.4814370  83.8098810
  17.4904990  42.4432570  85.2928280  21.7971310  32.0814770  79.6640010
  21.3539460  32.8624310  79.3324530  22.3556300  32.4044660  80.3710950
  26.0841120  34.9483290  85.2675330  25.6220490  35.1566310  86.0795270
  25.6819230  34.1342640  84.9646000  31.0845630  36.1692240  86.3971990
  30.2339220  35.8697990  86.7181060  30.9247420  36.4134250  85.4855810
  28.1795340  37.6693990  88.4970780  28.5048750  36.8357740  88.1573010
  28.9675670  38.1922510  88.6449110  24.9130130  31.7025470  74.5445840
  24.2884310  31.6985340  75.2699150  24.8260250  30.8356430  74.1481810
  23.8347210  32.6262100  81.5229610  24.1319540  33.5324930  81.4421630
  24.3832770  32.1380880  80.9089180  21.5885530  37.2048340  77.3921260
  21.3626450  36.9885510  78.2967880  20.8078060  37.6376800  77.0467230
  28.8183290  37.2111710  75.9911910  28.2192180  37.9347510  75.8075530
  29.3662900  37.1488490  75.2088360  24.0284740  38.1033920  88.0581530
  23.9328340  37.1628650  87.9081930  24.8716720  38.3248990  87.6629600
  27.4248160  35.8475250  78.0215190  27.8177730  36.1647450  77.2083880
  27.7865010  34.9687130  78.1359710  19.1595280  34.5147590  86.2115310
  18.7658670  35.3622800  86.4188090  18.4713680  33.8773960  86.4023950
  25.7340330  34.5982560  89.2812050  25.0438650  34.4054760  89.9158140
  26.4772630  34.8817200  89.8136350  16.4612330  32.4376050  80.2445390
  16.1725380  33.0078910  80.9570370  17.2058090  31.9580500  80.6076620
  16.6482560  36.3796170  71.4548110  16.5657230  37.3226930  71.5963100
  16.2965620  36.2371080  70.5760460  28.0103300  38.4381000  82.1165970
  27.2784420  38.9467810  82.4656070  27.6127640  37.6210980  81.8154750
  24.4480690  35.1135200  80.5218460  24.4516750  34.6725150  79.6723000
  25.3431810  35.4352530  80.6290280  20.2983070  34.9961690  79.4812670
  19.9583120  35.4736920  80.2379720  19.5360390  34.5426810  79.1213770
  24.5100840  36.1147280  73.5125220  24.6313660  36.0733760  74.4611040
  24.1249350  36.9771430  73.3571950  28.4729210  33.8914680  81.5288910
  28.4901950  34.3423330  82.3730760  28.2244790  32.9920320  81.7422350
  23.5222340  38.4248420  72.9108520  22.9539240  37.9766670  72.2844430
  24.2311340  38.7841200  72.3773670  31.8999960  31.3046860  87.3675290
  32.2245730  30.5736520  87.8933270  31.9356470  30.9860500  86.4656280
  18.5991520  42.3260440  86.7875250  18.2146310  41.6854110  87.3858210
  18.9103710  43.0296560  87.3569980  24.7488660  39.1736980  82.2683870
  25.1158790  38.6995550  83.0145210  24.5593720  40.0478550  82.6092210
  17.6129150  33.9180670  78.3977340  17.3276070  33.5536340  79.2355960
  17.5508010  33.1861130  77.7840480  22.5388030  38.2145620  84.5868080
  22.2345100  39.0937600  84.8118440  23.4934490  38.2745410  84.6225520
  21.0669820  42.4206610  75.1834930  20.2932080  41.8804230  75.0233650
  21.7964450  41.9013220  74.8452690  31.8257800  41.4171970  80.9761320
  32.5456920  41.9127260  80.5857430  31.6239620  40.7389860  80.3315190
  27.2867740  32.8109930  75.1190710  26.4732350  32.3123100  75.0436020
  27.0929690  33.6508180  74.7027060  27.2076600  41.4881030  86.8630320
  27.1413910  40.5676700  86.6087910  26.5781740  41.5856470  87.5774960
  30.0016130  37.1829580  73.4152870  30.8895750  37.4946810  73.2404210
  29.9721220  36.3101830  73.0233450  21.1107220  42.0886990  78.8213740
  21.6285890  41.2855250  78.7670630  20.6591240  42.0266130  79.6630570
  25.9976720  43.3553270  74.0941040  26.3392420  44.0995500  73.5984360
  25.1689430  43.6684390  74.4565870  18.5951760  39.0548360  85.7339440
  18.2366700  39.7202210  86.3212780  18.3006320  38.2231910  86.1052060
  21.7964880  39.5132600  88.6178990  21.4965020  39.6589780  87.7206810
  22.5676120  38.9537890  88.5252380  27.1393330  44.3101600  86.6134120
  27.1537870  43.3782560  86.3953030  26.4318430  44.3961360  87.2523890
  32.2730400  38.4941420  72.8832730  32.1894120  38.9255640  72.0329170
  32.9924590  38.9539770  73.3159550  33.3504540  40.9508940  85.9602700
  32.6252730  41.5437720  85.7632090  33.8780000  40.9432480  85.1616070
  33.3017650  45.3483680  75.6114860  32.6593810  44.6939300  75.8858580
  32.9148310  45.7538770  74.8355530  28.8804130  42.6769110  79.4586550
  29.2327950  42.0797240  78.7987920  27.9966460  42.3513340  79.6294800
  24.9667410  43.4366800  76.8656960  25.6538540  43.9836010  77.2464550
  24.1799830  43.9807530  76.9006570  17.1059810  39.0539620  72.3574040
  17.9754660  39.3364420  72.6409960  16.6150130  39.8675490  72.2422850
  24.2694620  40.4412830  76.4782320  24.7257400  41.2518080  76.7042510
  23.9182830  40.1235970  77.3100810  26.5727230  45.9519170  83.7074620
  27.2169450  46.1578550  84.3848040  26.9356670  45.1907570  83.2545470
  20.1706400  30.7850480  76.9504840  20.0421030  30.7768380  77.8989760
  19.3468420  31.1233570  76.5995850  27.8459310  43.9551520  82.4252070
  28.4881540  43.2544680  82.5384240  28.3708660  44.7349960  82.2448960
  31.6915030  44.2400140  72.1491210  31.4652610  43.5230580  72.7415850
  31.3011230  43.9912580  71.3112960  29.6196930  44.7546420  85.6288130
  29.9553170  45.3413110  86.3066050  28.6997270  44.6239130  85.8585920
  17.4731060  48.2667000  72.9235670  17.8328700  48.8656340  72.2692940
  17.3323400  48.8126890  73.6970700  17.1700330  32.5441600  86.4111540
  16.4558850  32.7438520  87.0164150  17.5895370  31.7681170  86.7826340
  31.2731280  42.1572080  73.8105370  30.9852980  42.6184770  74.5983250
  32.0683450  41.6969850  74.0789590  17.4572920  46.5321860  87.3978070
  17.5664040  45.5916600  87.2573460  16.8053480  46.7976610  86.7491800
  25.4485510  44.8037750  88.7976190  25.1282380  44.0846990  89.3421880
  24.7743870  45.4792820  88.8712250  23.4899680  45.6498200  73.7409340
  23.4809780  46.3827890  73.1253850  22.5698040  45.4029780  73.8336300
  19.0906320  40.8713090  74.4856100  18.4834270  41.6111990  74.4951400
  19.5655670  40.9612450  73.6594300  28.6639110  35.0363910  84.1612990
  29.0319930  34.2159120  84.4892560  27.8037310  35.0965800  84.5768640
  32.0301140  33.9920850  74.9700550  31.4014300  34.0966520  74.2558780
  31.5353060  34.2117630  75.7594430  26.4759280  45.7126440  72.4034530
  26.5771260  45.5090430  71.4736510  25.5761020  45.4584720  72.6082310
  23.9985170  36.2706800  76.3858430  23.2901320  36.7393140  76.8272040
  24.2829650  35.6128810  77.0203620  25.6241100  37.6903500  84.3850960
  26.1226350  38.1649320  85.0502810  25.7664050  36.7667020  84.5920990
  28.0300600  32.9957460  77.8254220  27.9068380  33.0143590  76.8763730
  28.9785160  33.0436400  77.9452620  25.1177390  48.2312760  77.0982200
  25.3718890  48.1934150  76.1761570  24.1689870  48.1046090  77.0910450
  22.2020190  34.5791880  73.7609140  23.0510720  35.0162030  73.6949330
  21.8351460  34.8912140  74.5881200  32.8307960  33.9071460  85.2279350
  32.3281560  34.6476860  85.5673160  33.6464620  34.2955460  84.9116140
  31.1229970  39.1504640  78.6740710  30.1820110  39.1654870  78.8488400
  31.4374040  38.3640600  79.1201010  21.1011610  40.8324240  72.2344670
  21.8674880  40.7205600  72.7970100  21.1786300  40.1362210  71.5821440
  19.7958370  38.2649310  72.9177560  19.8761960  37.3176820  73.0294960
  20.6878120  38.5956190  73.0238220  33.1255550  46.3213490  80.3494970
  33.2502970  47.1444660  80.8218780  33.9921110  46.1104220  80.0019120
  20.5973080  48.4144700  80.0212100  21.3335560  47.8660160  80.2920670
  20.9814000  49.2800710  79.8818090  17.4818560  44.4818270  75.8953610
  16.5558340  44.7239410  75.8859020  17.9474990  45.3092530  75.7738360
  19.6031360  47.5990770  89.2097680  20.4044090  47.9202820  89.6233080
  19.0883180  47.2386350  89.9317590  23.7075390  47.5875010  71.8437670
  24.5004000  47.8763840  71.3919460  23.1879740  47.1567180  71.1650150
  28.4395990  43.7070640  89.1573090  27.8334150  43.7302240  88.4168840
  28.1350100  42.9753680  89.6940340  29.8696360  47.4350930  87.7682500
  30.8218110  47.3508950  87.7182740  29.7224580  48.0992640  88.4416290
  32.7605560  46.8145140  73.2674410  32.4747070  46.4010280  72.4528590
  32.5625110  47.7432850  73.1474930  17.3229170  40.0864230  88.1533730
  17.8268190  39.5071510  88.7249960  16.5836590  40.3704460  88.6910100
  24.2252790  42.8078420  71.7080020  24.1203430  42.1930770  72.4341400
  24.0577010  42.2844310  70.9243030  24.3767110  41.4935220  87.6869250
  23.6112780  42.0620220  87.6023920  24.5583070  41.2011430  86.7937480
  27.4655520  41.8698450  72.3122010  26.9165620  42.3167750  72.9564750
  28.0874780  41.3647700  72.8359680  31.5190460  43.2240550  88.2444270
  32.2599930  43.5616310  87.7411730  30.7563140  43.3932610  87.6914040
  19.3552250  38.2293820  89.0483800  19.3957590  37.9307690  89.9569030
  20.2097750  38.6301430  88.8891320  23.1330640  40.8289370  74.2087310
  23.5547060  40.6629240  75.0518700  23.2581480  40.0189600  73.7142450
  21.2958060  36.8085920  87.0158290  20.7654520  36.3176870  86.3881630
  21.9646130  37.2370120  86.4816220  25.6458280  39.8526980  71.4564410
  26.1663940  39.1376000  71.0905560  26.2926680  40.4912850  71.7564920
  30.1936120  41.2755380  86.7799480  30.6077140  41.4300460  87.6289900
  29.2587120  41.4010600  86.9425260  30.6658290  38.6151540  88.7838630
  31.2479060  37.8603860  88.6959110  30.8420060  39.1458980  88.0070110
  21.7830360  33.7748290  87.0955580  21.6887230  33.1569040  86.3706450
  21.2027750  34.5014580  86.8685490  24.5491800  32.3321530  84.1282970
  24.1009100  32.3545790  83.2828520  23.9157000  31.9340550  84.7253270
  24.9551350  41.2275860  84.7495410  25.3739460  42.0708590  84.5771650
  24.0359980  41.3647900  84.5202190  27.2915250  38.9592040  86.1333250
  27.4111460  38.3633180  86.8728090  28.1509250  38.9961730  85.7134550
  29.6303150  39.5129230  84.7095760  29.1038370  40.0371850  84.1060900
  29.9734490  40.1456620  85.3405490  22.0289540  36.9022600  71.1545470
  21.8278600  36.0389960  71.5158810  21.8581590  36.8155960  70.2167070
  22.8058770  47.5328870  85.8653140  22.2679860  48.2574930  85.5461840
  23.0592730  47.0559210  85.0750480  24.0584020  35.5013390  87.3909070
  24.6483710  35.1929240  88.0786890  23.2404260  35.0293140  87.5468970
  28.8777450  35.1179200  87.6242090  28.1892970  34.4560740  87.5592080
  29.5983470  34.6717470  88.0690550  29.5077850  31.7130830  73.6832350
  29.7880140  30.8698730  74.0391770  28.7343580  31.9453940  74.1971100
  20.8272340  34.0023220  71.1423350  21.1298240  34.0090650  70.2342500
  21.5666930  33.6521080  71.6391010  25.6620980  48.7680080  86.1239790
  25.5879680  49.6715220  86.4312160  24.7599820  48.4491980  86.0961860
  24.0457270  32.9457840  72.1279550  23.6979270  32.2681830  71.5482000
  24.2470040  32.4847350  72.9422940  26.2106310  47.9338590  73.7466150
  27.1057100  48.2723560  73.7684910  26.2423940  47.2118000  73.1190430
  19.8502470  43.3065640  71.9753150  20.2877340  43.8495310  72.6310730
  20.3350200  42.4812590  71.9849490  17.0648270  46.0954670  79.4273410
  17.3951280  45.2275730  79.1952050  17.4939270  46.3013190  80.2578370
  21.6610190  44.4263680  77.0875380  21.3605730  44.3028650  77.9879290
  21.5547680  43.5672270  76.6791110  17.5538480  46.9625260  82.1655040
  17.1169470  47.1426060  82.9979190  18.1216160  47.7199880  82.0236760
  33.1900660  46.4642260  86.4532350  32.5902650  46.5234820  85.7096270
  33.3194560  45.5247240  86.5829200  34.4302110  44.2060080  71.7902060
  33.5995070  44.2736730  72.2609290  34.6073940  45.0964200  71.4868920
  33.8858570  40.9507560  74.2936260  34.6477480  41.5204210  74.3995950
  33.9012940  40.3834760  75.0644570  17.3862910  39.4745490  78.5243920
  16.7311750  39.2057130  77.8803620  18.2240860  39.3649970  78.0745900
  34.8918540  41.8057660  79.1378190  35.2627370  41.0224980  78.7314160
  35.5320470  42.4946760  78.9595490  31.8752300  43.1894240  84.5508510
  31.0612140  43.6191400  84.8134300  32.2826500  43.8012650  83.9377560
  33.9377740  41.2441930  71.4508780  34.2126580  42.1520810  71.3228000
  33.7488480  41.1804460  72.3870770  30.3353350  34.2686780  72.7462410
  30.7538230  34.0817760  71.9059070  30.0289410  33.4165830  73.0565340
  33.8343080  39.1810920  76.4438210  33.4586680  38.4138850  76.0119500
  33.1046200  39.5633620  76.9313140  18.4238840  39.8598060  83.0647260
  18.7911880  39.7725460  83.9443280  17.8549660  39.0964610  82.9654120
  33.2242700  38.3282440  86.0777730  32.9928790  38.0995190  85.1775680
  33.4847250  39.2481990  86.0322620  17.9754840  36.7707150  86.9705680
  17.0810890  36.7373910  87.3099390  18.5152390  36.9693940  87.7356930
  31.6630770  33.5538870  88.8557430  32.5400950  33.5622270  89.2391430
  31.6751610  32.8169710  88.2449780  16.6000990  36.6844420  74.4669250
  15.6965070  36.9474620  74.2920910  17.0841610  36.9555590  73.6869210
  33.1094040  37.4068410  79.7445450  33.6331520  36.9131060  79.1135620
  33.6953460  37.5418770  80.4893020  33.2883760  37.4908280  83.2665000
  32.3386470  37.4571820  83.3809990  33.4696770  38.4008390  83.0314770
  19.1428200  35.7409960  72.3763630  19.8519900  35.3193180  71.8910910
  18.4268140  35.8085190  71.7446980  18.7902360  31.7949290  71.4166280
  19.5130490  32.3358230  71.7347500  19.0626880  31.5212710  70.5407820
  32.5994010  36.6641760  75.6837860  33.0953130  36.4312630  76.4686740
  32.4010080  35.8253600  75.2675500  18.4794550  31.0455480  81.3188900
  19.1270740  30.4952860  80.8784060  18.8996390  31.2998630  82.1404710
  34.0281170  35.3002710  78.2175540  33.9180450  35.1458750  79.1557810
  34.7888760  34.7723650  77.9750950  32.3746890  31.2396840  84.6758540
  33.0119110  31.8530980  85.0417730  32.5221780  31.2757500  83.7307770
  34.9171440  33.1310630  71.4581680  35.8420750  32.9991810  71.2499970
  34.8947230  33.2103450  72.4118130  34.9909930  33.9021290  74.0838390
  34.1961430  33.8366410  74.6131300  35.1953210  34.8371930  74.0723740
  31.9328350  47.9412840  78.0776780  32.5287420  47.6197410  77.4011200
  32.1906500  47.4684660  78.8690050  18.2326550  31.2011150  84.0614220
  17.8841370  31.6574970  84.8272400  17.9014250  30.3068280  84.1436650
  19.8390920  44.3730750  88.2267410  19.7960550  44.0023660  89.1081870
  19.9701930  45.3108320  88.3669230  23.5396950  45.9290340  83.8277130
  23.2988310  46.1964900  82.9407650  24.4799590  46.0996070  83.8827990
  25.7451370  32.3923030  87.5833640  25.6840260  32.9844860  88.3329050
  26.6851750  32.2848990  87.4383900  28.3825930  32.0493090  87.2225930
  28.9966340  32.3672380  86.5607010  28.9275490  31.5641680  87.8421790
  34.8001110  47.9484720  84.6287770  34.3059390  48.3453590  83.9114900
  34.1914400  47.3233930  85.0225050  18.9047190  30.7287350  87.3364990
  19.4530180  30.5475400  86.5731100  18.9702500  29.9381460  87.8721300
  19.6778950  47.3193000  85.3465190  19.0839270  47.1877700  86.0855230
  19.6702790  46.4831140  84.8807290  29.1233970  30.6125230  83.5495220
  28.2493810  30.9460340  83.3468150  29.0144720  30.1398410  84.3747090
  30.0305950  32.8196100  84.9336940  29.7019310  32.0047860  84.5538670
  30.9788250  32.7765910  84.8102630  32.4840560  48.5908140  81.9074510
  32.0243530  49.3423950  81.5332530  31.8553020  47.8714610  81.8489310
  19.3091180  44.6851380  84.2973230  18.5825240  44.0656670  84.2299180
  19.3700330  45.0791990  83.4271310  22.9136280  46.8996380  81.0822640
  23.4301300  46.2883740  80.5570900  23.5633660  47.4025160  81.5733650
  25.6531780  47.7904870  81.9091620  25.9409590  47.5359170  81.0324630
  26.1655000  47.2382230  82.4997190  26.8708790  31.5295070  82.4888130
  26.0880580  32.0040570  82.7684890  26.5771720  30.6249900  82.3801310
  31.4229860  32.2318170  80.5337220  31.8637950  32.1763270  79.6858820
  31.1537450  33.1476180  80.6047400  33.2868430  31.8633410  78.5446040
  33.2256830  30.9194630  78.3977060  34.0660460  31.9713500  79.0899500
  17.5921180  48.0025770  77.5069990  17.4243220  47.3696450  78.2051880
  16.7255690  48.2085170  77.1564180  18.2149200  31.8342550  75.0101850
  18.9728560  31.9471430  74.4365880  17.7526370  32.6711750  74.9645280
  24.7563010  33.9481820  78.0004160  23.9437520  33.5738710  77.6600040
  25.2604650  33.1926900  78.3025350  29.2587990  30.6124270  79.2387230
  29.8617360  31.1844480  79.7135750  28.5180980  31.1763710  79.0161130
  32.4022590  31.0145830  74.5127510  32.5973220  31.9129280  74.7794940
  31.6152460  30.7832910  75.0060460  19.1983880  46.6959000  74.9520130
  18.6731500  47.0767030  74.2482090  19.1228460  47.3209770  75.6729840
  20.5874350  32.3606600  73.5503820  21.1167110  31.5736400  73.4211770
  21.2202670  33.0397790  73.7839350  22.7812190  32.0981740  76.6049210
  22.1514930  31.3969050  76.7719340  22.2417330  32.8585870  76.3882370
  25.7204140  48.7120970  89.2759820  26.6471450  48.4765240  89.3195780
  25.7054570  49.5392970  88.7945850  33.9549200  48.2546540  76.2734070
  34.1301390  47.5684280  75.6294990  33.2570770  48.7793590  75.8810740
  22.9067750  31.3765720  89.0401700  22.6252020  31.8799320  88.2762520
  23.2887450  30.5787470  88.6743830  21.7976850  48.6441380  73.8269380
  22.5295670  48.3600660  73.2793270  22.0570520  48.4054660  74.7168760
  20.9591640  44.7606110  73.8315710  20.3300520  45.2291210  74.3801540
  21.0739470  43.9155330  74.2661900  29.5083210  30.7919300  89.6182170
  29.3948660  31.1113910  90.5133690  30.3252950  31.1931810  89.3219450
  32.2881700  47.9390830  89.1000860  33.0807020  47.4440060  88.8926820
  32.5814850  48.6180970  89.7076470  28.4141360  38.8111770  59.9816910
  28.3335410  37.8966380  59.7108620  28.0005780  39.3078840  59.2756620
  26.5459400  40.5890790  61.8626180  25.7701500  40.1091230  62.1524750
  27.1972330  39.9096440  61.6882340  20.5625230  40.9010600  62.7401940
  19.7310110  40.6459310  63.1398450  21.1706210  40.9721370  63.4759860
  30.5666830  44.9950980  60.6425310  30.1048360  44.2238220  60.9712480
  31.3792380  45.0217050  61.1477760  20.5426490  44.9350690  62.9359960
  20.8454530  44.0448430  62.7570180  21.2870080  45.4920910  62.7082210
  18.9717180  35.8612490  56.5244330  18.0833880  36.2028460  56.4224210
  19.2558370  35.6612810  55.6325160  16.9350190  38.4618140  62.4084030
  17.5066300  37.6940340  62.4087670  16.9351730  38.7606900  61.4990640
  26.7930140  47.2808990  60.2629300  26.1741580  47.7366490  59.6923740
  27.6481920  47.4360450  59.8619000  25.9868390  43.2647980  61.8696340
  25.9176670  42.3237920  61.7085470  26.7488250  43.3549390  62.4418910
  18.1775060  33.8702500  64.1952960  17.9977900  32.9728250  64.4755720
  17.7755140  34.4174370  64.8699910  27.0173560  36.0718360  62.0965270
  27.3938380  35.1990240  61.9838940  26.9193070  36.4077060  61.2055710
  21.1478570  34.4443990  57.5582710  21.2545320  35.3447720  57.8651470
  20.2370930  34.3961960  57.2677360  30.7997680  33.5668800  59.0293610
  31.6207300  33.0765370  59.0719090  30.8331760  34.1566460  59.7825450
  18.7961730  36.3663000  62.8035300  19.4771840  36.6301370  63.4222700
  18.4809780  35.5263870  63.1373310  22.9886300  37.4130360  61.8907890
  23.4964520  37.9111330  62.5312910  23.5199540  36.6365560  61.7147250
  35.0897230  35.5835550  65.5937240  34.3849400  35.9717260  65.0752350
  35.3555150  36.2785840  66.1958170  21.2722400  32.0528920  66.1571310
  21.2740840  32.5701310  65.3517210  20.4426710  31.5759100  66.1341240
  27.6593490  42.1648230  57.6561210  27.0410760  42.6297680  57.0923930
  28.1716740  42.8575710  58.0730720  22.5225250  41.6924100  64.3344810
  22.1894630  42.3193020  64.9765880  22.6991930  42.2185980  63.5546480
  31.0359160  35.5069180  61.8021150  30.3314730  35.7954070  62.3824260
  31.3971320  36.3169290  61.4420710  20.9537730  33.7638880  64.1641760
  21.2954540  34.6080930  63.8695630  20.0153540  33.9122620  64.2807100
  21.7344350  43.6604900  66.1493990  22.3518350  44.3355980  65.8678440
  20.8737470  44.0692880  66.0581490  17.0276690  42.8504760  55.0300840
  16.6504670  43.3391860  54.2985740  17.2849760  43.5230040  55.6607370
  32.6521940  45.1244310  64.0648630  31.9685460  45.7943420  64.0565300
  33.1916230  45.3224960  63.2993490  34.1046080  34.9523970  62.1930360
  33.1570990  34.9862950  62.3245790  34.4296070  35.7662920  62.5779720
  24.6365620  31.2521150  60.4886350  24.9440600  30.6968040  59.7721850
  23.7066320  31.3865610  60.3059340  30.1880680  46.9688440  62.7793810
  30.2007840  46.5650730  61.9116070  29.6355900  47.7435730  62.6755240
  31.4826100  43.6904660  57.8683980  31.3722430  42.7478990  57.9933400
  31.4794350  44.0520300  58.7546740  29.5866120  41.8718280  64.1076420
  30.0034910  41.6578390  63.2729880  30.3105940  42.1291070  64.6785040
  27.0246380  39.3169980  57.2246470  26.0975660  39.2507360  57.4534940
  27.1771200  40.2550110  57.1101710  27.0115460  35.5886980  54.2213630
  26.0719130  35.7500940  54.3066090  27.3298720  36.3072660  53.6749620
  33.5328220  40.2705500  64.1992660  32.7046850  40.3398590  63.7242790
  34.1278700  40.8559810  63.7308490  31.0543670  40.8790280  57.7281720
  30.4356090  40.5409830  57.0808020  31.0368120  40.2350040  58.4360910
  30.4970230  37.0574820  65.1447530  30.0841410  37.8828530  65.3987520
  29.7646180  36.4719860  64.9523890  22.6303020  39.8434720  60.0066200
  22.2260020  39.1311970  59.5112100  22.7166140  39.4987960  60.8954240
  23.0984720  43.5302280  62.1705410  22.8013010  42.9247750  61.4913190
  24.0484540  43.5679590  62.0594770  21.3431640  36.6177930  63.7865240
  21.8946230  36.7273270  63.0118490  21.8575150  36.9915530  64.5020470
  31.1870330  47.1034150  65.8328510  30.7100890  47.9106340  65.6401120
  30.5032120  46.4512480  65.9854720  22.1903150  43.2683970  68.8213210
  21.2931680  43.4923940  69.0686610  22.2156020  43.3918910  67.8724610
  29.2308370  40.1177090  54.7354470  29.6701650  39.2799520  54.5892290
  29.9436790  40.7506490  54.8218610  21.0174370  40.1397290  67.3970580
  20.8782140  41.0120090  67.7657980  20.1355730  39.7970100  67.2518520
  27.3403750  45.0573160  58.7035710  27.7799660  45.7997490  58.2891100
  27.2790640  45.2999730  59.6274670  22.8154720  46.0818990  69.6055730
  22.7870150  46.4861940  68.7384160  22.6519690  45.1529350  69.4427330
  32.8125510  31.3719900  53.0495510  32.4998170  31.4646730  53.9494580
  33.5737980  31.9500930  52.9992940  19.3307650  38.7379700  57.5072850
  19.2105250  39.4641790  56.8954120  19.0208540  37.9682610  57.0300760
  34.7669540  46.8646090  70.9019900  35.2429260  47.3428980  71.5808980
  35.3876700  46.7963580  70.1765400  16.9693020  41.9094840  63.3141490
  17.0473440  42.0443610  62.3697210  17.5834700  41.2010730  63.5069610
  18.2140650  43.6095030  59.7247670  17.8068730  43.7509620  58.8701270
  19.1053660  43.3255190  59.5218880  34.1702790  44.0558940  68.0619910
  34.2965850  43.8170820  67.1437090  34.2124170  43.2243480  68.5341990
  28.0319530  47.7586940  66.6314720  28.5464200  47.6694950  67.4337150
  27.1888610  48.1046640  66.9242630  30.0073930  48.0442280  56.0598720
  29.8475070  47.7545220  56.9580550  29.8420640  47.2682410  55.5243950
  22.4862310  47.8240810  57.8370340  22.3104790  46.9076350  57.6238140
  21.6318050  48.1828100  58.0768140  29.7100060  45.5529840  54.6196720
  29.0165220  45.5507130  53.9599000  30.4522920  45.1289160  54.1890890
  29.2749990  47.1792550  58.6945210  29.7306940  46.3981930  59.0083830
  29.6142510  47.8899370  59.2386390  34.0226800  36.1091400  69.0269650
  33.4071070  36.6171070  68.4985110  33.7023220  35.2089730  68.9695590
  17.0252540  42.9509010  65.8535950  17.1883580  42.4814370  65.0355320
  17.4904990  42.4432570  66.5184790  21.7971310  32.0814770  60.8896520
  21.3539460  32.8624310  60.5581040  22.3556300  32.4044660  61.5967460
  26.0841120  34.9483290  66.4931840  25.6220490  35.1566310  67.3051780
  25.6819230  34.1342640  66.1902510  31.0845630  36.1692240  67.6228500
  30.2339220  35.8697990  67.9437570  30.9247420  36.4134250  66.7112320
  28.1795340  37.6693990  69.7227290  28.5048750  36.8357740  69.3829520
  28.9675670  38.1922510  69.8705620  24.9130130  31.7025470  55.7702350
  24.2884310  31.6985340  56.4955660  24.8260250  30.8356430  55.3738320
  23.8347210  32.6262100  62.7486120  24.1319540  33.5324930  62.6678140
  24.3832770  32.1380880  62.1345690  21.5885530  37.2048340  58.6177770
  21.3626450  36.9885510  59.5224390  20.8078060  37.6376800  58.2723740
  28.8183290  37.2111710  57.2168420  28.2192180  37.9347510  57.0332040
  29.3662900  37.1488490  56.4344870  24.0284740  38.1033920  69.2838040
  23.9328340  37.1628650  69.1338440  24.8716720  38.3248990  68.8886110
  27.4248160  35.8475250  59.2471700  27.8177730  36.1647450  58.4340390
  27.7865010  34.9687130  59.3616220  19.1595280  34.5147590  67.4371820
  18.7658670  35.3622800  67.6444600  18.4713680  33.8773960  67.6280460
  25.7340330  34.5982560  70.5068560  25.0438650  34.4054760  71.1414650
  26.4772630  34.8817200  71.0392860  16.4612330  32.4376050  61.4701900
  16.1725380  33.0078910  62.1826880  17.2058090  31.9580500  61.8333130
  16.6482560  36.3796170  52.6804620  16.5657230  37.3226930  52.8219610
  16.2965620  36.2371080  51.8016970  28.0103300  38.4381000  63.3422480
  27.2784420  38.9467810  63.6912580  27.6127640  37.6210980  63.0411260
  24.4480690  35.1135200  61.7474970  24.4516750  34.6725150  60.8979510
  25.3431810  35.4352530  61.8546790  20.2983070  34.9961690  60.7069180
  19.9583120  35.4736920  61.4636230  19.5360390  34.5426810  60.3470280
  24.5100840  36.1147280  54.7381730  24.6313660  36.0733760  55.6867550
  24.1249350  36.9771430  54.5828460  28.4729210  33.8914680  62.7545420
  28.4901950  34.3423330  63.5987270  28.2244790  32.9920320  62.9678860
  23.5222340  38.4248420  54.1365030  22.9539240  37.9766670  53.5100940
  24.2311340  38.7841200  53.6030180  31.8999960  31.3046860  68.5931800
  32.2245730  30.5736520  69.1189780  31.9356470  30.9860500  67.6912790
  18.5991520  42.3260440  68.0131760  18.2146310  41.6854110  68.6114720
  18.9103710  43.0296560  68.5826490  24.7488660  39.1736980  63.4940380
  25.1158790  38.6995550  64.2401720  24.5593720  40.0478550  63.8348720
  17.6129150  33.9180670  59.6233850  17.3276070  33.5536340  60.4612470
  17.5508010  33.1861130  59.0096990  22.5388030  38.2145620  65.8124590
  22.2345100  39.0937600  66.0374950  23.4934490  38.2745410  65.8482030
  21.0669820  42.4206610  56.4091440  20.2932080  41.8804230  56.2490160
  21.7964450  41.9013220  56.0709200  31.8257800  41.4171970  62.2017830
  32.5456920  41.9127260  61.8113940  31.6239620  40.7389860  61.5571700
  27.2867740  32.8109930  56.3447220  26.4732350  32.3123100  56.2692530
  27.0929690  33.6508180  55.9283570  27.2076600  41.4881030  68.0886830
  27.1413910  40.5676700  67.8344420  26.5781740  41.5856470  68.8031470
  30.0016130  37.1829580  54.6409380  30.8895750  37.4946810  54.4660720
  29.9721220  36.3101830  54.2489960  21.1107220  42.0886990  60.0470250
  21.6285890  41.2855250  59.9927140  20.6591240  42.0266130  60.8887080
  25.9976720  43.3553270  55.3197550  26.3392420  44.0995500  54.8240870
  25.1689430  43.6684390  55.6822380  18.5951760  39.0548360  66.9595950
  18.2366700  39.7202210  67.5469290  18.3006320  38.2231910  67.3308570
  21.7964880  39.5132600  69.8435500  21.4965020  39.6589780  68.9463320
  22.5676120  38.9537890  69.7508890  27.1393330  44.3101600  67.8390630
  27.1537870  43.3782560  67.6209540  26.4318430  44.3961360  68.4780400
  32.2730400  38.4941420  54.1089240  32.1894120  38.9255640  53.2585680
  32.9924590  38.9539770  54.5416060  33.3504540  40.9508940  67.1859210
  32.6252730  41.5437720  66.9888600  33.8780000  40.9432480  66.3872580
  33.3017650  45.3483680  56.8371370  32.6593810  44.6939300  57.1115090
  32.9148310  45.7538770  56.0612040  28.8804130  42.6769110  60.6843060
  29.2327950  42.0797240  60.0244430  27.9966460  42.3513340  60.8551310
  24.9667410  43.4366800  58.0913470  25.6538540  43.9836010  58.4721060
  24.1799830  43.9807530  58.1263080  17.1059810  39.0539620  53.5830550
  17.9754660  39.3364420  53.8666470  16.6150130  39.8675490  53.4679360
  24.2694620  40.4412830  57.7038830  24.7257400  41.2518080  57.9299020
  23.9182830  40.1235970  58.5357320  26.5727230  45.9519170  64.9331130
  27.2169450  46.1578550  65.6104550  26.9356670  45.1907570  64.4801980
  20.1706400  30.7850480  58.1761350  20.0421030  30.7768380  59.1246270
  19.3468420  31.1233570  57.8252360  27.8459310  43.9551520  63.6508580
  28.4881540  43.2544680  63.7640750  28.3708660  44.7349960  63.4705470
  31.6915030  44.2400140  53.3747720  31.4652610  43.5230580  53.9672360
  31.3011230  43.9912580  52.5369470  29.6196930  44.7546420  66.8544640
  29.9553170  45.3413110  67.5322560  28.6997270  44.6239130  67.0842430
  17.4731060  48.2667000  54.1492180  17.8328700  48.8656340  53.4949450
  17.3323400  48.8126890  54.9227210  17.1700330  32.5441600  67.6368050
  16.4558850  32.7438520  68.2420660  17.5895370  31.7681170  68.0082850
  31.2731280  42.1572080  55.0361880  30.9852980  42.6184770  55.8239760
  32.0683450  41.6969850  55.3046100  17.4572920  46.5321860  68.6234580
  17.5664040  45.5916600  68.4829970  16.8053480  46.7976610  67.9748310
  25.4485510  44.8037750  70.0232700  25.1282380  44.0846990  70.5678390
  24.7743870  45.4792820  70.0968760  23.4899680  45.6498200  54.9665850
  23.4809780  46.3827890  54.3510360  22.5698040  45.4029780  55.0592810
  19.0906320  40.8713090  55.7112610  18.4834270  41.6111990  55.7207910
  19.5655670  40.9612450  54.8850810  28.6639110  35.0363910  65.3869500
  29.0319930  34.2159120  65.7149070  27.8037310  35.0965800  65.8025150
  32.0301140  33.9920850  56.1957060  31.4014300  34.0966520  55.4815290
  31.5353060  34.2117630  56.9850940  26.4759280  45.7126440  53.6291040
  26.5771260  45.5090430  52.6993020  25.5761020  45.4584720  53.8338820
  23.9985170  36.2706800  57.6114940  23.2901320  36.7393140  58.0528550
  24.2829650  35.6128810  58.2460130  25.6241100  37.6903500  65.6107470
  26.1226350  38.1649320  66.2759320  25.7664050  36.7667020  65.8177500
  28.0300600  32.9957460  59.0510730  27.9068380  33.0143590  58.1020240
  28.9785160  33.0436400  59.1709130  25.1177390  48.2312760  58.3238710
  25.3718890  48.1934150  57.4018080  24.1689870  48.1046090  58.3166960
  22.2020190  34.5791880  54.9865650  23.0510720  35.0162030  54.9205840
  21.8351460  34.8912140  55.8137710  32.8307960  33.9071460  66.4535860
  32.3281560  34.6476860  66.7929670  33.6464620  34.2955460  66.1372650
  31.1229970  39.1504640  59.8997220  30.1820110  39.1654870  60.0744910
  31.4374040  38.3640600  60.3457520  21.1011610  40.8324240  53.4601180
  21.8674880  40.7205600  54.0226610  21.1786300  40.1362210  52.8077950
  19.7958370  38.2649310  54.1434070  19.8761960  37.3176820  54.2551470
  20.6878120  38.5956190  54.2494730  33.1255550  46.3213490  61.5751480
  33.2502970  47.1444660  62.0475290  33.9921110  46.1104220  61.2275630
  20.5973080  48.4144700  61.2468610  21.3335560  47.8660160  61.5177180
  20.9814000  49.2800710  61.1074600  17.4818560  44.4818270  57.1210120
  16.5558340  44.7239410  57.1115530  17.9474990  45.3092530  56.9994870
  19.6031360  47.5990770  70.4354190  20.4044090  47.9202820  70.8489590
  19.0883180  47.2386350  71.1574100  23.7075390  47.5875010  53.0694180
  24.5004000  47.8763840  52.6175970  23.1879740  47.1567180  52.3906660
  28.4395990  43.7070640  70.3829600  27.8334150  43.7302240  69.6425350
  28.1350100  42.9753680  70.9196850  29.8696360  47.4350930  68.9939010
  30.8218110  47.3508950  68.9439250  29.7224580  48.0992640  69.6672800
  32.7605560  46.8145140  54.4930920  32.4747070  46.4010280  53.6785100
  32.5625110  47.7432850  54.3731440  17.3229170  40.0864230  69.3790240
  17.8268190  39.5071510  69.9506470  16.5836590  40.3704460  69.9166610
  24.2252790  42.8078420  52.9336530  24.1203430  42.1930770  53.6597910
  24.0577010  42.2844310  52.1499540  24.3767110  41.4935220  68.9125760
  23.6112780  42.0620220  68.8280430  24.5583070  41.2011430  68.0193990
  27.4655520  41.8698450  53.5378520  26.9165620  42.3167750  54.1821260
  28.0874780  41.3647700  54.0616190  31.5190460  43.2240550  69.4700780
  32.2599930  43.5616310  68.9668240  30.7563140  43.3932610  68.9170550
  19.3552250  38.2293820  70.2740310  19.3957590  37.9307690  71.1825540
  20.2097750  38.6301430  70.1147830  23.1330640  40.8289370  55.4343820
  23.5547060  40.6629240  56.2775210  23.2581480  40.0189600  54.9398960
  21.2958060  36.8085920  68.2414800  20.7654520  36.3176870  67.6138140
  21.9646130  37.2370120  67.7072730  25.6458280  39.8526980  52.6820920
  26.1663940  39.1376000  52.3162070  26.2926680  40.4912850  52.9821430
  30.1936120  41.2755380  68.0055990  30.6077140  41.4300460  68.8546410
  29.2587120  41.4010600  68.1681770  30.6658290  38.6151540  70.0095140
  31.2479060  37.8603860  69.9215620  30.8420060  39.1458980  69.2326620
  21.7830360  33.7748290  68.3212090  21.6887230  33.1569040  67.5962960
  21.2027750  34.5014580  68.0942000  24.5491800  32.3321530  65.3539480
  24.1009100  32.3545790  64.5085030  23.9157000  31.9340550  65.9509780
  24.9551350  41.2275860  65.9751920  25.3739460  42.0708590  65.8028160
  24.0359980  41.3647900  65.7458700  27.2915250  38.9592040  67.3589760
  27.4111460  38.3633180  68.0984600  28.1509250  38.9961730  66.9391060
  29.6303150  39.5129230  65.9352270  29.1038370  40.0371850  65.3317410
  29.9734490  40.1456620  66.5662000  22.0289540  36.9022600  52.3801980
  21.8278600  36.0389960  52.7415320  21.8581590  36.8155960  51.4423580
  22.8058770  47.5328870  67.0909650  22.2679860  48.2574930  66.7718350
  23.0592730  47.0559210  66.3006990  24.0584020  35.5013390  68.6165580
  24.6483710  35.1929240  69.3043400  23.2404260  35.0293140  68.7725480
  28.8777450  35.1179200  68.8498600  28.1892970  34.4560740  68.7848590
  29.5983470  34.6717470  69.2947060  29.5077850  31.7130830  54.9088860
  29.7880140  30.8698730  55.2648280  28.7343580  31.9453940  55.4227610
  20.8272340  34.0023220  52.3679860  21.1298240  34.0090650  51.4599010
  21.5666930  33.6521080  52.8647520  25.6620980  48.7680080  67.3496300
  25.5879680  49.6715220  67.6568670  24.7599820  48.4491980  67.3218370
  24.0457270  32.9457840  53.3536060  23.6979270  32.2681830  52.7738510
  24.2470040  32.4847350  54.1679450  26.2106310  47.9338590  54.9722660
  27.1057100  48.2723560  54.9941420  26.2423940  47.2118000  54.3446940
  19.8502470  43.3065640  53.2009660  20.2877340  43.8495310  53.8567240
  20.3350200  42.4812590  53.2106000  17.0648270  46.0954670  60.6529920
  17.3951280  45.2275730  60.4208560  17.4939270  46.3013190  61.4834880
  21.6610190  44.4263680  58.3131890  21.3605730  44.3028650  59.2135800
  21.5547680  43.5672270  57.9047620  17.5538480  46.9625260  63.3911550
  17.1169470  47.1426060  64.2235700  18.1216160  47.7199880  63.2493270
  33.1900660  46.4642260  67.6788860  32.5902650  46.5234820  66.9352780
  33.3194560  45.5247240  67.8085710  34.4302110  44.2060080  53.0158570
  33.5995070  44.2736730  53.4865800  34.6073940  45.0964200  52.7125430
  33.8858570  40.9507560  55.5192770  34.6477480  41.5204210  55.6252460
  33.9012940  40.3834760  56.2901080  17.3862910  39.4745490  59.7500430
  16.7311750  39.2057130  59.1060130  18.2240860  39.3649970  59.3002410
  34.8918540  41.8057660  60.3634700  35.2627370  41.0224980  59.9570670
  35.5320470  42.4946760  60.1852000  31.8752300  43.1894240  65.7765020
  31.0612140  43.6191400  66.0390810  32.2826500  43.8012650  65.1634070
  33.9377740  41.2441930  52.6765290  34.2126580  42.1520810  52.5484510
  33.7488480  41.1804460  53.6127280  30.3353350  34.2686780  53.9718920
  30.7538230  34.0817760  53.1315580  30.0289410  33.4165830  54.2821850
  33.8343080  39.1810920  57.6694720  33.4586680  38.4138850  57.2376010
  33.1046200  39.5633620  58.1569650  18.4238840  39.8598060  64.2903770
  18.7911880  39.7725460  65.1699790  17.8549660  39.0964610  64.1910630
  33.2242700  38.3282440  67.3034240  32.9928790  38.0995190  66.4032190
  33.4847250  39.2481990  67.2579130  17.9754840  36.7707150  68.1962190
  17.0810890  36.7373910  68.5355900  18.5152390  36.9693940  68.9613440
  31.6630770  33.5538870  70.0813940  32.5400950  33.5622270  70.4647940
  31.6751610  32.8169710  69.4706290  16.6000990  36.6844420  55.6925760
  15.6965070  36.9474620  55.5177420  17.0841610  36.9555590  54.9125720
  33.1094040  37.4068410  60.9701960  33.6331520  36.9131060  60.3392130
  33.6953460  37.5418770  61.7149530  33.2883760  37.4908280  64.4921510
  32.3386470  37.4571820  64.6066500  33.4696770  38.4008390  64.2571280
  19.1428200  35.7409960  53.6020140  19.8519900  35.3193180  53.1167420
  18.4268140  35.8085190  52.9703490  18.7902360  31.7949290  52.6422790
  19.5130490  32.3358230  52.9604010  19.0626880  31.5212710  51.7664330
  32.5994010  36.6641760  56.9094370  33.0953130  36.4312630  57.6943250
  32.4010080  35.8253600  56.4932010  18.4794550  31.0455480  62.5445410
  19.1270740  30.4952860  62.1040570  18.8996390  31.2998630  63.3661220
  34.0281170  35.3002710  59.4432050  33.9180450  35.1458750  60.3814320
  34.7888760  34.7723650  59.2007460  32.3746890  31.2396840  65.9015050
  33.0119110  31.8530980  66.2674240  32.5221780  31.2757500  64.9564280
  34.9171440  33.1310630  52.6838190  35.8420750  32.9991810  52.4756480
  34.8947230  33.2103450  53.6374640  34.9909930  33.9021290  55.3094900
  34.1961430  33.8366410  55.8387810  35.1953210  34.8371930  55.2980250
  31.9328350  47.9412840  59.3033290  32.5287420  47.6197410  58.6267710
  32.1906500  47.4684660  60.0946560  18.2326550  31.2011150  65.2870730
  17.8841370  31.6574970  66.0528910  17.9014250  30.3068280  65.3693160
  19.8390920  44.3730750  69.4523920  19.7960550  44.0023660  70.3338380
  19.9701930  45.3108320  69.5925740  23.5396950  45.9290340  65.0533640
  23.2988310  46.1964900  64.1664160  24.4799590  46.0996070  65.1084500
  25.7451370  32.3923030  68.8090150  25.6840260  32.9844860  69.5585560
  26.6851750  32.2848990  68.6640410  28.3825930  32.0493090  68.4482440
  28.9966340  32.3672380  67.7863520  28.9275490  31.5641680  69.0678300
  34.8001110  47.9484720  65.8544280  34.3059390  48.3453590  65.1371410
  34.1914400  47.3233930  66.2481560  18.9047190  30.7287350  68.5621500
  19.4530180  30.5475400  67.7987610  18.9702500  29.9381460  69.0977810
  19.6778950  47.3193000  66.5721700  19.0839270  47.1877700  67.3111740
  19.6702790  46.4831140  66.1063800  29.1233970  30.6125230  64.7751730
  28.2493810  30.9460340  64.5724660  29.0144720  30.1398410  65.6003600
  30.0305950  32.8196100  66.1593450  29.7019310  32.0047860  65.7795180
  30.9788250  32.7765910  66.0359140  32.4840560  48.5908140  63.1331020
  32.0243530  49.3423950  62.7589040  31.8553020  47.8714610  63.0745820
  19.3091180  44.6851380  65.5229740  18.5825240  44.0656670  65.4555690
  19.3700330  45.0791990  64.6527820  22.9136280  46.8996380  62.3079150
  23.4301300  46.2883740  61.7827410  23.5633660  47.4025160  62.7990160
  25.6531780  47.7904870  63.1348130  25.9409590  47.5359170  62.2581140
  26.1655000  47.2382230  63.7253700  26.8708790  31.5295070  63.7144640
  26.0880580  32.0040570  63.9941400  26.5771720  30.6249900  63.6057820
  31.4229860  32.2318170  61.7593730  31.8637950  32.1763270  60.9115330
  31.1537450  33.1476180  61.8303910  33.2868430  31.8633410  59.7702550
  33.2256830  30.9194630  59.6233570  34.0660460  31.9713500  60.3156010
  17.5921180  48.0025770  58.7326500  17.4243220  47.3696450  59.4308390
  16.7255690  48.2085170  58.3820690  18.2149200  31.8342550  56.2358360
  18.9728560  31.9471430  55.6622390  17.7526370  32.6711750  56.1901790
  24.7563010  33.9481820  59.2260670  23.9437520  33.5738710  58.8856550
  25.2604650  33.1926900  59.5281860  29.2587990  30.6124270  60.4643740
  29.8617360  31.1844480  60.9392260  28.5180980  31.1763710  60.2417640
  32.4022590  31.0145830  55.7384020  32.5973220  31.9129280  56.0051450
  31.6152460  30.7832910  56.2316970  19.1983880  46.6959000  56.1776640
  18.6731500  47.0767030  55.4738600  19.1228460  47.3209770  56.8986350
  20.5874350  32.3606600  54.7760330  21.1167110  31.5736400  54.6468280
  21.2202670  33.0397790  55.0095860  22.7812190  32.0981740  57.8305720
  22.1514930  31.3969050  57.9975850  22.2417330  32.8585870  57.6138880
  25.7204140  48.7120970  70.5016330  26.6471450  48.4765240  70.5452290
  25.7054570  49.5392970  70.0202360  33.9549200  48.2546540  57.4990580
  34.1301390  47.5684280  56.8551500  33.2570770  48.7793590  57.1067250
  22.9067750  31.3765720  70.2658210  22.6252020  31.8799320  69.5019030
  23.2887450  30.5787470  69.9000340  21.7976850  48.6441380  55.0525890
  22.5295670  48.3600660  54.5049780  22.0570520  48.4054660  55.9425270
  20.9591640  44.7606110  55.0572220  20.3300520  45.2291210  55.6058050
  21.0739470  43.9155330  55.4918410  29.5083210  30.7919300  70.8438680
  29.3948660  31.1113910  71.7390200  30.3252950  31.1931810  70.5475960
  32.2881700  47.9390830  70.3257370  33.0807020  47.4440060  70.1183330
  32.5814850  48.6180970  70.9332980  28.4141360  38.8111770  41.2073420
  28.3335410  37.8966380  40.9365130  28.0005780  39.3078840  40.5013130
  26.5459400  40.5890790  43.0882690  25.7701500  40.1091230  43.3781260
  27.1972330  39.9096440  42.9138850  20.5625230  40.9010600  43.9658450
  19.7310110  40.6459310  44.3654960  21.1706210  40.9721370  44.7016370
  30.5666830  44.9950980  41.8681820  30.1048360  44.2238220  42.1968990
  31.3792380  45.0217050  42.3734270  20.5426490  44.9350690  44.1616470
  20.8454530  44.0448430  43.9826690  21.2870080  45.4920910  43.9338720
  18.9717180  35.8612490  37.7500840  18.0833880  36.2028460  37.6480720
  19.2558370  35.6612810  36.8581670  16.9350190  38.4618140  43.6340540
  17.5066300  37.6940340  43.6344180  16.9351730  38.7606900  42.7247150
  26.7930140  47.2808990  41.4885810  26.1741580  47.7366490  40.9180250
  27.6481920  47.4360450  41.0875510  25.9868390  43.2647980  43.0952850
  25.9176670  42.3237920  42.9341980  26.7488250  43.3549390  43.6675420
  18.1775060  33.8702500  45.4209470  17.9977900  32.9728250  45.7012230
  17.7755140  34.4174370  46.0956420  27.0173560  36.0718360  43.3221780
  27.3938380  35.1990240  43.2095450  26.9193070  36.4077060  42.4312220
  21.1478570  34.4443990  38.7839220  21.2545320  35.3447720  39.0907980
  20.2370930  34.3961960  38.4933870  30.7997680  33.5668800  40.2550120
  31.6207300  33.0765370  40.2975600  30.8331760  34.1566460  41.0081960
  18.7961730  36.3663000  44.0291810  19.4771840  36.6301370  44.6479210
  18.4809780  35.5263870  44.3629820  22.9886300  37.4130360  43.1164400
  23.4964520  37.9111330  43.7569420  23.5199540  36.6365560  42.9403760
  35.0897230  35.5835550  46.8193750  34.3849400  35.9717260  46.3008860
  35.3555150  36.2785840  47.4214680  21.2722400  32.0528920  47.3827820
  21.2740840  32.5701310  46.5773720  20.4426710  31.5759100  47.3597750
  27.6593490  42.1648230  38.8817720  27.0410760  42.6297680  38.3180440
  28.1716740  42.8575710  39.2987230  22.5225250  41.6924100  45.5601320
  22.1894630  42.3193020  46.2022390  22.6991930  42.2185980  44.7802990
  31.0359160  35.5069180  43.0277660  30.3314730  35.7954070  43.6080770
  31.3971320  36.3169290  42.6677220  20.9537730  33.7638880  45.3898270
  21.2954540  34.6080930  45.0952140  20.0153540  33.9122620  45.5063610
  21.7344350  43.6604900  47.3750500  22.3518350  44.3355980  47.0934950
  20.8737470  44.0692880  47.2838000  17.0276690  42.8504760  36.2557350
  16.6504670  43.3391860  35.5242250  17.2849760  43.5230040  36.8863880
  32.6521940  45.1244310  45.2905140  31.9685460  45.7943420  45.2821810
  33.1916230  45.3224960  44.5250000  34.1046080  34.9523970  43.4186870
  33.1570990  34.9862950  43.5502300  34.4296070  35.7662920  43.8036230
  24.6365620  31.2521150  41.7142860  24.9440600  30.6968040  40.9978360
  23.7066320  31.3865610  41.5315850  30.1880680  46.9688440  44.0050320
  30.2007840  46.5650730  43.1372580  29.6355900  47.7435730  43.9011750
  31.4826100  43.6904660  39.0940490  31.3722430  42.7478990  39.2189910
  31.4794350  44.0520300  39.9803250  29.5866120  41.8718280  45.3332930
  30.0034910  41.6578390  44.4986390  30.3105940  42.1291070  45.9041550
  27.0246380  39.3169980  38.4502980  26.0975660  39.2507360  38.6791450
  27.1771200  40.2550110  38.3358220  27.0115460  35.5886980  35.4470140
  26.0719130  35.7500940  35.5322600  27.3298720  36.3072660  34.9006130
  33.5328220  40.2705500  45.4249170  32.7046850  40.3398590  44.9499300
  34.1278700  40.8559810  44.9565000  31.0543670  40.8790280  38.9538230
  30.4356090  40.5409830  38.3064530  31.0368120  40.2350040  39.6617420
  30.4970230  37.0574820  46.3704040  30.0841410  37.8828530  46.6244030
  29.7646180  36.4719860  46.1780400  22.6303020  39.8434720  41.2322710
  22.2260020  39.1311970  40.7368610  22.7166140  39.4987960  42.1210750
  23.0984720  43.5302280  43.3961920  22.8013010  42.9247750  42.7169700
  24.0484540  43.5679590  43.2851280  21.3431640  36.6177930  45.0121750
  21.8946230  36.7273270  44.2375000  21.8575150  36.9915530  45.7276980
  31.1870330  47.1034150  47.0585020  30.7100890  47.9106340  46.8657630
  30.5032120  46.4512480  47.2111230  22.1903150  43.2683970  50.0469720
  21.2931680  43.4923940  50.2943120  22.2156020  43.3918910  49.0981120
  29.2308370  40.1177090  35.9610980  29.6701650  39.2799520  35.8148800
  29.9436790  40.7506490  36.0475120  21.0174370  40.1397290  48.6227090
  20.8782140  41.0120090  48.9914490  20.1355730  39.7970100  48.4775030
  27.3403750  45.0573160  39.9292220  27.7799660  45.7997490  39.5147610
  27.2790640  45.2999730  40.8531180  22.8154720  46.0818990  50.8312240
  22.7870150  46.4861940  49.9640670  22.6519690  45.1529350  50.6683840
  32.8125510  31.3719900  34.2752020  32.4998170  31.4646730  35.1751090
  33.5737980  31.9500930  34.2249450  19.3307650  38.7379700  38.7329360
  19.2105250  39.4641790  38.1210630  19.0208540  37.9682610  38.2557270
  34.7669540  46.8646090  52.1276410  35.2429260  47.3428980  52.8065490
  35.3876700  46.7963580  51.4021910  16.9693020  41.9094840  44.5398000
  17.0473440  42.0443610  43.5953720  17.5834700  41.2010730  44.7326120
  18.2140650  43.6095030  40.9504180  17.8068730  43.7509620  40.0957780
  19.1053660  43.3255190  40.7475390  34.1702790  44.0558940  49.2876420
  34.2965850  43.8170820  48.3693600  34.2124170  43.2243480  49.7598500
  28.0319530  47.7586940  47.8571230  28.5464200  47.6694950  48.6593660
  27.1888610  48.1046640  48.1499140  30.0073930  48.0442280  37.2855230
  29.8475070  47.7545220  38.1837060  29.8420640  47.2682410  36.7500460
  22.4862310  47.8240810  39.0626850  22.3104790  46.9076350  38.8494650
  21.6318050  48.1828100  39.3024650  29.7100060  45.5529840  35.8453230
  29.0165220  45.5507130  35.1855510  30.4522920  45.1289160  35.4147400
  29.2749990  47.1792550  39.9201720  29.7306940  46.3981930  40.2340340
  29.6142510  47.8899370  40.4642900  34.0226800  36.1091400  50.2526160
  33.4071070  36.6171070  49.7241620  33.7023220  35.2089730  50.1952100
  17.0252540  42.9509010  47.0792460  17.1883580  42.4814370  46.2611830
  17.4904990  42.4432570  47.7441300  21.7971310  32.0814770  42.1153030
  21.3539460  32.8624310  41.7837550  22.3556300  32.4044660  42.8223970
  26.0841120  34.9483290  47.7188350  25.6220490  35.1566310  48.5308290
  25.6819230  34.1342640  47.4159020  31.0845630  36.1692240  48.8485010
  30.2339220  35.8697990  49.1694080  30.9247420  36.4134250  47.9368830
  28.1795340  37.6693990  50.9483800  28.5048750  36.8357740  50.6086030
  28.9675670  38.1922510  51.0962130  24.9130130  31.7025470  36.9958860
  24.2884310  31.6985340  37.7212170  24.8260250  30.8356430  36.5994830
  23.8347210  32.6262100  43.9742630  24.1319540  33.5324930  43.8934650
  24.3832770  32.1380880  43.3602200  21.5885530  37.2048340  39.8434280
  21.3626450  36.9885510  40.7480900  20.8078060  37.6376800  39.4980250
  28.8183290  37.2111710  38.4424930  28.2192180  37.9347510  38.2588550
  29.3662900  37.1488490  37.6601380  24.0284740  38.1033920  50.5094550
  23.9328340  37.1628650  50.3594950  24.8716720  38.3248990  50.1142620
  27.4248160  35.8475250  40.4728210  27.8177730  36.1647450  39.6596900
  27.7865010  34.9687130  40.5872730  19.1595280  34.5147590  48.6628330
  18.7658670  35.3622800  48.8701110  18.4713680  33.8773960  48.8536970
  25.7340330  34.5982560  51.7325070  25.0438650  34.4054760  52.3671160
  26.4772630  34.8817200  52.2649370  16.4612330  32.4376050  42.6958410
  16.1725380  33.0078910  43.4083390  17.2058090  31.9580500  43.0589640
  16.6482560  36.3796170  33.9061130  16.5657230  37.3226930  34.0476120
  16.2965620  36.2371080  33.0273480  28.0103300  38.4381000  44.5678990
  27.2784420  38.9467810  44.9169090  27.6127640  37.6210980  44.2667770
  24.4480690  35.1135200  42.9731480  24.4516750  34.6725150  42.1236020
  25.3431810  35.4352530  43.0803300  20.2983070  34.9961690  41.9325690
  19.9583120  35.4736920  42.6892740  19.5360390  34.5426810  41.5726790
  24.5100840  36.1147280  35.9638240  24.6313660  36.0733760  36.9124060
  24.1249350  36.9771430  35.8084970  28.4729210  33.8914680  43.9801930
  28.4901950  34.3423330  44.8243780  28.2244790  32.9920320  44.1935370
  23.5222340  38.4248420  35.3621540  22.9539240  37.9766670  34.7357450
  24.2311340  38.7841200  34.8286690  31.8999960  31.3046860  49.8188310
  32.2245730  30.5736520  50.3446290  31.9356470  30.9860500  48.9169300
  18.5991520  42.3260440  49.2388270  18.2146310  41.6854110  49.8371230
  18.9103710  43.0296560  49.8083000  24.7488660  39.1736980  44.7196890
  25.1158790  38.6995550  45.4658230  24.5593720  40.0478550  45.0605230
  17.6129150  33.9180670  40.8490360  17.3276070  33.5536340  41.6868980
  17.5508010  33.1861130  40.2353500  22.5388030  38.2145620  47.0381100
  22.2345100  39.0937600  47.2631460  23.4934490  38.2745410  47.0738540
  21.0669820  42.4206610  37.6347950  20.2932080  41.8804230  37.4746670
  21.7964450  41.9013220  37.2965710  31.8257800  41.4171970  43.4274340
  32.5456920  41.9127260  43.0370450  31.6239620  40.7389860  42.7828210
  27.2867740  32.8109930  37.5703730  26.4732350  32.3123100  37.4949040
  27.0929690  33.6508180  37.1540080  27.2076600  41.4881030  49.3143340
  27.1413910  40.5676700  49.0600930  26.5781740  41.5856470  50.0287980
  30.0016130  37.1829580  35.8665890  30.8895750  37.4946810  35.6917230
  29.9721220  36.3101830  35.4746470  21.1107220  42.0886990  41.2726760
  21.6285890  41.2855250  41.2183650  20.6591240  42.0266130  42.1143590
  25.9976720  43.3553270  36.5454060  26.3392420  44.0995500  36.0497380
  25.1689430  43.6684390  36.9078890  18.5951760  39.0548360  48.1852460
  18.2366700  39.7202210  48.7725800  18.3006320  38.2231910  48.5565080
  21.7964880  39.5132600  51.0692010  21.4965020  39.6589780  50.1719830
  22.5676120  38.9537890  50.9765400  27.1393330  44.3101600  49.0647140
  27.1537870  43.3782560  48.8466050  26.4318430  44.3961360  49.7036910
  32.2730400  38.4941420  35.3345750  32.1894120  38.9255640  34.4842190
  32.9924590  38.9539770  35.7672570  33.3504540  40.9508940  48.4115720
  32.6252730  41.5437720  48.2145110  33.8780000  40.9432480  47.6129090
  33.3017650  45.3483680  38.0627880  32.6593810  44.6939300  38.3371600
  32.9148310  45.7538770  37.2868550  28.8804130  42.6769110  41.9099570
  29.2327950  42.0797240  41.2500940  27.9966460  42.3513340  42.0807820
  24.9667410  43.4366800  39.3169980  25.6538540  43.9836010  39.6977570
  24.1799830  43.9807530  39.3519590  17.1059810  39.0539620  34.8087060
  17.9754660  39.3364420  35.0922980  16.6150130  39.8675490  34.6935870
  24.2694620  40.4412830  38.9295340  24.7257400  41.2518080  39.1555530
  23.9182830  40.1235970  39.7613830  26.5727230  45.9519170  46.1587640
  27.2169450  46.1578550  46.8361060  26.9356670  45.1907570  45.7058490
  20.1706400  30.7850480  39.4017860  20.0421030  30.7768380  40.3502780
  19.3468420  31.1233570  39.0508870  27.8459310  43.9551520  44.8765090
  28.4881540  43.2544680  44.9897260  28.3708660  44.7349960  44.6961980
  31.6915030  44.2400140  34.6004230  31.4652610  43.5230580  35.1928870
  31.3011230  43.9912580  33.7625980  29.6196930  44.7546420  48.0801150
  29.9553170  45.3413110  48.7579070  28.6997270  44.6239130  48.3098940
  17.4731060  48.2667000  35.3748690  17.8328700  48.8656340  34.7205960
  17.3323400  48.8126890  36.1483720  17.1700330  32.5441600  48.8624560
  16.4558850  32.7438520  49.4677170  17.5895370  31.7681170  49.2339360
  31.2731280  42.1572080  36.2618390  30.9852980  42.6184770  37.0496270
  32.0683450  41.6969850  36.5302610  17.4572920  46.5321860  49.8491090
  17.5664040  45.5916600  49.7086480  16.8053480  46.7976610  49.2004820
  25.4485510  44.8037750  51.2489210  25.1282380  44.0846990  51.7934900
  24.7743870  45.4792820  51.3225270  23.4899680  45.6498200  36.1922360
  23.4809780  46.3827890  35.5766870  22.5698040  45.4029780  36.2849320
  19.0906320  40.8713090  36.9369120  18.4834270  41.6111990  36.9464420
  19.5655670  40.9612450  36.1107320  28.6639110  35.0363910  46.6126010
  29.0319930  34.2159120  46.9405580  27.8037310  35.0965800  47.0281660
  32.0301140  33.9920850  37.4213570  31.4014300  34.0966520  36.7071800
  31.5353060  34.2117630  38.2107450  26.4759280  45.7126440  34.8547550
  26.5771260  45.5090430  33.9249530  25.5761020  45.4584720  35.0595330
  23.9985170  36.2706800  38.8371450  23.2901320  36.7393140  39.2785060
  24.2829650  35.6128810  39.4716640  25.6241100  37.6903500  46.8363980
  26.1226350  38.1649320  47.5015830  25.7664050  36.7667020  47.0434010
  28.0300600  32.9957460  40.2767240  27.9068380  33.0143590  39.3276750
  28.9785160  33.0436400  40.3965640  25.1177390  48.2312760  39.5495220
  25.3718890  48.1934150  38.6274590  24.1689870  48.1046090  39.5423470
  22.2020190  34.5791880  36.2122160  23.0510720  35.0162030  36.1462350
  21.8351460  34.8912140  37.0394220  32.8307960  33.9071460  47.6792370
  32.3281560  34.6476860  48.0186180  33.6464620  34.2955460  47.3629160
  31.1229970  39.1504640  41.1253730  30.1820110  39.1654870  41.3001420
  31.4374040  38.3640600  41.5714030  21.1011610  40.8324240  34.6857690
  21.8674880  40.7205600  35.2483120  21.1786300  40.1362210  34.0334460
  19.7958370  38.2649310  35.3690580  19.8761960  37.3176820  35.4807980
  20.6878120  38.5956190  35.4751240  33.1255550  46.3213490  42.8007990
  33.2502970  47.1444660  43.2731800  33.9921110  46.1104220  42.4532140
  20.5973080  48.4144700  42.4725120  21.3335560  47.8660160  42.7433690
  20.9814000  49.2800710  42.3331110  17.4818560  44.4818270  38.3466630
  16.5558340  44.7239410  38.3372040  17.9474990  45.3092530  38.2251380
  19.6031360  47.5990770  51.6610700  20.4044090  47.9202820  52.0746100
  19.0883180  47.2386350  52.3830610  23.7075390  47.5875010  34.2950690
  24.5004000  47.8763840  33.8432480  23.1879740  47.1567180  33.6163170
  28.4395990  43.7070640  51.6086110  27.8334150  43.7302240  50.8681860
  28.1350100  42.9753680  52.1453360  29.8696360  47.4350930  50.2195520
  30.8218110  47.3508950  50.1695760  29.7224580  48.0992640  50.8929310
  32.7605560  46.8145140  35.7187430  32.4747070  46.4010280  34.9041610
  32.5625110  47.7432850  35.5987950  17.3229170  40.0864230  50.6046750
  17.8268190  39.5071510  51.1762980  16.5836590  40.3704460  51.1423120
  24.2252790  42.8078420  34.1593040  24.1203430  42.1930770  34.8854420
  24.0577010  42.2844310  33.3756050  24.3767110  41.4935220  50.1382270
  23.6112780  42.0620220  50.0536940  24.5583070  41.2011430  49.2450500
  27.4655520  41.8698450  34.7635030  26.9165620  42.3167750  35.4077770
  28.0874780  41.3647700  35.2872700  31.5190460  43.2240550  50.6957290
  32.2599930  43.5616310  50.1924750  30.7563140  43.3932610  50.1427060
  19.3552250  38.2293820  51.4996820  19.3957590  37.9307690  52.4082050
  20.2097750  38.6301430  51.3404340  23.1330640  40.8289370  36.6600330
  23.5547060  40.6629240  37.5031720  23.2581480  40.0189600  36.1655470
  21.2958060  36.8085920  49.4671310  20.7654520  36.3176870  48.8394650
  21.9646130  37.2370120  48.9329240  25.6458280  39.8526980  33.9077430
  26.1663940  39.1376000  33.5418580  26.2926680  40.4912850  34.2077940
  30.1936120  41.2755380  49.2312500  30.6077140  41.4300460  50.0802920
  29.2587120  41.4010600  49.3938280  30.6658290  38.6151540  51.2351650
  31.2479060  37.8603860  51.1472130  30.8420060  39.1458980  50.4583130
  21.7830360  33.7748290  49.5468600  21.6887230  33.1569040  48.8219470
  21.2027750  34.5014580  49.3198510  24.5491800  32.3321530  46.5795990
  24.1009100  32.3545790  45.7341540  23.9157000  31.9340550  47.1766290
  24.9551350  41.2275860  47.2008430  25.3739460  42.0708590  47.0284670
  24.0359980  41.3647900  46.9715210  27.2915250  38.9592040  48.5846270
  27.4111460  38.3633180  49.3241110  28.1509250  38.9961730  48.1647570
  29.6303150  39.5129230  47.1608780  29.1038370  40.0371850  46.5573920
  29.9734490  40.1456620  47.7918510  22.0289540  36.9022600  33.6058490
  21.8278600  36.0389960  33.9671830  21.8581590  36.8155960  32.6680090
  22.8058770  47.5328870  48.3166160  22.2679860  48.2574930  47.9974860
  23.0592730  47.0559210  47.5263500  24.0584020  35.5013390  49.8422090
  24.6483710  35.1929240  50.5299910  23.2404260  35.0293140  49.9981990
  28.8777450  35.1179200  50.0755110  28.1892970  34.4560740  50.0105100
  29.5983470  34.6717470  50.5203570  29.5077850  31.7130830  36.1345370
  29.7880140  30.8698730  36.4904790  28.7343580  31.9453940  36.6484120
  20.8272340  34.0023220  33.5936370  21.1298240  34.0090650  32.6855520
  21.5666930  33.6521080  34.0904030  25.6620980  48.7680080  48.5752810
  25.5879680  49.6715220  48.8825180  24.7599820  48.4491980  48.5474880
  24.0457270  32.9457840  34.5792570  23.6979270  32.2681830  33.9995020
  24.2470040  32.4847350  35.3935960  26.2106310  47.9338590  36.1979170
  27.1057100  48.2723560  36.2197930  26.2423940  47.2118000  35.5703450
  19.8502470  43.3065640  34.4266170  20.2877340  43.8495310  35.0823750
  20.3350200  42.4812590  34.4362510  17.0648270  46.0954670  41.8786430
  17.3951280  45.2275730  41.6465070  17.4939270  46.3013190  42.7091390
  21.6610190  44.4263680  39.5388400  21.3605730  44.3028650  40.4392310
  21.5547680  43.5672270  39.1304130  17.5538480  46.9625260  44.6168060
  17.1169470  47.1426060  45.4492210  18.1216160  47.7199880  44.4749780
  33.1900660  46.4642260  48.9045370  32.5902650  46.5234820  48.1609290
  33.3194560  45.5247240  49.0342220  34.4302110  44.2060080  34.2415080
  33.5995070  44.2736730  34.7122310  34.6073940  45.0964200  33.9381940
  33.8858570  40.9507560  36.7449280  34.6477480  41.5204210  36.8508970
  33.9012940  40.3834760  37.5157590  17.3862910  39.4745490  40.9756940
  16.7311750  39.2057130  40.3316640  18.2240860  39.3649970  40.5258920
  34.8918540  41.8057660  41.5891210  35.2627370  41.0224980  41.1827180
  35.5320470  42.4946760  41.4108510  31.8752300  43.1894240  47.0021530
  31.0612140  43.6191400  47.2647320  32.2826500  43.8012650  46.3890580
  33.9377740  41.2441930  33.9021800  34.2126580  42.1520810  33.7741020
  33.7488480  41.1804460  34.8383790  30.3353350  34.2686780  35.1975430
  30.7538230  34.0817760  34.3572090  30.0289410  33.4165830  35.5078360
  33.8343080  39.1810920  38.8951230  33.4586680  38.4138850  38.4632520
  33.1046200  39.5633620  39.3826160  18.4238840  39.8598060  45.5160280
  18.7911880  39.7725460  46.3956300  17.8549660  39.0964610  45.4167140
  33.2242700  38.3282440  48.5290750  32.9928790  38.0995190  47.6288700
  33.4847250  39.2481990  48.4835640  17.9754840  36.7707150  49.4218700
  17.0810890  36.7373910  49.7612410  18.5152390  36.9693940  50.1869950
  31.6630770  33.5538870  51.3070450  32.5400950  33.5622270  51.6904450
  31.6751610  32.8169710  50.6962800  16.6000990  36.6844420  36.9182270
  15.6965070  36.9474620  36.7433930  17.0841610  36.9555590  36.1382230
  33.1094040  37.4068410  42.1958470  33.6331520  36.9131060  41.5648640
  33.6953460  37.5418770  42.9406040  33.2883760  37.4908280  45.7178020
  32.3386470  37.4571820  45.8323010  33.4696770  38.4008390  45.4827790
  19.1428200  35.7409960  34.8276650  19.8519900  35.3193180  34.3423930
  18.4268140  35.8085190  34.1960000  18.7902360  31.7949290  33.8679300
  19.5130490  32.3358230  34.1860520  19.0626880  31.5212710  32.9920840
  32.5994010  36.6641760  38.1350880  33.0953130  36.4312630  38.9199760
  32.4010080  35.8253600  37.7188520  18.4794550  31.0455480  43.7701920
  19.1270740  30.4952860  43.3297080  18.8996390  31.2998630  44.5917730
  34.0281170  35.3002710  40.6688560  33.9180450  35.1458750  41.6070830
  34.7888760  34.7723650  40.4263970  32.3746890  31.2396840  47.1271560
  33.0119110  31.8530980  47.4930750  32.5221780  31.2757500  46.1820790
  34.9171440  33.1310630  33.9094700  35.8420750  32.9991810  33.7012990
  34.8947230  33.2103450  34.8631150  34.9909930  33.9021290  36.5351410
  34.1961430  33.8366410  37.0644320  35.1953210  34.8371930  36.5236760
  31.9328350  47.9412840  40.5289800  32.5287420  47.6197410  39.8524220
  32.1906500  47.4684660  41.3203070  18.2326550  31.2011150  46.5127240
  17.8841370  31.6574970  47.2785420  17.9014250  30.3068280  46.5949670
  19.8390920  44.3730750  50.6780430  19.7960550  44.0023660  51.5594890
  19.9701930  45.3108320  50.8182250  23.5396950  45.9290340  46.2790150
  23.2988310  46.1964900  45.3920670  24.4799590  46.0996070  46.3341010
  25.7451370  32.3923030  50.0346660  25.6840260  32.9844860  50.7842070
  26.6851750  32.2848990  49.8896920  28.3825930  32.0493090  49.6738950
  28.9966340  32.3672380  49.0120030  28.9275490  31.5641680  50.2934810
  34.8001110  47.9484720  47.0800790  34.3059390  48.3453590  46.3627920
  34.1914400  47.3233930  47.4738070  18.9047190  30.7287350  49.7878010
  19.4530180  30.5475400  49.0244120  18.9702500  29.9381460  50.3234320
  19.6778950  47.3193000  47.7978210  19.0839270  47.1877700  48.5368250
  19.6702790  46.4831140  47.3320310  29.1233970  30.6125230  46.0008240
  28.2493810  30.9460340  45.7981170  29.0144720  30.1398410  46.8260110
  30.0305950  32.8196100  47.3849960  29.7019310  32.0047860  47.0051690
  30.9788250  32.7765910  47.2615650  32.4840560  48.5908140  44.3587530
  32.0243530  49.3423950  43.9845550  31.8553020  47.8714610  44.3002330
  19.3091180  44.6851380  46.7486250  18.5825240  44.0656670  46.6812200
  19.3700330  45.0791990  45.8784330  22.9136280  46.8996380  43.5335660
  23.4301300  46.2883740  43.0083920  23.5633660  47.4025160  44.0246670
  25.6531780  47.7904870  44.3604640  25.9409590  47.5359170  43.4837650
  26.1655000  47.2382230  44.9510210  26.8708790  31.5295070  44.9401150
  26.0880580  32.0040570  45.2197910  26.5771720  30.6249900  44.8314330
  31.4229860  32.2318170  42.9850240  31.8637950  32.1763270  42.1371840
  31.1537450  33.1476180  43.0560420  33.2868430  31.8633410  40.9959060
  33.2256830  30.9194630  40.8490080  34.0660460  31.9713500  41.5412520
  17.5921180  48.0025770  39.9583010  17.4243220  47.3696450  40.6564900
  16.7255690  48.2085170  39.6077200  18.2149200  31.8342550  37.4614870
  18.9728560  31.9471430  36.8878900  17.7526370  32.6711750  37.4158300
  24.7563010  33.9481820  40.4517180  23.9437520  33.5738710  40.1113060
  25.2604650  33.1926900  40.7538370  29.2587990  30.6124270  41.6900250
  29.8617360  31.1844480  42.1648770  28.5180980  31.1763710  41.4674150
  32.4022590  31.0145830  36.9640530  32.5973220  31.9129280  37.2307960
  31.6152460  30.7832910  37.4573480  19.1983880  46.6959000  37.4033150
  18.6731500  47.0767030  36.6995110  19.1228460  47.3209770  38.1242860
  20.5874350  32.3606600  36.0016840  21.1167110  31.5736400  35.8724790
  21.2202670  33.0397790  36.2352370  22.7812190  32.0981740  39.0562230
  22.1514930  31.3969050  39.2232360  22.2417330  32.8585870  38.8395390
  25.7204140  48.7120970  51.7272840  26.6471450  48.4765240  51.7708800
  25.7054570  49.5392970  51.2458870  33.9549200  48.2546540  38.7247090
  34.1301390  47.5684280  38.0808010  33.2570770  48.7793590  38.3323760
  22.9067750  31.3765720  51.4914720  22.6252020  31.8799320  50.7275540
  23.2887450  30.5787470  51.1256850  21.7976850  48.6441380  36.2782400
  22.5295670  48.3600660  35.7306290  22.0570520  48.4054660  37.1681780
  20.9591640  44.7606110  36.2828730  20.3300520  45.2291210  36.8314560
  21.0739470  43.9155330  36.7174920  29.5083210  30.7919300  52.0695190
  29.3948660  31.1113910  52.9646710  30.3252950  31.1931810  51.7732470
  32.2881700  47.9390830  51.5513880  33.0807020  47.4440060  51.3439840
  32.5814850  48.6180970  52.1589490  28.4141360  38.8111770  22.4329930
  28.3335410  37.8966380  22.1621640  28.0005780  39.3078840  21.7269640
  26.5459400  40.5890790  24.3139200  25.7701500  40.1091230  24.6037770
  27.1972330  39.9096440  24.1395360  20.5625230  40.9010600  25.1914960
  19.7310110  40.6459310  25.5911470  21.1706210  40.9721370  25.9272880
  30.5666830  44.9950980  23.0938330  30.1048360  44.2238220  23.4225500
  31.3792380  45.0217050  23.5990780  20.5426490  44.9350690  25.3872980
  20.8454530  44.0448430  25.2083200  21.2870080  45.4920910  25.1595230
  18.9717180  35.8612490  18.9757350  18.0833880  36.2028460  18.8737230
  19.2558370  35.6612810  18.0838180  16.9350190  38.4618140  24.8597050
  17.5066300  37.6940340  24.8600690  16.9351730  38.7606900  23.9503660
  26.7930140  47.2808990  22.7142320  26.1741580  47.7366490  22.1436760
  27.6481920  47.4360450  22.3132020  25.9868390  43.2647980  24.3209360
  25.9176670  42.3237920  24.1598490  26.7488250  43.3549390  24.8931930
  18.1775060  33.8702500  26.6465980  17.9977900  32.9728250  26.9268740
  17.7755140  34.4174370  27.3212930  27.0173560  36.0718360  24.5478290
  27.3938380  35.1990240  24.4351960  26.9193070  36.4077060  23.6568730
  21.1478570  34.4443990  20.0095730  21.2545320  35.3447720  20.3164490
  20.2370930  34.3961960  19.7190380  30.7997680  33.5668800  21.4806630
  31.6207300  33.0765370  21.5232110  30.8331760  34.1566460  22.2338470
  18.7961730  36.3663000  25.2548320  19.4771840  36.6301370  25.8735720
  18.4809780  35.5263870  25.5886330  22.9886300  37.4130360  24.3420910
  23.4964520  37.9111330  24.9825930  23.5199540  36.6365560  24.1660270
  35.0897230  35.5835550  28.0450260  34.3849400  35.9717260  27.5265370
  35.3555150  36.2785840  28.6471190  21.2722400  32.0528920  28.6084330
  21.2740840  32.5701310  27.8030230  20.4426710  31.5759100  28.5854260
  27.6593490  42.1648230  20.1074230  27.0410760  42.6297680  19.5436950
  28.1716740  42.8575710  20.5243740  22.5225250  41.6924100  26.7857830
  22.1894630  42.3193020  27.4278900  22.6991930  42.2185980  26.0059500
  31.0359160  35.5069180  24.2534170  30.3314730  35.7954070  24.8337280
  31.3971320  36.3169290  23.8933730  20.9537730  33.7638880  26.6154780
  21.2954540  34.6080930  26.3208650  20.0153540  33.9122620  26.7320120
  21.7344350  43.6604900  28.6007010  22.3518350  44.3355980  28.3191460
  20.8737470  44.0692880  28.5094510  17.0276690  42.8504760  17.4813860
  16.6504670  43.3391860  16.7498760  17.2849760  43.5230040  18.1120390
  32.6521940  45.1244310  26.5161650  31.9685460  45.7943420  26.5078320
  33.1916230  45.3224960  25.7506510  34.1046080  34.9523970  24.6443380
  33.1570990  34.9862950  24.7758810  34.4296070  35.7662920  25.0292740
  24.6365620  31.2521150  22.9399370  24.9440600  30.6968040  22.2234870
  23.7066320  31.3865610  22.7572360  30.1880680  46.9688440  25.2306830
  30.2007840  46.5650730  24.3629090  29.6355900  47.7435730  25.1268260
  31.4826100  43.6904660  20.3197000  31.3722430  42.7478990  20.4446420
  31.4794350  44.0520300  21.2059760  29.5866120  41.8718280  26.5589440
  30.0034910  41.6578390  25.7242900  30.3105940  42.1291070  27.1298060
  27.0246380  39.3169980  19.6759490  26.0975660  39.2507360  19.9047960
  27.1771200  40.2550110  19.5614730  27.0115460  35.5886980  16.6726650
  26.0719130  35.7500940  16.7579110  27.3298720  36.3072660  16.1262640
  33.5328220  40.2705500  26.6505680  32.7046850  40.3398590  26.1755810
  34.1278700  40.8559810  26.1821510  31.0543670  40.8790280  20.1794740
  30.4356090  40.5409830  19.5321040  31.0368120  40.2350040  20.8873930
  30.4970230  37.0574820  27.5960550  30.0841410  37.8828530  27.8500540
  29.7646180  36.4719860  27.4036910  22.6303020  39.8434720  22.4579220
  22.2260020  39.1311970  21.9625120  22.7166140  39.4987960  23.3467260
  23.0984720  43.5302280  24.6218430  22.8013010  42.9247750  23.9426210
  24.0484540  43.5679590  24.5107790  21.3431640  36.6177930  26.2378260
  21.8946230  36.7273270  25.4631510  21.8575150  36.9915530  26.9533490
  31.1870330  47.1034150  28.2841530  30.7100890  47.9106340  28.0914140
  30.5032120  46.4512480  28.4367740  22.1903150  43.2683970  31.2726230
  21.2931680  43.4923940  31.5199630  22.2156020  43.3918910  30.3237630
  29.2308370  40.1177090  17.1867490  29.6701650  39.2799520  17.0405310
  29.9436790  40.7506490  17.2731630  21.0174370  40.1397290  29.8483600
  20.8782140  41.0120090  30.2171000  20.1355730  39.7970100  29.7031540
  27.3403750  45.0573160  21.1548730  27.7799660  45.7997490  20.7404120
  27.2790640  45.2999730  22.0787690  22.8154720  46.0818990  32.0568750
  22.7870150  46.4861940  31.1897180  22.6519690  45.1529350  31.8940350
  32.8125510  31.3719900  15.5008530  32.4998170  31.4646730  16.4007600
  33.5737980  31.9500930  15.4505960  19.3307650  38.7379700  19.9585870
  19.2105250  39.4641790  19.3467140  19.0208540  37.9682610  19.4813780
  34.7669540  46.8646090  33.3532920  35.2429260  47.3428980  34.0322000
  35.3876700  46.7963580  32.6278420  16.9693020  41.9094840  25.7654510
  17.0473440  42.0443610  24.8210230  17.5834700  41.2010730  25.9582630
  18.2140650  43.6095030  22.1760690  17.8068730  43.7509620  21.3214290
  19.1053660  43.3255190  21.9731900  34.1702790  44.0558940  30.5132930
  34.2965850  43.8170820  29.5950110  34.2124170  43.2243480  30.9855010
  28.0319530  47.7586940  29.0827740  28.5464200  47.6694950  29.8850170
  27.1888610  48.1046640  29.3755650  30.0073930  48.0442280  18.5111740
  29.8475070  47.7545220  19.4093570  29.8420640  47.2682410  17.9756970
  22.4862310  47.8240810  20.2883360  22.3104790  46.9076350  20.0751160
  21.6318050  48.1828100  20.5281160  29.7100060  45.5529840  17.0709740
  29.0165220  45.5507130  16.4112020  30.4522920  45.1289160  16.6403910
  29.2749990  47.1792550  21.1458230  29.7306940  46.3981930  21.4596850
  29.6142510  47.8899370  21.6899410  34.0226800  36.1091400  31.4782670
  33.4071070  36.6171070  30.9498130  33.7023220  35.2089730  31.4208610
  17.0252540  42.9509010  28.3048970  17.1883580  42.4814370  27.4868340
  17.4904990  42.4432570  28.9697810  21.7971310  32.0814770  23.3409540
  21.3539460  32.8624310  23.0094060  22.3556300  32.4044660  24.0480480
  26.0841120  34.9483290  28.9444860  25.6220490  35.1566310  29.7564800
  25.6819230  34.1342640  28.6415530  31.0845630  36.1692240  30.0741520
  30.2339220  35.8697990  30.3950590  30.9247420  36.4134250  29.1625340
  28.1795340  37.6693990  32.1740310  28.5048750  36.8357740  31.8342540
  28.9675670  38.1922510  32.3218640  24.9130130  31.7025470  18.2215370
  24.2884310  31.6985340  18.9468680  24.8260250  30.8356430  17.8251340
  23.8347210  32.6262100  25.1999140  24.1319540  33.5324930  25.1191160
  24.3832770  32.1380880  24.5858710  21.5885530  37.2048340  21.0690790
  21.3626450  36.9885510  21.9737410  20.8078060  37.6376800  20.7236760
  28.8183290  37.2111710  19.6681440  28.2192180  37.9347510  19.4845060
  29.3662900  37.1488490  18.8857890  24.0284740  38.1033920  31.7351060
  23.9328340  37.1628650  31.5851460  24.8716720  38.3248990  31.3399130
  27.4248160  35.8475250  21.6984720  27.8177730  36.1647450  20.8853410
  27.7865010  34.9687130  21.8129240  19.1595280  34.5147590  29.8884840
  18.7658670  35.3622800  30.0957620  18.4713680  33.8773960  30.0793480
  25.7340330  34.5982560  32.9581580  25.0438650  34.4054760  33.5927670
  26.4772630  34.8817200  33.4905880  16.4612330  32.4376050  23.9214920
  16.1725380  33.0078910  24.6339900  17.2058090  31.9580500  24.2846150
  16.6482560  36.3796170  15.1317640  16.5657230  37.3226930  15.2732630
  16.2965620  36.2371080  14.2529990  28.0103300  38.4381000  25.7935500
  27.2784420  38.9467810  26.1425600  27.6127640  37.6210980  25.4924280
  24.4480690  35.1135200  24.1987990  24.4516750  34.6725150  23.3492530
  25.3431810  35.4352530  24.3059810  20.2983070  34.9961690  23.1582200
  19.9583120  35.4736920  23.9149250  19.5360390  34.5426810  22.7983300
  24.5100840  36.1147280  17.1894750  24.6313660  36.0733760  18.1380570
  24.1249350  36.9771430  17.0341480  28.4729210  33.8914680  25.2058440
  28.4901950  34.3423330  26.0500290  28.2244790  32.9920320  25.4191880
  23.5222340  38.4248420  16.5878050  22.9539240  37.9766670  15.9613960
  24.2311340  38.7841200  16.0543200  31.8999960  31.3046860  31.0444820
  32.2245730  30.5736520  31.5702800  31.9356470  30.9860500  30.1425810
  18.5991520  42.3260440  30.4644780  18.2146310  41.6854110  31.0627740
  18.9103710  43.0296560  31.0339510  24.7488660  39.1736980  25.9453400
  25.1158790  38.6995550  26.6914740  24.5593720  40.0478550  26.2861740
  17.6129150  33.9180670  22.0746870  17.3276070  33.5536340  22.9125490
  17.5508010  33.1861130  21.4610010  22.5388030  38.2145620  28.2637610
  22.2345100  39.0937600  28.4887970  23.4934490  38.2745410  28.2995050
  21.0669820  42.4206610  18.8604460  20.2932080  41.8804230  18.7003180
  21.7964450  41.9013220  18.5222220  31.8257800  41.4171970  24.6530850
  32.5456920  41.9127260  24.2626960  31.6239620  40.7389860  24.0084720
  27.2867740  32.8109930  18.7960240  26.4732350  32.3123100  18.7205550
  27.0929690  33.6508180  18.3796590  27.2076600  41.4881030  30.5399850
  27.1413910  40.5676700  30.2857440  26.5781740  41.5856470  31.2544490
  30.0016130  37.1829580  17.0922400  30.8895750  37.4946810  16.9173740
  29.9721220  36.3101830  16.7002980  21.1107220  42.0886990  22.4983270
  21.6285890  41.2855250  22.4440160  20.6591240  42.0266130  23.3400100
  25.9976720  43.3553270  17.7710570  26.3392420  44.0995500  17.2753890
  25.1689430  43.6684390  18.1335400  18.5951760  39.0548360  29.4108970
  18.2366700  39.7202210  29.9982310  18.3006320  38.2231910  29.7821590
  21.7964880  39.5132600  32.2948520  21.4965020  39.6589780  31.3976340
  22.5676120  38.9537890  32.2021910  27.1393330  44.3101600  30.2903650
  27.1537870  43.3782560  30.0722560  26.4318430  44.3961360  30.9293420
  32.2730400  38.4941420  16.5602260  32.1894120  38.9255640  15.7098700
  32.9924590  38.9539770  16.9929080  33.3504540  40.9508940  29.6372230
  32.6252730  41.5437720  29.4401620  33.8780000  40.9432480  28.8385600
  33.3017650  45.3483680  19.2884390  32.6593810  44.6939300  19.5628110
  32.9148310  45.7538770  18.5125060  28.8804130  42.6769110  23.1356080
  29.2327950  42.0797240  22.4757450  27.9966460  42.3513340  23.3064330
  24.9667410  43.4366800  20.5426490  25.6538540  43.9836010  20.9234080
  24.1799830  43.9807530  20.5776100  17.1059810  39.0539620  16.0343570
  17.9754660  39.3364420  16.3179490  16.6150130  39.8675490  15.9192380
  24.2694620  40.4412830  20.1551850  24.7257400  41.2518080  20.3812040
  23.9182830  40.1235970  20.9870340  26.5727230  45.9519170  27.3844150
  27.2169450  46.1578550  28.0617570  26.9356670  45.1907570  26.9315000
  20.1706400  30.7850480  20.6274370  20.0421030  30.7768380  21.5759290
  19.3468420  31.1233570  20.2765380  27.8459310  43.9551520  26.1021600
  28.4881540  43.2544680  26.2153770  28.3708660  44.7349960  25.9218490
  31.6915030  44.2400140  15.8260740  31.4652610  43.5230580  16.4185380
  31.3011230  43.9912580  14.9882490  29.6196930  44.7546420  29.3057660
  29.9553170  45.3413110  29.9835580  28.6997270  44.6239130  29.5355450
  17.4731060  48.2667000  16.6005200  17.8328700  48.8656340  15.9462470
  17.3323400  48.8126890  17.3740230  17.1700330  32.5441600  30.0881070
  16.4558850  32.7438520  30.6933680  17.5895370  31.7681170  30.4595870
  31.2731280  42.1572080  17.4874900  30.9852980  42.6184770  18.2752780
  32.0683450  41.6969850  17.7559120  17.4572920  46.5321860  31.0747600
  17.5664040  45.5916600  30.9342990  16.8053480  46.7976610  30.4261330
  25.4485510  44.8037750  32.4745720  25.1282380  44.0846990  33.0191410
  24.7743870  45.4792820  32.5481780  23.4899680  45.6498200  17.4178870
  23.4809780  46.3827890  16.8023380  22.5698040  45.4029780  17.5105830
  19.0906320  40.8713090  18.1625630  18.4834270  41.6111990  18.1720930
  19.5655670  40.9612450  17.3363830  28.6639110  35.0363910  27.8382520
  29.0319930  34.2159120  28.1662090  27.8037310  35.0965800  28.2538170
  32.0301140  33.9920850  18.6470080  31.4014300  34.0966520  17.9328310
  31.5353060  34.2117630  19.4363960  26.4759280  45.7126440  16.0804060
  26.5771260  45.5090430  15.1506040  25.5761020  45.4584720  16.2851840
  23.9985170  36.2706800  20.0627960  23.2901320  36.7393140  20.5041570
  24.2829650  35.6128810  20.6973150  25.6241100  37.6903500  28.0620490
  26.1226350  38.1649320  28.7272340  25.7664050  36.7667020  28.2690520
  28.0300600  32.9957460  21.5023750  27.9068380  33.0143590  20.5533260
  28.9785160  33.0436400  21.6222150  25.1177390  48.2312760  20.7751730
  25.3718890  48.1934150  19.8531100  24.1689870  48.1046090  20.7679980
  22.2020190  34.5791880  17.4378670  23.0510720  35.0162030  17.3718860
  21.8351460  34.8912140  18.2650730  32.8307960  33.9071460  28.9048880
  32.3281560  34.6476860  29.2442690  33.6464620  34.2955460  28.5885670
  31.1229970  39.1504640  22.3510240  30.1820110  39.1654870  22.5257930
  31.4374040  38.3640600  22.7970540  21.1011610  40.8324240  15.9114200
  21.8674880  40.7205600  16.4739630  21.1786300  40.1362210  15.2590970
  19.7958370  38.2649310  16.5947090  19.8761960  37.3176820  16.7064490
  20.6878120  38.5956190  16.7007750  33.1255550  46.3213490  24.0264500
  33.2502970  47.1444660  24.4988310  33.9921110  46.1104220  23.6788650
  20.5973080  48.4144700  23.6981630  21.3335560  47.8660160  23.9690200
  20.9814000  49.2800710  23.5587620  17.4818560  44.4818270  19.5723140
  16.5558340  44.7239410  19.5628550  17.9474990  45.3092530  19.4507890
  19.6031360  47.5990770  32.8867210  20.4044090  47.9202820  33.3002610
  19.0883180  47.2386350  33.6087120  23.7075390  47.5875010  15.5207200
  24.5004000  47.8763840  15.0688990  23.1879740  47.1567180  14.8419680
  28.4395990  43.7070640  32.8342620  27.8334150  43.7302240  32.0938370
  28.1350100  42.9753680  33.3709870  29.8696360  47.4350930  31.4452030
  30.8218110  47.3508950  31.3952270  29.7224580  48.0992640  32.1185820
  32.7605560  46.8145140  16.9443940  32.4747070  46.4010280  16.1298120
  32.5625110  47.7432850  16.8244460  17.3229170  40.0864230  31.8303260
  17.8268190  39.5071510  32.4019490  16.5836590  40.3704460  32.3679630
  24.2252790  42.8078420  15.3849550  24.1203430  42.1930770  16.1110930
  24.0577010  42.2844310  14.6012560  24.3767110  41.4935220  31.3638780
  23.6112780  42.0620220  31.2793450  24.5583070  41.2011430  30.4707010
  27.4655520  41.8698450  15.9891540  26.9165620  42.3167750  16.6334280
  28.0874780  41.3647700  16.5129210  31.5190460  43.2240550  31.9213800
  32.2599930  43.5616310  31.4181260  30.7563140  43.3932610  31.3683570
  19.3552250  38.2293820  32.7253330  19.3957590  37.9307690  33.6338560
  20.2097750  38.6301430  32.5660850  23.1330640  40.8289370  17.8856840
  23.5547060  40.6629240  18.7288230  23.2581480  40.0189600  17.3911980
  21.2958060  36.8085920  30.6927820  20.7654520  36.3176870  30.0651160
  21.9646130  37.2370120  30.1585750  25.6458280  39.8526980  15.1333940
  26.1663940  39.1376000  14.7675090  26.2926680  40.4912850  15.4334450
  30.1936120  41.2755380  30.4569010  30.6077140  41.4300460  31.3059430
  29.2587120  41.4010600  30.6194790  30.6658290  38.6151540  32.4608160
  31.2479060  37.8603860  32.3728640  30.8420060  39.1458980  31.6839640
  21.7830360  33.7748290  30.7725110  21.6887230  33.1569040  30.0475980
  21.2027750  34.5014580  30.5455020  24.5491800  32.3321530  27.8052500
  24.1009100  32.3545790  26.9598050  23.9157000  31.9340550  28.4022800
  24.9551350  41.2275860  28.4264940  25.3739460  42.0708590  28.2541180
  24.0359980  41.3647900  28.1971720  27.2915250  38.9592040  29.8102780
  27.4111460  38.3633180  30.5497620  28.1509250  38.9961730  29.3904080
  29.6303150  39.5129230  28.3865290  29.1038370  40.0371850  27.7830430
  29.9734490  40.1456620  29.0175020  22.0289540  36.9022600  14.8315000
  21.8278600  36.0389960  15.1928340  21.8581590  36.8155960  13.8936600
  22.8058770  47.5328870  29.5422670  22.2679860  48.2574930  29.2231370
  23.0592730  47.0559210  28.7520010  24.0584020  35.5013390  31.0678600
  24.6483710  35.1929240  31.7556420  23.2404260  35.0293140  31.2238500
  28.8777450  35.1179200  31.3011620  28.1892970  34.4560740  31.2361610
  29.5983470  34.6717470  31.7460080  29.5077850  31.7130830  17.3601880
  29.7880140  30.8698730  17.7161300  28.7343580  31.9453940  17.8740630
  20.8272340  34.0023220  14.8192880  21.1298240  34.0090650  13.9112030
  21.5666930  33.6521080  15.3160540  25.6620980  48.7680080  29.8009320
  25.5879680  49.6715220  30.1081690  24.7599820  48.4491980  29.7731390
  24.0457270  32.9457840  15.8049080  23.6979270  32.2681830  15.2251530
  24.2470040  32.4847350  16.6192470  26.2106310  47.9338590  17.4235680
  27.1057100  48.2723560  17.4454440  26.2423940  47.2118000  16.7959960
  19.8502470  43.3065640  15.6522680  20.2877340  43.8495310  16.3080260
  20.3350200  42.4812590  15.6619020  17.0648270  46.0954670  23.1042940
  17.3951280  45.2275730  22.8721580  17.4939270  46.3013190  23.9347900
  21.6610190  44.4263680  20.7644910  21.3605730  44.3028650  21.6648820
  21.5547680  43.5672270  20.3560640  17.5538480  46.9625260  25.8424570
  17.1169470  47.1426060  26.6748720  18.1216160  47.7199880  25.7006290
  33.1900660  46.4642260  30.1301880  32.5902650  46.5234820  29.3865800
  33.3194560  45.5247240  30.2598730  34.4302110  44.2060080  15.4671590
  33.5995070  44.2736730  15.9378820  34.6073940  45.0964200  15.1638450
  33.8858570  40.9507560  17.9705790  34.6477480  41.5204210  18.0765480
  33.9012940  40.3834760  18.7414100  17.3862910  39.4745490  22.2013450
  16.7311750  39.2057130  21.5573150  18.2240860  39.3649970  21.7515430
  34.8918540  41.8057660  22.8147720  35.2627370  41.0224980  22.4083690
  35.5320470  42.4946760  22.6365020  31.8752300  43.1894240  28.2278040
  31.0612140  43.6191400  28.4903830  32.2826500  43.8012650  27.6147090
  33.9377740  41.2441930  15.1278310  34.2126580  42.1520810  14.9997530
  33.7488480  41.1804460  16.0640300  30.3353350  34.2686780  16.4231940
  30.7538230  34.0817760  15.5828600  30.0289410  33.4165830  16.7334870
  33.8343080  39.1810920  20.1207740  33.4586680  38.4138850  19.6889030
  33.1046200  39.5633620  20.6082670  18.4238840  39.8598060  26.7416790
  18.7911880  39.7725460  27.6212810  17.8549660  39.0964610  26.6423650
  33.2242700  38.3282440  29.7547260  32.9928790  38.0995190  28.8545210
  33.4847250  39.2481990  29.7092150  17.9754840  36.7707150  30.6475210
  17.0810890  36.7373910  30.9868920  18.5152390  36.9693940  31.4126460
  31.6630770  33.5538870  32.5326960  32.5400950  33.5622270  32.9160960
  31.6751610  32.8169710  31.9219310  16.6000990  36.6844420  18.1438780
  15.6965070  36.9474620  17.9690440  17.0841610  36.9555590  17.3638740
  33.1094040  37.4068410  23.4214980  33.6331520  36.9131060  22.7905150
  33.6953460  37.5418770  24.1662550  33.2883760  37.4908280  26.9434530
  32.3386470  37.4571820  27.0579520  33.4696770  38.4008390  26.7084300
  19.1428200  35.7409960  16.0533160  19.8519900  35.3193180  15.5680440
  18.4268140  35.8085190  15.4216510  18.7902360  31.7949290  15.0935810
  19.5130490  32.3358230  15.4117030  19.0626880  31.5212710  14.2177350
  32.5994010  36.6641760  19.3607390  33.0953130  36.4312630  20.1456270
  32.4010080  35.8253600  18.9445030  18.4794550  31.0455480  24.9958430
  19.1270740  30.4952860  24.5553590  18.8996390  31.2998630  25.8174240
  34.0281170  35.3002710  21.8945070  33.9180450  35.1458750  22.8327340
  34.7888760  34.7723650  21.6520480  32.3746890  31.2396840  28.3528070
  33.0119110  31.8530980  28.7187260  32.5221780  31.2757500  27.4077300
  34.9171440  33.1310630  15.1351210  35.8420750  32.9991810  14.9269500
  34.8947230  33.2103450  16.0887660  34.9909930  33.9021290  17.7607920
  34.1961430  33.8366410  18.2900830  35.1953210  34.8371930  17.7493270
  31.9328350  47.9412840  21.7546310  32.5287420  47.6197410  21.0780730
  32.1906500  47.4684660  22.5459580  18.2326550  31.2011150  27.7383750
  17.8841370  31.6574970  28.5041930  17.9014250  30.3068280  27.8206180
  19.8390920  44.3730750  31.9036940  19.7960550  44.0023660  32.7851400
  19.9701930  45.3108320  32.0438760  23.5396950  45.9290340  27.5046660
  23.2988310  46.1964900  26.6177180  24.4799590  46.0996070  27.5597520
  25.7451370  32.3923030  31.2603170  25.6840260  32.9844860  32.0098580
  26.6851750  32.2848990  31.1153430  28.3825930  32.0493090  30.8995460
  28.9966340  32.3672380  30.2376540  28.9275490  31.5641680  31.5191320
  34.8001110  47.9484720  28.3057300  34.3059390  48.3453590  27.5884430
  34.1914400  47.3233930  28.6994580  18.9047190  30.7287350  31.0134520
  19.4530180  30.5475400  30.2500630  18.9702500  29.9381460  31.5490830
  19.6778950  47.3193000  29.0234720  19.0839270  47.1877700  29.7624760
  19.6702790  46.4831140  28.5576820  29.1233970  30.6125230  27.2264750
  28.2493810  30.9460340  27.0237680  29.0144720  30.1398410  28.0516620
  30.0305950  32.8196100  28.6106470  29.7019310  32.0047860  28.2308200
  30.9788250  32.7765910  28.4872160  32.4840560  48.5908140  25.5844040
  32.0243530  49.3423950  25.2102060  31.8553020  47.8714610  25.5258840
  19.3091180  44.6851380  27.9742760  18.5825240  44.0656670  27.9068710
  19.3700330  45.0791990  27.1040840  22.9136280  46.8996380  24.7592170
  23.4301300  46.2883740  24.2340430  23.5633660  47.4025160  25.2503180
  25.6531780  47.7904870  25.5861150  25.9409590  47.5359170  24.7094160
  26.1655000  47.2382230  26.1766720  26.8708790  31.5295070  26.1657660
  26.0880580  32.0040570  26.4454420  26.5771720  30.6249900  26.0570840
  31.4229860  32.2318170  24.2106750  31.8637950  32.1763270  23.3628350
  31.1537450  33.1476180  24.2816930  33.2868430  31.8633410  22.2215570
  33.2256830  30.9194630  22.0746590  34.0660460  31.9713500  22.7669030
  17.5921180  48.0025770  21.1839520  17.4243220  47.3696450  21.8821410
  16.7255690  48.2085170  20.8333710  18.2149200  31.8342550  18.6871380
  18.9728560  31.9471430  18.1135410  17.7526370  32.6711750  18.6414810
  24.7563010  33.9481820  21.6773690  23.9437520  33.5738710  21.3369570
  25.2604650  33.1926900  21.9794880  29.2587990  30.6124270  22.9156760
  29.8617360  31.1844480  23.3905280  28.5180980  31.1763710  22.6930660
  32.4022590  31.0145830  18.1897040  32.5973220  31.9129280  18.4564470
  31.6152460  30.7832910  18.6829990  19.1983880  46.6959000  18.6289660
  18.6731500  47.0767030  17.9251620  19.1228460  47.3209770  19.3499370
  20.5874350  32.3606600  17.2273350  21.1167110  31.5736400  17.0981300
  21.2202670  33.0397790  17.4608880  22.7812190  32.0981740  20.2818740
  22.1514930  31.3969050  20.4488870  22.2417330  32.8585870  20.0651900
  25.7204140  48.7120970  32.9529350  26.6471450  48.4765240  32.9965310
  25.7054570  49.5392970  32.4715380  33.9549200  48.2546540  19.9503600
  34.1301390  47.5684280  19.3064520  33.2570770  48.7793590  19.5580270
  22.9067750  31.3765720  32.7171230  22.6252020  31.8799320  31.9532050
  23.2887450  30.5787470  32.3513360  21.7976850  48.6441380  17.5038910
  22.5295670  48.3600660  16.9562800  22.0570520  48.4054660  18.3938290
  20.9591640  44.7606110  17.5085240  20.3300520  45.2291210  18.0571070
  21.0739470  43.9155330  17.9431430  29.5083210  30.7919300  33.2951700
  29.3948660  31.1113910  34.1903220  30.3252950  31.1931810  32.9988980
  32.2881700  47.9390830  32.7770390  33.0807020  47.4440060  32.5696350
  32.5814850  48.6180970  33.3846000  28.4141360  38.8111770   3.6586440
  28.3335410  37.8966380   3.3878150  28.0005780  39.3078840   2.9526150
  26.5459400  40.5890790   5.5395710  25.7701500  40.1091230   5.8294280
  27.1972330  39.9096440   5.3651870  20.5625230  40.9010600   6.4171470
  19.7310110  40.6459310   6.8167980  21.1706210  40.9721370   7.1529390
  30.5666830  44.9950980   4.3194840  30.1048360  44.2238220   4.6482010
  31.3792380  45.0217050   4.8247290  20.5426490  44.9350690   6.6129490
  20.8454530  44.0448430   6.4339710  21.2870080  45.4920910   6.3851740
  16.9350190  38.4618140   6.0853560  17.5066300  37.6940340   6.0857200
  16.9351730  38.7606900   5.1760170  26.7930140  47.2808990   3.9398830
  26.1741580  47.7366490   3.3693270  27.6481920  47.4360450   3.5388530
  25.9868390  43.2647980   5.5465870  25.9176670  42.3237920   5.3855000
  26.7488250  43.3549390   6.1188440  18.1775060  33.8702500   7.8722490
  17.9977900  32.9728250   8.1525250  17.7755140  34.4174370   8.5469440
  27.0173560  36.0718360   5.7734800  27.3938380  35.1990240   5.6608470
  26.9193070  36.4077060   4.8825240  30.7997680  33.5668800   2.7063140
  31.6207300  33.0765370   2.7488620  30.8331760  34.1566460   3.4594980
  18.7961730  36.3663000   6.4804830  19.4771840  36.6301370   7.0992230
  18.4809780  35.5263870   6.8142840  22.9886300  37.4130360   5.5677420
  23.4964520  37.9111330   6.2082440  23.5199540  36.6365560   5.3916780
  35.0897230  35.5835550   9.2706770  34.3849400  35.9717260   8.7521880
  35.3555150  36.2785840   9.8727700  21.2722400  32.0528920   9.8340840
  21.2740840  32.5701310   9.0286740  20.4426710  31.5759100   9.8110770
  22.5225250  41.6924100   8.0114340  22.1894630  42.3193020   8.6535410
  22.6991930  42.2185980   7.2316010  31.0359160  35.5069180   5.4790680
  30.3314730  35.7954070   6.0593790  31.3971320  36.3169290   5.1190240
  20.9537730  33.7638880   7.8411290  21.2954540  34.6080930   7.5465160
  20.0153540  33.9122620   7.9576630  21.7344350  43.6604900   9.8263520
  22.3518350  44.3355980   9.5447970  20.8737470  44.0692880   9.7351020
  32.6521940  45.1244310   7.7418160  31.9685460  45.7943420   7.7334830
  33.1916230  45.3224960   6.9763020  34.1046080  34.9523970   5.8699890
  33.1570990  34.9862950   6.0015320  34.4296070  35.7662920   6.2549250
  24.6365620  31.2521150   4.1655880  24.9440600  30.6968040   3.4491380
  23.7066320  31.3865610   3.9828870  30.1880680  46.9688440   6.4563340
  30.2007840  46.5650730   5.5885600  29.6355900  47.7435730   6.3524770
  29.5866120  41.8718280   7.7845950  30.0034910  41.6578390   6.9499410
  30.3105940  42.1291070   8.3554570  33.5328220  40.2705500   7.8762190
  32.7046850  40.3398590   7.4012320  34.1278700  40.8559810   7.4078020
  30.4970230  37.0574820   8.8217060  30.0841410  37.8828530   9.0757050
  29.7646180  36.4719860   8.6293420  22.6303020  39.8434720   3.6835730
  22.2260020  39.1311970   3.1881630  22.7166140  39.4987960   4.5723770
  23.0984720  43.5302280   5.8474940  22.8013010  42.9247750   5.1682720
  24.0484540  43.5679590   5.7364300  21.3431640  36.6177930   7.4634770
  21.8946230  36.7273270   6.6888020  21.8575150  36.9915530   8.1790000
  31.1870330  47.1034150   9.5098040  30.7100890  47.9106340   9.3170650
  30.5032120  46.4512480   9.6624250  22.1903150  43.2683970  12.4982740
  21.2931680  43.4923940  12.7456140  22.2156020  43.3918910  11.5494140
  21.0174370  40.1397290  11.0740110  20.8782140  41.0120090  11.4427510
  20.1355730  39.7970100  10.9288050  27.3403750  45.0573160   2.3805240
  27.7799660  45.7997490   1.9660630  27.2790640  45.2999730   3.3044200
  22.8154720  46.0818990  13.2825260  22.7870150  46.4861940  12.4153690
  22.6519690  45.1529350  13.1196860  34.7669540  46.8646090  14.5789430
  35.2429260  47.3428980  15.2578510  35.3876700  46.7963580  13.8534930
  16.9693020  41.9094840   6.9911020  17.0473440  42.0443610   6.0466740
  17.5834700  41.2010730   7.1839140  18.2140650  43.6095030   3.4017200
  17.8068730  43.7509620   2.5470800  19.1053660  43.3255190   3.1988410
  34.1702790  44.0558940  11.7389440  34.2965850  43.8170820  10.8206620
  34.2124170  43.2243480  12.2111520  28.0319530  47.7586940  10.3084250
  28.5464200  47.6694950  11.1106680  27.1888610  48.1046640  10.6012160
  29.2749990  47.1792550   2.3714740  29.7306940  46.3981930   2.6853360
  29.6142510  47.8899370   2.9155920  34.0226800  36.1091400  12.7039180
  33.4071070  36.6171070  12.1754640  33.7023220  35.2089730  12.6465120
  17.0252540  42.9509010   9.5305480  17.1883580  42.4814370   8.7124850
  17.4904990  42.4432570  10.1954320  21.7971310  32.0814770   4.5666050
  21.3539460  32.8624310   4.2350570  22.3556300  32.4044660   5.2736990
  26.0841120  34.9483290  10.1701370  25.6220490  35.1566310  10.9821310
  25.6819230  34.1342640   9.8672040  31.0845630  36.1692240  11.2998030
  30.2339220  35.8697990  11.6207100  30.9247420  36.4134250  10.3881850
  28.1795340  37.6693990  13.3996820  28.5048750  36.8357740  13.0599050
  28.9675670  38.1922510  13.5475150  23.8347210  32.6262100   6.4255650
  24.1319540  33.5324930   6.3447670  24.3832770  32.1380880   5.8115220
  21.5885530  37.2048340   2.2947300  21.3626450  36.9885510   3.1993920
  20.8078060  37.6376800   1.9493270  24.0284740  38.1033920  12.9607570
  23.9328340  37.1628650  12.8107970  24.8716720  38.3248990  12.5655640
  27.4248160  35.8475250   2.9241230  27.8177730  36.1647450   2.1109920
  27.7865010  34.9687130   3.0385750  19.1595280  34.5147590  11.1141350
  18.7658670  35.3622800  11.3214130  18.4713680  33.8773960  11.3049990
  25.7340330  34.5982560  14.1838090  25.0438650  34.4054760  14.8184180
  26.4772630  34.8817200  14.7162390  16.4612330  32.4376050   5.1471430
  16.1725380  33.0078910   5.8596410  17.2058090  31.9580500   5.5102660
  28.0103300  38.4381000   7.0192010  27.2784420  38.9467810   7.3682110
  27.6127640  37.6210980   6.7180790  24.4480690  35.1135200   5.4244500
  24.4516750  34.6725150   4.5749040  25.3431810  35.4352530   5.5316320
  20.2983070  34.9961690   4.3838710  19.9583120  35.4736920   5.1405760
  19.5360390  34.5426810   4.0239810  28.4729210  33.8914680   6.4314950
  28.4901950  34.3423330   7.2756800  28.2244790  32.9920320   6.6448390
  31.8999960  31.3046860  12.2701330  32.2245730  30.5736520  12.7959310
  31.9356470  30.9860500  11.3682320  18.5991520  42.3260440  11.6901290
  18.2146310  41.6854110  12.2884250  18.9103710  43.0296560  12.2596020
  24.7488660  39.1736980   7.1709910  25.1158790  38.6995550   7.9171250
  24.5593720  40.0478550   7.5118250  17.6129150  33.9180670   3.3003380
  17.3276070  33.5536340   4.1382000  17.5508010  33.1861130   2.6866520
  22.5388030  38.2145620   9.4894120  22.2345100  39.0937600   9.7144480
  23.4934490  38.2745410   9.5251560  31.8257800  41.4171970   5.8787360
  32.5456920  41.9127260   5.4883470  31.6239620  40.7389860   5.2341230
  27.2076600  41.4881030  11.7656360  27.1413910  40.5676700  11.5113950
  26.5781740  41.5856470  12.4801000  21.1107220  42.0886990   3.7239780
  21.6285890  41.2855250   3.6696670  20.6591240  42.0266130   4.5656610
  18.5951760  39.0548360  10.6365480  18.2366700  39.7202210  11.2238820
  18.3006320  38.2231910  11.0078100  21.7964880  39.5132600  13.5205030
  21.4965020  39.6589780  12.6232850  22.5676120  38.9537890  13.4278420
  27.1393330  44.3101600  11.5160160  27.1537870  43.3782560  11.2979070
  26.4318430  44.3961360  12.1549930  33.3504540  40.9508940  10.8628740
  32.6252730  41.5437720  10.6658130  33.8780000  40.9432480  10.0642110
  28.8804130  42.6769110   4.3612590  29.2327950  42.0797240   3.7013960
  27.9966460  42.3513340   4.5320840  24.9667410  43.4366800   1.7683000
  25.6538540  43.9836010   2.1490590  24.1799830  43.9807530   1.8032610
  26.5727230  45.9519170   8.6100660  27.2169450  46.1578550   9.2874080
  26.9356670  45.1907570   8.1571510  27.8459310  43.9551520   7.3278110
  28.4881540  43.2544680   7.4410280  28.3708660  44.7349960   7.1475000
  29.6196930  44.7546420  10.5314170  29.9553170  45.3413110  11.2092090
  28.6997270  44.6239130  10.7611960  17.1700330  32.5441600  11.3137580
  16.4558850  32.7438520  11.9190190  17.5895370  31.7681170  11.6852380
  17.4572920  46.5321860  12.3004110  17.5664040  45.5916600  12.1599500
  16.8053480  46.7976610  11.6517840  25.4485510  44.8037750  13.7002230
  25.1282380  44.0846990  14.2447920  24.7743870  45.4792820  13.7738290
  28.6639110  35.0363910   9.0639030  29.0319930  34.2159120   9.3918600
  27.8037310  35.0965800   9.4794680  25.6241100  37.6903500   9.2877000
  26.1226350  38.1649320   9.9528850  25.7664050  36.7667020   9.4947030
  28.0300600  32.9957460   2.7280260  27.9068380  33.0143590   1.7789770
  28.9785160  33.0436400   2.8478660  32.8307960  33.9071460  10.1305390
  32.3281560  34.6476860  10.4699200  33.6464620  34.2955460   9.8142180
  31.1229970  39.1504640   3.5766750  30.1820110  39.1654870   3.7514440
  31.4374040  38.3640600   4.0227050  33.1255550  46.3213490   5.2521010
  33.2502970  47.1444660   5.7244820  33.9921110  46.1104220   4.9045160
  20.5973080  48.4144700   4.9238140  21.3335560  47.8660160   5.1946710
  20.9814000  49.2800710   4.7844130  19.6031360  47.5990770  14.1123720
  20.4044090  47.9202820  14.5259120  19.0883180  47.2386350  14.8343630
  28.4395990  43.7070640  14.0599130  27.8334150  43.7302240  13.3194880
  28.1350100  42.9753680  14.5966380  29.8696360  47.4350930  12.6708540
  30.8218110  47.3508950  12.6208780  29.7224580  48.0992640  13.3442330
  17.3229170  40.0864230  13.0559770  17.8268190  39.5071510  13.6276000
  16.5836590  40.3704460  13.5936140  24.3767110  41.4935220  12.5895290
  23.6112780  42.0620220  12.5049960  24.5583070  41.2011430  11.6963520
  31.5190460  43.2240550  13.1470310  32.2599930  43.5616310  12.6437770
  30.7563140  43.3932610  12.5940080  19.3552250  38.2293820  13.9509840
  19.3957590  37.9307690  14.8595070  20.2097750  38.6301430  13.7917360
  21.2958060  36.8085920  11.9184330  20.7654520  36.3176870  11.2907670
  21.9646130  37.2370120  11.3842260  30.1936120  41.2755380  11.6825520
  30.6077140  41.4300460  12.5315940  29.2587120  41.4010600  11.8451300
  30.6658290  38.6151540  13.6864670  31.2479060  37.8603860  13.5985150
  30.8420060  39.1458980  12.9096150  21.7830360  33.7748290  11.9981620
  21.6887230  33.1569040  11.2732490  21.2027750  34.5014580  11.7711530
  24.5491800  32.3321530   9.0309010  24.1009100  32.3545790   8.1854560
  23.9157000  31.9340550   9.6279310  24.9551350  41.2275860   9.6521450
  25.3739460  42.0708590   9.4797690  24.0359980  41.3647900   9.4228230
  27.2915250  38.9592040  11.0359290  27.4111460  38.3633180  11.7754130
  28.1509250  38.9961730  10.6160590  29.6303150  39.5129230   9.6121800
  29.1038370  40.0371850   9.0086940  29.9734490  40.1456620  10.2431530
  22.8058770  47.5328870  10.7679180  22.2679860  48.2574930  10.4487880
  23.0592730  47.0559210   9.9776520  24.0584020  35.5013390  12.2935110
  24.6483710  35.1929240  12.9812930  23.2404260  35.0293140  12.4495010
  28.8777450  35.1179200  12.5268130  28.1892970  34.4560740  12.4618120
  29.5983470  34.6717470  12.9716590  25.6620980  48.7680080  11.0265830
  25.5879680  49.6715220  11.3338200  24.7599820  48.4491980  10.9987900
  17.0648270  46.0954670   4.3299450  17.3951280  45.2275730   4.0978090
  17.4939270  46.3013190   5.1604410  17.5538480  46.9625260   7.0681080
  17.1169470  47.1426060   7.9005230  18.1216160  47.7199880   6.9262800
  33.1900660  46.4642260  11.3558390  32.5902650  46.5234820  10.6122310
  33.3194560  45.5247240  11.4855240  17.3862910  39.4745490   3.4269960
  16.7311750  39.2057130   2.7829660  18.2240860  39.3649970   2.9771940
  34.8918540  41.8057660   4.0404230  35.2627370  41.0224980   3.6340200
  35.5320470  42.4946760   3.8621530  31.8752300  43.1894240   9.4534550
  31.0612140  43.6191400   9.7160340  32.2826500  43.8012650   8.8403600
  18.4238840  39.8598060   7.9673300  18.7911880  39.7725460   8.8469320
  17.8549660  39.0964610   7.8680160  33.2242700  38.3282440  10.9803770
  32.9928790  38.0995190  10.0801720  33.4847250  39.2481990  10.9348660
  17.9754840  36.7707150  11.8731720  17.0810890  36.7373910  12.2125430
  18.5152390  36.9693940  12.6382970  31.6630770  33.5538870  13.7583470
  32.5400950  33.5622270  14.1417470  31.6751610  32.8169710  13.1475820
  33.1094040  37.4068410   4.6471490  33.6331520  36.9131060   4.0161660
  33.6953460  37.5418770   5.3919060  33.2883760  37.4908280   8.1691040
  32.3386470  37.4571820   8.2836030  33.4696770  38.4008390   7.9340810
  18.4794550  31.0455480   6.2214940  19.1270740  30.4952860   5.7810100
  18.8996390  31.2998630   7.0430750  34.0281170  35.3002710   3.1201580
  33.9180450  35.1458750   4.0583850  34.7888760  34.7723650   2.8776990
  32.3746890  31.2396840   9.5784580  33.0119110  31.8530980   9.9443770
  32.5221780  31.2757500   8.6333810  31.9328350  47.9412840   2.9802820
  32.5287420  47.6197410   2.3037240  32.1906500  47.4684660   3.7716090
  18.2326550  31.2011150   8.9640260  17.8841370  31.6574970   9.7298440
  17.9014250  30.3068280   9.0462690  19.8390920  44.3730750  13.1293450
  19.7960550  44.0023660  14.0107910  19.9701930  45.3108320  13.2695270
  23.5396950  45.9290340   8.7303170  23.2988310  46.1964900   7.8433690
  24.4799590  46.0996070   8.7854030  25.7451370  32.3923030  12.4859680
  25.6840260  32.9844860  13.2355090  26.6851750  32.2848990  12.3409940
  28.3825930  32.0493090  12.1251970  28.9966340  32.3672380  11.4633050
  28.9275490  31.5641680  12.7447830  34.8001110  47.9484720   9.5313810
  34.3059390  48.3453590   8.8140940  34.1914400  47.3233930   9.9251090
  18.9047190  30.7287350  12.2391030  19.4530180  30.5475400  11.4757140
  18.9702500  29.9381460  12.7747340  19.6778950  47.3193000  10.2491230
  19.0839270  47.1877700  10.9881270  19.6702790  46.4831140   9.7833330
  29.1233970  30.6125230   8.4521260  28.2493810  30.9460340   8.2494190
  29.0144720  30.1398410   9.2773130  30.0305950  32.8196100   9.8362980
  29.7019310  32.0047860   9.4564710  30.9788250  32.7765910   9.7128670
  32.4840560  48.5908140   6.8100550  32.0243530  49.3423950   6.4358570
  31.8553020  47.8714610   6.7515350  19.3091180  44.6851380   9.1999270
  18.5825240  44.0656670   9.1325220  19.3700330  45.0791990   8.3297350
  22.9136280  46.8996380   5.9848680  23.4301300  46.2883740   5.4596940
  23.5633660  47.4025160   6.4759690  25.6531780  47.7904870   6.8117660
  25.9409590  47.5359170   5.9350670  26.1655000  47.2382230   7.4023230
  26.8708790  31.5295070   7.3914170  26.0880580  32.0040570   7.6710930
  26.5771720  30.6249900   7.2827350  31.4229860  32.2318170   5.4363260
  31.8637950  32.1763270   4.5884860  31.1537450  33.1476180   5.5073440
  33.2868430  31.8633410   3.4472080  33.2256830  30.9194630   3.3003100
  34.0660460  31.9713500   3.9925540  17.5921180  48.0025770   2.4096030
  17.4243220  47.3696450   3.1077920  16.7255690  48.2085170   2.0590220
  24.7563010  33.9481820   2.9030200  23.9437520  33.5738710   2.5626080
  25.2604650  33.1926900   3.2051390  29.2587990  30.6124270   4.1413270
  29.8617360  31.1844480   4.6161790  28.5180980  31.1763710   3.9187170
  25.7204140  48.7120970  14.1785860  26.6471450  48.4765240  14.2221820
  25.7054570  49.5392970  13.6971890  22.9067750  31.3765720  13.9427740
  22.6252020  31.8799320  13.1788560  23.2887450  30.5787470  13.5769870
  29.5083210  30.7919300  14.5208210  29.3948660  31.1113910  15.4159730
  30.3252950  31.1931810  14.2245490  32.2881700  47.9390830  14.0026900
  33.0807020  47.4440060  13.7952860  32.5814850  48.6180970  14.6102510
  28.4141360  20.0368280  97.5303890  28.3335410  19.1222890  97.2595600
  28.0005780  20.5335350  96.8243600  26.5459400  21.8147300  99.4113160
  25.7701500  21.3347740  99.7011730  27.1972330  21.1352950  99.2369320
  20.5625230  22.1267110 100.2888920  19.7310110  21.8715820 100.6885430
  21.1706210  22.1977880 101.0246840  30.5666830  26.2207490  98.1912290
  30.1048360  25.4494730  98.5199460  31.3792380  26.2473560  98.6964740
  20.5426490  26.1607200 100.4846940  20.8454530  25.2704940 100.3057160
  21.2870080  26.7177420 100.2569190  18.9717180  17.0869000  94.0731310
  18.0833880  17.4284970  93.9711190  19.2558370  16.8869320  93.1812140
  16.9350190  19.6874650  99.9571010  17.5066300  18.9196850  99.9574650
  16.9351730  19.9863410  99.0477620  26.7930140  28.5065500  97.8116280
  26.1741580  28.9623000  97.2410720  27.6481920  28.6616960  97.4105980
  25.9868390  24.4904490  99.4183320  25.9176670  23.5494430  99.2572450
  26.7488250  24.5805900  99.9905890  18.1775060  15.0959010 101.7439940
  17.9977900  14.1984760 102.0242700  17.7755140  15.6430880 102.4186890
  27.0173560  17.2974870  99.6452250  27.3938380  16.4246750  99.5325920
  26.9193070  17.6333570  98.7542690  21.1478570  15.6700500  95.1069690
  21.2545320  16.5704230  95.4138450  20.2370930  15.6218470  94.8164340
  30.7997680  14.7925310  96.5780590  31.6207300  14.3021880  96.6206070
  30.8331760  15.3822970  97.3312430  18.7961730  17.5919510 100.3522280
  19.4771840  17.8557880 100.9709680  18.4809780  16.7520380 100.6860290
  22.9886300  18.6386870  99.4394870  23.4964520  19.1367840 100.0799890
  23.5199540  17.8622070  99.2634230  27.6593490  23.3904740  95.2048190
  27.0410760  23.8554190  94.6410910  28.1716740  24.0832220  95.6217700
  22.5225250  22.9180610 101.8831790  22.1894630  23.5449530 102.5252860
  22.6991930  23.4442490 101.1033460  31.0359160  16.7325690  99.3508130
  30.3314730  17.0210580  99.9311240  31.3971320  17.5425800  98.9907690
  20.9537730  14.9895390 101.7128740  21.2954540  15.8337440 101.4182610
  20.0153540  15.1379130 101.8294080  17.0276690  24.0761270  92.5787820
  16.6504670  24.5648370  91.8472720  17.2849760  24.7486550  93.2094350
  32.6521940  26.3500820 101.6135610  31.9685460  27.0199930 101.6052280
  33.1916230  26.5481470 100.8480470  34.1046080  16.1780480  99.7417340
  33.1570990  16.2119460  99.8732770  34.4296070  16.9919430 100.1266700
  24.6365620  12.4777660  98.0373330  24.9440600  11.9224550  97.3208830
  23.7066320  12.6122120  97.8546320  30.1880680  28.1944950 100.3280790
  30.2007840  27.7907240  99.4603050  29.6355900  28.9692240 100.2242220
  31.4826100  24.9161170  95.4170960  31.3722430  23.9735500  95.5420380
  31.4794350  25.2776810  96.3033720  29.5866120  23.0974790 101.6563400
  30.0034910  22.8834900 100.8216860  30.3105940  23.3547580 102.2272020
  27.0246380  20.5426490  94.7733450  26.0975660  20.4763870  95.0021920
  27.1771200  21.4806620  94.6588690  27.0115460  16.8143490  91.7700610
  26.0719130  16.9757450  91.8553070  27.3298720  17.5329170  91.2236600
  33.5328220  21.4962010 101.7479640  32.7046850  21.5655100 101.2729770
  34.1278700  22.0816320 101.2795470  31.0543670  22.1046790  95.2768700
  30.4356090  21.7666340  94.6295000  31.0368120  21.4606550  95.9847890
  22.6303020  21.0691230  97.5553180  22.2260020  20.3568480  97.0599080
  22.7166140  20.7244470  98.4441220  23.0984720  24.7558790  99.7192390
  22.8013010  24.1504260  99.0400170  24.0484540  24.7936100  99.6081750
  21.3431640  17.8434440 101.3352220  21.8946230  17.9529780 100.5605470
  21.8575150  18.2172040 102.0507450  29.2308370  21.3433600  92.2841450
  29.6701650  20.5056030  92.1379270  29.9436790  21.9763000  92.3705590
  27.3403750  26.2829670  96.2522690  27.7799660  27.0254000  95.8378080
  27.2790640  26.5256240  97.1761650  32.8125510  12.5976410  90.5982490
  32.4998170  12.6903240  91.4981560  33.5737980  13.1757440  90.5479920
  19.3307650  19.9636210  95.0559830  19.2105250  20.6898300  94.4441100
  19.0208540  19.1939120  94.5787740  16.9693020  23.1351350 100.8628470
  17.0473440  23.2700120  99.9184190  17.5834700  22.4267240 101.0556590
  18.2140650  24.8351540  97.2734650  17.8068730  24.9766130  96.4188250
  19.1053660  24.5511700  97.0705860  30.0073930  29.2698790  93.6085700
  29.8475070  28.9801730  94.5067530  29.8420640  28.4938920  93.0730930
  22.4862310  29.0497320  95.3857320  22.3104790  28.1332860  95.1725120
  21.6318050  29.4084610  95.6255120  29.7100060  26.7786350  92.1683700
  29.0165220  26.7763640  91.5085980  30.4522920  26.3545670  91.7377870
  29.2749990  28.4049060  96.2432190  29.7306940  27.6238440  96.5570810
  29.6142510  29.1155880  96.7873370  21.7971310  13.3071280  98.4383500
  21.3539460  14.0880820  98.1068020  22.3556300  13.6301170  99.1454440
  24.9130130  12.9281980  93.3189330  24.2884310  12.9241850  94.0442640
  24.8260250  12.0612940  92.9225300  23.8347210  13.8518610 100.2973100
  24.1319540  14.7581440 100.2165120  24.3832770  13.3637390  99.6832670
  21.5885530  18.4304850  96.1664750  21.3626450  18.2142020  97.0711370
  20.8078060  18.8633310  95.8210720  28.8183290  18.4368220  94.7655400
  28.2192180  19.1604020  94.5819020  29.3662900  18.3745000  93.9831850
  27.4248160  17.0731760  96.7958680  27.8177730  17.3903960  95.9827370
  27.7865010  16.1943640  96.9103200  16.4612330  13.6632560  99.0188880
  16.1725380  14.2335420  99.7313860  17.2058090  13.1837010  99.3820110
  16.6482560  17.6052680  90.2291600  16.5657230  18.5483440  90.3706590
  16.2965620  17.4627590  89.3503950  28.0103300  19.6637510 100.8909460
  27.2784420  20.1724320 101.2399560  27.6127640  18.8467490 100.5898240
  24.4480690  16.3391710  99.2961950  24.4516750  15.8981660  98.4466490
  25.3431810  16.6609040  99.4033770  20.2983070  16.2218200  98.2556160
  19.9583120  16.6993430  99.0123210  19.5360390  15.7683320  97.8957260
  24.5100840  17.3403790  92.2868710  24.6313660  17.2990270  93.2354530
  24.1249350  18.2027940  92.1315440  28.4729210  15.1171190 100.3032400
  28.4901950  15.5679840 101.1474250  28.2244790  14.2176830 100.5165840
  23.5222340  19.6504930  91.6852010  22.9539240  19.2023180  91.0587920
  24.2311340  20.0097710  91.1517160  24.7488660  20.3993490 101.0427360
  25.1158790  19.9252060 101.7888700  24.5593720  21.2735060 101.3835700
  17.6129150  15.1437180  97.1720830  17.3276070  14.7792850  98.0099450
  17.5508010  14.4117640  96.5583970  21.0669820  23.6463120  93.9578420
  20.2932080  23.1060740  93.7977140  21.7964450  23.1269730  93.6196180
  31.8257800  22.6428480  99.7504810  32.5456920  23.1383770  99.3600920
  31.6239620  21.9646370  99.1058680  27.2867740  14.0366440  93.8934200
  26.4732350  13.5379610  93.8179510  27.0929690  14.8764690  93.4770550
  30.0016130  18.4086090  92.1896360  30.8895750  18.7203320  92.0147700
  29.9721220  17.5358340  91.7976940  21.1107220  23.3143500  97.5957230
  21.6285890  22.5111760  97.5414120  20.6591240  23.2522640  98.4374060
  25.9976720  24.5809780  92.8684530  26.3392420  25.3252010  92.3727850
  25.1689430  24.8940900  93.2309360  32.2730400  19.7197930  91.6576220
  32.1894120  20.1512150  90.8072660  32.9924590  20.1796280  92.0903040
  33.3017650  26.5740190  94.3858350  32.6593810  25.9195810  94.6602070
  32.9148310  26.9795280  93.6099020  28.8804130  23.9025620  98.2330040
  29.2327950  23.3053750  97.5731410  27.9966460  23.5769850  98.4038290
  24.9667410  24.6623310  95.6400450  25.6538540  25.2092520  96.0208040
  24.1799830  25.2064040  95.6750060  17.1059810  20.2796130  91.1317530
  17.9754660  20.5620930  91.4153450  16.6150130  21.0932000  91.0166340
  24.2694620  21.6669340  95.2525810  24.7257400  22.4774590  95.4786000
  23.9182830  21.3492480  96.0844300  20.1706400  12.0106990  95.7248330
  20.0421030  12.0024890  96.6733250  19.3468420  12.3490080  95.3739340
  27.8459310  25.1808030 101.1995560  28.4881540  24.4801190 101.3127730
  28.3708660  25.9606470 101.0192450  31.6915030  25.4656650  90.9234700
  31.4652610  24.7487090  91.5159340  31.3011230  25.2169090  90.0856450
  17.4731060  29.4923510  91.6979160  17.8328700  30.0912850  91.0436430
  17.3323400  30.0383400  92.4714190  31.2731280  23.3828590  92.5848860
  30.9852980  23.8441280  93.3726740  32.0683450  22.9226360  92.8533080
  23.4899680  26.8754710  92.5152830  23.4809780  27.6084400  91.8997340
  22.5698040  26.6286290  92.6079790  19.0906320  22.0969600  93.2599590
  18.4834270  22.8368500  93.2694890  19.5655670  22.1868960  92.4337790
  32.0301140  15.2177360  93.7444040  31.4014300  15.3223030  93.0302270
  31.5353060  15.4374140  94.5337920  26.4759280  26.9382950  91.1778020
  26.5771260  26.7346940  90.2480000  25.5761020  26.6841230  91.3825800
  23.9985170  17.4963310  95.1601920  23.2901320  17.9649650  95.6015530
  24.2829650  16.8385320  95.7947110  28.0300600  14.2213970  96.5997710
  27.9068380  14.2400100  95.6507220  28.9785160  14.2692910  96.7196110
  25.1177390  29.4569270  95.8725690  25.3718890  29.4190660  94.9505060
  24.1689870  29.3302600  95.8653940  22.2020190  15.8048390  92.5352630
  23.0510720  16.2418540  92.4692820  21.8351460  16.1168650  93.3624690
  31.1229970  20.3761150  97.4484200  30.1820110  20.3911380  97.6231890
  31.4374040  19.5897110  97.8944500  21.1011610  22.0580750  91.0088160
  21.8674880  21.9462110  91.5713590  21.1786300  21.3618720  90.3564930
  19.7958370  19.4905820  91.6921050  19.8761960  18.5433330  91.8038450
  20.6878120  19.8212700  91.7981710  33.1255550  27.5470000  99.1238460
  33.2502970  28.3701170  99.5962270  33.9921110  27.3360730  98.7762610
  20.5973080  29.6401210  98.7955590  21.3335560  29.0916670  99.0664160
  20.9814000  30.5057220  98.6561580  17.4818560  25.7074780  94.6697100
  16.5558340  25.9495920  94.6602510  17.9474990  26.5349040  94.5481850
  23.7075390  28.8131520  90.6181160  24.5004000  29.1020350  90.1662950
  23.1879740  28.3823690  89.9393640  32.7605560  28.0401650  92.0417900
  32.4747070  27.6266790  91.2272080  32.5625110  28.9689360  91.9218420
  24.2252790  24.0334930  90.4823510  24.1203430  23.4187280  91.2084890
  24.0577010  23.5100820  89.6986520  27.4655520  23.0954960  91.0865500
  26.9165620  23.5424260  91.7308240  28.0874780  22.5904210  91.6103170
  23.1330640  22.0545880  92.9830800  23.5547060  21.8885750  93.8262190
  23.2581480  21.2446110  92.4885940  25.6458280  21.0783490  90.2307900
  26.1663940  20.3632510  89.8649050  26.2926680  21.7169360  90.5308410
  22.0289540  18.1279110  89.9288960  21.8278600  17.2646470  90.2902300
  21.8581590  18.0412470  88.9910560  29.5077850  12.9387340  92.4575840
  29.7880140  12.0955240  92.8135260  28.7343580  13.1710450  92.9714590
  20.8272340  15.2279730  89.9166840  21.1298240  15.2347160  89.0085990
  21.5666930  14.8777590  90.4134500  24.0457270  14.1714350  90.9023040
  23.6979270  13.4938340  90.3225490  24.2470040  13.7103860  91.7166430
  26.2106310  29.1595100  92.5209640  27.1057100  29.4980070  92.5428400
  26.2423940  28.4374510  91.8933920  19.8502470  24.5322150  90.7496640
  20.2877340  25.0751820  91.4054220  20.3350200  23.7069100  90.7592980
  17.0648270  27.3211180  98.2016900  17.3951280  26.4532240  97.9695540
  17.4939270  27.5269700  99.0321860  21.6610190  25.6520190  95.8618870
  21.3605730  25.5285160  96.7622780  21.5547680  24.7928780  95.4534600
  17.5538480  28.1881770 100.9398530  17.1169470  28.3682570 101.7722680
  18.1216160  28.9456390 100.7980250  34.4302110  25.4316590  90.5645550
  33.5995070  25.4993240  91.0352780  34.6073940  26.3220710  90.2612410
  33.8858570  22.1764070  93.0679750  34.6477480  22.7460720  93.1739440
  33.9012940  21.6091270  93.8388060  17.3862910  20.7002000  97.2987410
  16.7311750  20.4313640  96.6547110  18.2240860  20.5906480  96.8489390
  34.8918540  23.0314170  97.9121680  35.2627370  22.2481490  97.5057650
  35.5320470  23.7203270  97.7338980  33.9377740  22.4698440  90.2252270
  34.2126580  23.3777320  90.0971490  33.7488480  22.4060970  91.1614260
  30.3353350  15.4943290  91.5205900  30.7538230  15.3074270  90.6802560
  30.0289410  14.6422340  91.8308830  33.8343080  20.4067430  95.2181700
  33.4586680  19.6395360  94.7862990  33.1046200  20.7890130  95.7056630
  18.4238840  21.0854570 101.8390750  18.7911880  20.9981970 102.7186770
  17.8549660  20.3221120 101.7397610  16.6000990  17.9100930  93.2412740
  15.6965070  18.1731130  93.0664400  17.0841610  18.1812100  92.4612700
  33.1094040  18.6324920  98.5188940  33.6331520  18.1387570  97.8879110
  33.6953460  18.7675280  99.2636510  33.2883760  18.7164790 102.0408490
  32.3386470  18.6828330 102.1553480  33.4696770  19.6264900 101.8058260
  19.1428200  16.9666470  91.1507120  19.8519900  16.5449690  90.6654400
  18.4268140  17.0341700  90.5190470  18.7902360  13.0205800  90.1909770
  19.5130490  13.5614740  90.5090990  19.0626880  12.7469220  89.3151310
  32.5994010  17.8898270  94.4581350  33.0953130  17.6569140  95.2430230
  32.4010080  17.0510110  94.0418990  18.4794550  12.2711990 100.0932390
  19.1270740  11.7209370  99.6527550  18.8996390  12.5255140 100.9148200
  34.0281170  16.5259220  96.9919030  33.9180450  16.3715260  97.9301300
  34.7888760  15.9980160  96.7494440  34.9171440  14.3567140  90.2325170
  35.8420750  14.2248320  90.0243460  34.8947230  14.4359960  91.1861620
  34.9909930  15.1277800  92.8581880  34.1961430  15.0622920  93.3874790
  35.1953210  16.0628440  92.8467230  31.9328350  29.1669350  96.8520270
  32.5287420  28.8453920  96.1754690  32.1906500  28.6941170  97.6433540
  23.5396950  27.1546850 102.6020620  23.2988310  27.4221410 101.7151140
  24.4799590  27.3252580 102.6571480  32.4840560  29.8164650 100.6818000
  32.0243530  30.5680460 100.3076020  31.8553020  29.0971120 100.6232800
  22.9136280  28.1252890  99.8566130  23.4301300  27.5140250  99.3314390
  23.5633660  28.6281670 100.3477140  25.6531780  29.0161380 100.6835110
  25.9409590  28.7615680  99.8068120  26.1655000  28.4638740 101.2740680
  26.8708790  12.7551580 101.2631620  26.0880580  13.2297080 101.5428380
  26.5771720  11.8506410 101.1544800  31.4229860  13.4574680  99.3080710
  31.8637950  13.4019780  98.4602310  31.1537450  14.3732690  99.3790890
  33.2868430  13.0889920  97.3189530  33.2256830  12.1451140  97.1720550
  34.0660460  13.1970010  97.8642990  17.5921180  29.2282280  96.2813480
  17.4243220  28.5952960  96.9795370  16.7255690  29.4341680  95.9307670
  18.2149200  13.0599060  93.7845340  18.9728560  13.1727940  93.2109370
  17.7526370  13.8968260  93.7388770  24.7563010  15.1738330  96.7747650
  23.9437520  14.7995220  96.4343530  25.2604650  14.4183410  97.0768840
  29.2587990  11.8380780  98.0130720  29.8617360  12.4100990  98.4879240
  28.5180980  12.4020220  97.7904620  32.4022590  12.2402340  93.2871000
  32.5973220  13.1385790  93.5538430  31.6152460  12.0089420  93.7803950
  19.1983880  27.9215510  93.7263620  18.6731500  28.3023540  93.0225580
  19.1228460  28.5466280  94.4473330  20.5874350  13.5863110  92.3247310
  21.1167110  12.7992910  92.1955260  21.2202670  14.2654300  92.5582840
  22.7812190  13.3238250  95.3792700  22.1514930  12.6225560  95.5462830
  22.2417330  14.0842380  95.1625860  33.9549200  29.4803050  95.0477560
  34.1301390  28.7940790  94.4038480  33.2570770  30.0050100  94.6554230
  21.7976850  29.8697890  92.6012870  22.5295670  29.5857170  92.0536760
  22.0570520  29.6311170  93.4912250  20.9591640  25.9862620  92.6059200
  20.3300520  26.4547720  93.1545030  21.0739470  25.1411840  93.0405390
  28.4141360  20.0368280  78.7560400  28.3335410  19.1222890  78.4852110
  28.0005780  20.5335350  78.0500110  26.5459400  21.8147300  80.6369670
  25.7701500  21.3347740  80.9268240  27.1972330  21.1352950  80.4625830
  20.5625230  22.1267110  81.5145430  19.7310110  21.8715820  81.9141940
  21.1706210  22.1977880  82.2503350  30.5666830  26.2207490  79.4168800
  30.1048360  25.4494730  79.7455970  31.3792380  26.2473560  79.9221250
  20.5426490  26.1607200  81.7103450  20.8454530  25.2704940  81.5313670
  21.2870080  26.7177420  81.4825700  18.9717180  17.0869000  75.2987820
  18.0833880  17.4284970  75.1967700  19.2558370  16.8869320  74.4068650
  16.9350190  19.6874650  81.1827520  17.5066300  18.9196850  81.1831160
  16.9351730  19.9863410  80.2734130  26.7930140  28.5065500  79.0372790
  26.1741580  28.9623000  78.4667230  27.6481920  28.6616960  78.6362490
  25.9868390  24.4904490  80.6439830  25.9176670  23.5494430  80.4828960
  26.7488250  24.5805900  81.2162400  18.1775060  15.0959010  82.9696450
  17.9977900  14.1984760  83.2499210  17.7755140  15.6430880  83.6443400
  27.0173560  17.2974870  80.8708760  27.3938380  16.4246750  80.7582430
  26.9193070  17.6333570  79.9799200  21.1478570  15.6700500  76.3326200
  21.2545320  16.5704230  76.6394960  20.2370930  15.6218470  76.0420850
  30.7997680  14.7925310  77.8037100  31.6207300  14.3021880  77.8462580
  30.8331760  15.3822970  78.5568940  18.7961730  17.5919510  81.5778790
  19.4771840  17.8557880  82.1966190  18.4809780  16.7520380  81.9116800
  22.9886300  18.6386870  80.6651380  23.4964520  19.1367840  81.3056400
  23.5199540  17.8622070  80.4890740  35.0897230  16.8092060  84.3680730
  34.3849400  17.1973770  83.8495840  35.3555150  17.5042350  84.9701660
  21.2722400  13.2785430  84.9314800  21.2740840  13.7957820  84.1260700
  20.4426710  12.8015610  84.9084730  27.6593490  23.3904740  76.4304700
  27.0410760  23.8554190  75.8667420  28.1716740  24.0832220  76.8474210
  22.5225250  22.9180610  83.1088300  22.1894630  23.5449530  83.7509370
  22.6991930  23.4442490  82.3289970  31.0359160  16.7325690  80.5764640
  30.3314730  17.0210580  81.1567750  31.3971320  17.5425800  80.2164200
  20.9537730  14.9895390  82.9385250  21.2954540  15.8337440  82.6439120
  20.0153540  15.1379130  83.0550590  21.7344350  24.8861410  84.9237480
  22.3518350  25.5612490  84.6421930  20.8737470  25.2949390  84.8324980
  17.0276690  24.0761270  73.8044330  16.6504670  24.5648370  73.0729230
  17.2849760  24.7486550  74.4350860  32.6521940  26.3500820  82.8392120
  31.9685460  27.0199930  82.8308790  33.1916230  26.5481470  82.0736980
  34.1046080  16.1780480  80.9673850  33.1570990  16.2119460  81.0989280
  34.4296070  16.9919430  81.3523210  24.6365620  12.4777660  79.2629840
  24.9440600  11.9224550  78.5465340  23.7066320  12.6122120  79.0802830
  30.1880680  28.1944950  81.5537300  30.2007840  27.7907240  80.6859560
  29.6355900  28.9692240  81.4498730  31.4826100  24.9161170  76.6427470
  31.3722430  23.9735500  76.7676890  31.4794350  25.2776810  77.5290230
  29.5866120  23.0974790  82.8819910  30.0034910  22.8834900  82.0473370
  30.3105940  23.3547580  83.4528530  27.0246380  20.5426490  75.9989960
  26.0975660  20.4763870  76.2278430  27.1771200  21.4806620  75.8845200
  27.0115460  16.8143490  72.9957120  26.0719130  16.9757450  73.0809580
  27.3298720  17.5329170  72.4493110  33.5328220  21.4962010  82.9736150
  32.7046850  21.5655100  82.4986280  34.1278700  22.0816320  82.5051980
  31.0543670  22.1046790  76.5025210  30.4356090  21.7666340  75.8551510
  31.0368120  21.4606550  77.2104400  30.4970230  18.2831330  83.9191020
  30.0841410  19.1085040  84.1731010  29.7646180  17.6976370  83.7267380
  22.6303020  21.0691230  78.7809690  22.2260020  20.3568480  78.2855590
  22.7166140  20.7244470  79.6697730  23.0984720  24.7558790  80.9448900
  22.8013010  24.1504260  80.2656680  24.0484540  24.7936100  80.8338260
  21.3431640  17.8434440  82.5608730  21.8946230  17.9529780  81.7861980
  21.8575150  18.2172040  83.2763960  31.1870330  28.3290660  84.6072000
  30.7100890  29.1362850  84.4144610  30.5032120  27.6768990  84.7598210
  22.1903150  24.4940480  87.5956700  21.2931680  24.7180450  87.8430100
  22.2156020  24.6175420  86.6468100  29.2308370  21.3433600  73.5097960
  29.6701650  20.5056030  73.3635780  29.9436790  21.9763000  73.5962100
  21.0174370  21.3653800  86.1714070  20.8782140  22.2376600  86.5401470
  20.1355730  21.0226610  86.0262010  27.3403750  26.2829670  77.4779200
  27.7799660  27.0254000  77.0634590  27.2790640  26.5256240  78.4018160
  22.8154720  27.3075500  88.3799220  22.7870150  27.7118450  87.5127650
  22.6519690  26.3785860  88.2170820  32.8125510  12.5976410  71.8239000
  32.4998170  12.6903240  72.7238070  33.5737980  13.1757440  71.7736430
  19.3307650  19.9636210  76.2816340  19.2105250  20.6898300  75.6697610
  19.0208540  19.1939120  75.8044250  34.7669540  28.0902600  89.6763390
  35.2429260  28.5685490  90.3552470  35.3876700  28.0220090  88.9508890
  16.9693020  23.1351350  82.0884980  17.0473440  23.2700120  81.1440700
  17.5834700  22.4267240  82.2813100  18.2140650  24.8351540  78.4991160
  17.8068730  24.9766130  77.6444760  19.1053660  24.5511700  78.2962370
  34.1702790  25.2815450  86.8363400  34.2965850  25.0427330  85.9180580
  34.2124170  24.4499990  87.3085480  28.0319530  28.9843450  85.4058210
  28.5464200  28.8951460  86.2080640  27.1888610  29.3303150  85.6986120
  30.0073930  29.2698790  74.8342210  29.8475070  28.9801730  75.7324040
  29.8420640  28.4938920  74.2987440  22.4862310  29.0497320  76.6113830
  22.3104790  28.1332860  76.3981630  21.6318050  29.4084610  76.8511630
  29.7100060  26.7786350  73.3940210  29.0165220  26.7763640  72.7342490
  30.4522920  26.3545670  72.9634380  29.2749990  28.4049060  77.4688700
  29.7306940  27.6238440  77.7827320  29.6142510  29.1155880  78.0129880
  34.0226800  17.3347910  87.8013140  33.4071070  17.8427580  87.2728600
  33.7023220  16.4346240  87.7439080  17.0252540  24.1765520  84.6279440
  17.1883580  23.7070880  83.8098810  17.4904990  23.6689080  85.2928280
  21.7971310  13.3071280  79.6640010  21.3539460  14.0880820  79.3324530
  22.3556300  13.6301170  80.3710950  26.0841120  16.1739800  85.2675330
  25.6220490  16.3822820  86.0795270  25.6819230  15.3599150  84.9646000
  31.0845630  17.3948750  86.3971990  30.2339220  17.0954500  86.7181060
  30.9247420  17.6390760  85.4855810  28.1795340  18.8950500  88.4970780
  28.5048750  18.0614250  88.1573010  28.9675670  19.4179020  88.6449110
  24.9130130  12.9281980  74.5445840  24.2884310  12.9241850  75.2699150
  24.8260250  12.0612940  74.1481810  23.8347210  13.8518610  81.5229610
  24.1319540  14.7581440  81.4421630  24.3832770  13.3637390  80.9089180
  21.5885530  18.4304850  77.3921260  21.3626450  18.2142020  78.2967880
  20.8078060  18.8633310  77.0467230  28.8183290  18.4368220  75.9911910
  28.2192180  19.1604020  75.8075530  29.3662900  18.3745000  75.2088360
  24.0284740  19.3290430  88.0581530  23.9328340  18.3885160  87.9081930
  24.8716720  19.5505500  87.6629600  27.4248160  17.0731760  78.0215190
  27.8177730  17.3903960  77.2083880  27.7865010  16.1943640  78.1359710
  19.1595280  15.7404100  86.2115310  18.7658670  16.5879310  86.4188090
  18.4713680  15.1030470  86.4023950  25.7340330  15.8239070  89.2812050
  25.0438650  15.6311270  89.9158140  26.4772630  16.1073710  89.8136350
  16.4612330  13.6632560  80.2445390  16.1725380  14.2335420  80.9570370
  17.2058090  13.1837010  80.6076620  16.6482560  17.6052680  71.4548110
  16.5657230  18.5483440  71.5963100  16.2965620  17.4627590  70.5760460
  28.0103300  19.6637510  82.1165970  27.2784420  20.1724320  82.4656070
  27.6127640  18.8467490  81.8154750  24.4480690  16.3391710  80.5218460
  24.4516750  15.8981660  79.6723000  25.3431810  16.6609040  80.6290280
  20.2983070  16.2218200  79.4812670  19.9583120  16.6993430  80.2379720
  19.5360390  15.7683320  79.1213770  24.5100840  17.3403790  73.5125220
  24.6313660  17.2990270  74.4611040  24.1249350  18.2027940  73.3571950
  28.4729210  15.1171190  81.5288910  28.4901950  15.5679840  82.3730760
  28.2244790  14.2176830  81.7422350  23.5222340  19.6504930  72.9108520
  22.9539240  19.2023180  72.2844430  24.2311340  20.0097710  72.3773670
  31.8999960  12.5303370  87.3675290  32.2245730  11.7993030  87.8933270
  31.9356470  12.2117010  86.4656280  18.5991520  23.5516950  86.7875250
  18.2146310  22.9110620  87.3858210  18.9103710  24.2553070  87.3569980
  24.7488660  20.3993490  82.2683870  25.1158790  19.9252060  83.0145210
  24.5593720  21.2735060  82.6092210  17.6129150  15.1437180  78.3977340
  17.3276070  14.7792850  79.2355960  17.5508010  14.4117640  77.7840480
  22.5388030  19.4402130  84.5868080  22.2345100  20.3194110  84.8118440
  23.4934490  19.5001920  84.6225520  21.0669820  23.6463120  75.1834930
  20.2932080  23.1060740  75.0233650  21.7964450  23.1269730  74.8452690
  31.8257800  22.6428480  80.9761320  32.5456920  23.1383770  80.5857430
  31.6239620  21.9646370  80.3315190  27.2867740  14.0366440  75.1190710
  26.4732350  13.5379610  75.0436020  27.0929690  14.8764690  74.7027060
  27.2076600  22.7137540  86.8630320  27.1413910  21.7933210  86.6087910
  26.5781740  22.8112980  87.5774960  30.0016130  18.4086090  73.4152870
  30.8895750  18.7203320  73.2404210  29.9721220  17.5358340  73.0233450
  21.1107220  23.3143500  78.8213740  21.6285890  22.5111760  78.7670630
  20.6591240  23.2522640  79.6630570  25.9976720  24.5809780  74.0941040
  26.3392420  25.3252010  73.5984360  25.1689430  24.8940900  74.4565870
  18.5951760  20.2804870  85.7339440  18.2366700  20.9458720  86.3212780
  18.3006320  19.4488420  86.1052060  21.7964880  20.7389110  88.6178990
  21.4965020  20.8846290  87.7206810  22.5676120  20.1794400  88.5252380
  27.1393330  25.5358110  86.6134120  27.1537870  24.6039070  86.3953030
  26.4318430  25.6217870  87.2523890  32.2730400  19.7197930  72.8832730
  32.1894120  20.1512150  72.0329170  32.9924590  20.1796280  73.3159550
  33.3504540  22.1765450  85.9602700  32.6252730  22.7694230  85.7632090
  33.8780000  22.1688990  85.1616070  33.3017650  26.5740190  75.6114860
  32.6593810  25.9195810  75.8858580  32.9148310  26.9795280  74.8355530
  28.8804130  23.9025620  79.4586550  29.2327950  23.3053750  78.7987920
  27.9966460  23.5769850  79.6294800  24.9667410  24.6623310  76.8656960
  25.6538540  25.2092520  77.2464550  24.1799830  25.2064040  76.9006570
  17.1059810  20.2796130  72.3574040  17.9754660  20.5620930  72.6409960
  16.6150130  21.0932000  72.2422850  24.2694620  21.6669340  76.4782320
  24.7257400  22.4774590  76.7042510  23.9182830  21.3492480  77.3100810
  26.5727230  27.1775680  83.7074620  27.2169450  27.3835060  84.3848040
  26.9356670  26.4164080  83.2545470  20.1706400  12.0106990  76.9504840
  20.0421030  12.0024890  77.8989760  19.3468420  12.3490080  76.5995850
  27.8459310  25.1808030  82.4252070  28.4881540  24.4801190  82.5384240
  28.3708660  25.9606470  82.2448960  31.6915030  25.4656650  72.1491210
  31.4652610  24.7487090  72.7415850  31.3011230  25.2169090  71.3112960
  29.6196930  25.9802930  85.6288130  29.9553170  26.5669620  86.3066050
  28.6997270  25.8495640  85.8585920  17.4731060  29.4923510  72.9235670
  17.8328700  30.0912850  72.2692940  17.3323400  30.0383400  73.6970700
  17.1700330  13.7698110  86.4111540  16.4558850  13.9695030  87.0164150
  17.5895370  12.9937680  86.7826340  31.2731280  23.3828590  73.8105370
  30.9852980  23.8441280  74.5983250  32.0683450  22.9226360  74.0789590
  17.4572920  27.7578370  87.3978070  17.5664040  26.8173110  87.2573460
  16.8053480  28.0233120  86.7491800  25.4485510  26.0294260  88.7976190
  25.1282380  25.3103500  89.3421880  24.7743870  26.7049330  88.8712250
  23.4899680  26.8754710  73.7409340  23.4809780  27.6084400  73.1253850
  22.5698040  26.6286290  73.8336300  19.0906320  22.0969600  74.4856100
  18.4834270  22.8368500  74.4951400  19.5655670  22.1868960  73.6594300
  28.6639110  16.2620420  84.1612990  29.0319930  15.4415630  84.4892560
  27.8037310  16.3222310  84.5768640  32.0301140  15.2177360  74.9700550
  31.4014300  15.3223030  74.2558780  31.5353060  15.4374140  75.7594430
  26.4759280  26.9382950  72.4034530  26.5771260  26.7346940  71.4736510
  25.5761020  26.6841230  72.6082310  23.9985170  17.4963310  76.3858430
  23.2901320  17.9649650  76.8272040  24.2829650  16.8385320  77.0203620
  25.6241100  18.9160010  84.3850960  26.1226350  19.3905830  85.0502810
  25.7664050  17.9923530  84.5920990  28.0300600  14.2213970  77.8254220
  27.9068380  14.2400100  76.8763730  28.9785160  14.2692910  77.9452620
  25.1177390  29.4569270  77.0982200  25.3718890  29.4190660  76.1761570
  24.1689870  29.3302600  77.0910450  22.2020190  15.8048390  73.7609140
  23.0510720  16.2418540  73.6949330  21.8351460  16.1168650  74.5881200
  32.8307960  15.1327970  85.2279350  32.3281560  15.8733370  85.5673160
  33.6464620  15.5211970  84.9116140  31.1229970  20.3761150  78.6740710
  30.1820110  20.3911380  78.8488400  31.4374040  19.5897110  79.1201010
  21.1011610  22.0580750  72.2344670  21.8674880  21.9462110  72.7970100
  21.1786300  21.3618720  71.5821440  19.7958370  19.4905820  72.9177560
  19.8761960  18.5433330  73.0294960  20.6878120  19.8212700  73.0238220
  33.1255550  27.5470000  80.3494970  33.2502970  28.3701170  80.8218780
  33.9921110  27.3360730  80.0019120  20.5973080  29.6401210  80.0212100
  21.3335560  29.0916670  80.2920670  20.9814000  30.5057220  79.8818090
  17.4818560  25.7074780  75.8953610  16.5558340  25.9495920  75.8859020
  17.9474990  26.5349040  75.7738360  19.6031360  28.8247280  89.2097680
  20.4044090  29.1459330  89.6233080  19.0883180  28.4642860  89.9317590
  23.7075390  28.8131520  71.8437670  24.5004000  29.1020350  71.3919460
  23.1879740  28.3823690  71.1650150  28.4395990  24.9327150  89.1573090
  27.8334150  24.9558750  88.4168840  28.1350100  24.2010190  89.6940340
  29.8696360  28.6607440  87.7682500  30.8218110  28.5765460  87.7182740
  29.7224580  29.3249150  88.4416290  32.7605560  28.0401650  73.2674410
  32.4747070  27.6266790  72.4528590  32.5625110  28.9689360  73.1474930
  17.3229170  21.3120740  88.1533730  17.8268190  20.7328020  88.7249960
  16.5836590  21.5960970  88.6910100  24.2252790  24.0334930  71.7080020
  24.1203430  23.4187280  72.4341400  24.0577010  23.5100820  70.9243030
  24.3767110  22.7191730  87.6869250  23.6112780  23.2876730  87.6023920
  24.5583070  22.4267940  86.7937480  27.4655520  23.0954960  72.3122010
  26.9165620  23.5424260  72.9564750  28.0874780  22.5904210  72.8359680
  31.5190460  24.4497060  88.2444270  32.2599930  24.7872820  87.7411730
  30.7563140  24.6189120  87.6914040  19.3552250  19.4550330  89.0483800
  19.3957590  19.1564200  89.9569030  20.2097750  19.8557940  88.8891320
  23.1330640  22.0545880  74.2087310  23.5547060  21.8885750  75.0518700
  23.2581480  21.2446110  73.7142450  21.2958060  18.0342430  87.0158290
  20.7654520  17.5433380  86.3881630  21.9646130  18.4626630  86.4816220
  25.6458280  21.0783490  71.4564410  26.1663940  20.3632510  71.0905560
  26.2926680  21.7169360  71.7564920  30.1936120  22.5011890  86.7799480
  30.6077140  22.6556970  87.6289900  29.2587120  22.6267110  86.9425260
  30.6658290  19.8408050  88.7838630  31.2479060  19.0860370  88.6959110
  30.8420060  20.3715490  88.0070110  21.7830360  15.0004800  87.0955580
  21.6887230  14.3825550  86.3706450  21.2027750  15.7271090  86.8685490
  24.5491800  13.5578040  84.1282970  24.1009100  13.5802300  83.2828520
  23.9157000  13.1597060  84.7253270  24.9551350  22.4532370  84.7495410
  25.3739460  23.2965100  84.5771650  24.0359980  22.5904410  84.5202190
  27.2915250  20.1848550  86.1333250  27.4111460  19.5889690  86.8728090
  28.1509250  20.2218240  85.7134550  29.6303150  20.7385740  84.7095760
  29.1038370  21.2628360  84.1060900  29.9734490  21.3713130  85.3405490
  22.0289540  18.1279110  71.1545470  21.8278600  17.2646470  71.5158810
  21.8581590  18.0412470  70.2167070  22.8058770  28.7585380  85.8653140
  22.2679860  29.4831440  85.5461840  23.0592730  28.2815720  85.0750480
  24.0584020  16.7269900  87.3909070  24.6483710  16.4185750  88.0786890
  23.2404260  16.2549650  87.5468970  28.8777450  16.3435710  87.6242090
  28.1892970  15.6817250  87.5592080  29.5983470  15.8973980  88.0690550
  29.5077850  12.9387340  73.6832350  29.7880140  12.0955240  74.0391770
  28.7343580  13.1710450  74.1971100  20.8272340  15.2279730  71.1423350
  21.1298240  15.2347160  70.2342500  21.5666930  14.8777590  71.6391010
  25.6620980  29.9936590  86.1239790  25.5879680  30.8971730  86.4312160
  24.7599820  29.6748490  86.0961860  24.0457270  14.1714350  72.1279550
  23.6979270  13.4938340  71.5482000  24.2470040  13.7103860  72.9422940
  26.2106310  29.1595100  73.7466150  27.1057100  29.4980070  73.7684910
  26.2423940  28.4374510  73.1190430  19.8502470  24.5322150  71.9753150
  20.2877340  25.0751820  72.6310730  20.3350200  23.7069100  71.9849490
  17.0648270  27.3211180  79.4273410  17.3951280  26.4532240  79.1952050
  17.4939270  27.5269700  80.2578370  21.6610190  25.6520190  77.0875380
  21.3605730  25.5285160  77.9879290  21.5547680  24.7928780  76.6791110
  17.5538480  28.1881770  82.1655040  17.1169470  28.3682570  82.9979190
  18.1216160  28.9456390  82.0236760  33.1900660  27.6898770  86.4532350
  32.5902650  27.7491330  85.7096270  33.3194560  26.7503750  86.5829200
  34.4302110  25.4316590  71.7902060  33.5995070  25.4993240  72.2609290
  34.6073940  26.3220710  71.4868920  33.8858570  22.1764070  74.2936260
  34.6477480  22.7460720  74.3995950  33.9012940  21.6091270  75.0644570
  17.3862910  20.7002000  78.5243920  16.7311750  20.4313640  77.8803620
  18.2240860  20.5906480  78.0745900  34.8918540  23.0314170  79.1378190
  35.2627370  22.2481490  78.7314160  35.5320470  23.7203270  78.9595490
  31.8752300  24.4150750  84.5508510  31.0612140  24.8447910  84.8134300
  32.2826500  25.0269160  83.9377560  33.9377740  22.4698440  71.4508780
  34.2126580  23.3777320  71.3228000  33.7488480  22.4060970  72.3870770
  30.3353350  15.4943290  72.7462410  30.7538230  15.3074270  71.9059070
  30.0289410  14.6422340  73.0565340  33.8343080  20.4067430  76.4438210
  33.4586680  19.6395360  76.0119500  33.1046200  20.7890130  76.9313140
  18.4238840  21.0854570  83.0647260  18.7911880  20.9981970  83.9443280
  17.8549660  20.3221120  82.9654120  33.2242700  19.5538950  86.0777730
  32.9928790  19.3251700  85.1775680  33.4847250  20.4738500  86.0322620
  17.9754840  17.9963660  86.9705680  17.0810890  17.9630420  87.3099390
  18.5152390  18.1950450  87.7356930  31.6630770  14.7795380  88.8557430
  32.5400950  14.7878780  89.2391430  31.6751610  14.0426220  88.2449780
  16.6000990  17.9100930  74.4669250  15.6965070  18.1731130  74.2920910
  17.0841610  18.1812100  73.6869210  33.1094040  18.6324920  79.7445450
  33.6331520  18.1387570  79.1135620  33.6953460  18.7675280  80.4893020
  33.2883760  18.7164790  83.2665000  32.3386470  18.6828330  83.3809990
  33.4696770  19.6264900  83.0314770  19.1428200  16.9666470  72.3763630
  19.8519900  16.5449690  71.8910910  18.4268140  17.0341700  71.7446980
  18.7902360  13.0205800  71.4166280  19.5130490  13.5614740  71.7347500
  19.0626880  12.7469220  70.5407820  32.5994010  17.8898270  75.6837860
  33.0953130  17.6569140  76.4686740  32.4010080  17.0510110  75.2675500
  18.4794550  12.2711990  81.3188900  19.1270740  11.7209370  80.8784060
  18.8996390  12.5255140  82.1404710  34.0281170  16.5259220  78.2175540
  33.9180450  16.3715260  79.1557810  34.7888760  15.9980160  77.9750950
  32.3746890  12.4653350  84.6758540  33.0119110  13.0787490  85.0417730
  32.5221780  12.5014010  83.7307770  34.9171440  14.3567140  71.4581680
  35.8420750  14.2248320  71.2499970  34.8947230  14.4359960  72.4118130
  34.9909930  15.1277800  74.0838390  34.1961430  15.0622920  74.6131300
  35.1953210  16.0628440  74.0723740  31.9328350  29.1669350  78.0776780
  32.5287420  28.8453920  77.4011200  32.1906500  28.6941170  78.8690050
  18.2326550  12.4267660  84.0614220  17.8841370  12.8831480  84.8272400
  17.9014250  11.5324790  84.1436650  19.8390920  25.5987260  88.2267410
  19.7960550  25.2280170  89.1081870  19.9701930  26.5364830  88.3669230
  23.5396950  27.1546850  83.8277130  23.2988310  27.4221410  82.9407650
  24.4799590  27.3252580  83.8827990  25.7451370  13.6179540  87.5833640
  25.6840260  14.2101370  88.3329050  26.6851750  13.5105500  87.4383900
  28.3825930  13.2749600  87.2225930  28.9966340  13.5928890  86.5607010
  28.9275490  12.7898190  87.8421790  34.8001110  29.1741230  84.6287770
  34.3059390  29.5710100  83.9114900  34.1914400  28.5490440  85.0225050
  18.9047190  11.9543860  87.3364990  19.4530180  11.7731910  86.5731100
  18.9702500  11.1637970  87.8721300  19.6778950  28.5449510  85.3465190
  19.0839270  28.4134210  86.0855230  19.6702790  27.7087650  84.8807290
  29.1233970  11.8381740  83.5495220  28.2493810  12.1716850  83.3468150
  29.0144720  11.3654920  84.3747090  30.0305950  14.0452610  84.9336940
  29.7019310  13.2304370  84.5538670  30.9788250  14.0022420  84.8102630
  32.4840560  29.8164650  81.9074510  32.0243530  30.5680460  81.5332530
  31.8553020  29.0971120  81.8489310  19.3091180  25.9107890  84.2973230
  18.5825240  25.2913180  84.2299180  19.3700330  26.3048500  83.4271310
  22.9136280  28.1252890  81.0822640  23.4301300  27.5140250  80.5570900
  23.5633660  28.6281670  81.5733650  25.6531780  29.0161380  81.9091620
  25.9409590  28.7615680  81.0324630  26.1655000  28.4638740  82.4997190
  26.8708790  12.7551580  82.4888130  26.0880580  13.2297080  82.7684890
  26.5771720  11.8506410  82.3801310  31.4229860  13.4574680  80.5337220
  31.8637950  13.4019780  79.6858820  31.1537450  14.3732690  80.6047400
  33.2868430  13.0889920  78.5446040  33.2256830  12.1451140  78.3977060
  34.0660460  13.1970010  79.0899500  17.5921180  29.2282280  77.5069990
  17.4243220  28.5952960  78.2051880  16.7255690  29.4341680  77.1564180
  18.2149200  13.0599060  75.0101850  18.9728560  13.1727940  74.4365880
  17.7526370  13.8968260  74.9645280  24.7563010  15.1738330  78.0004160
  23.9437520  14.7995220  77.6600040  25.2604650  14.4183410  78.3025350
  29.2587990  11.8380780  79.2387230  29.8617360  12.4100990  79.7135750
  28.5180980  12.4020220  79.0161130  32.4022590  12.2402340  74.5127510
  32.5973220  13.1385790  74.7794940  31.6152460  12.0089420  75.0060460
  19.1983880  27.9215510  74.9520130  18.6731500  28.3023540  74.2482090
  19.1228460  28.5466280  75.6729840  20.5874350  13.5863110  73.5503820
  21.1167110  12.7992910  73.4211770  21.2202670  14.2654300  73.7839350
  22.7812190  13.3238250  76.6049210  22.1514930  12.6225560  76.7719340
  22.2417330  14.0842380  76.3882370  25.7204140  29.9377480  89.2759820
  26.6471450  29.7021750  89.3195780  25.7054570  30.7649480  88.7945850
  33.9549200  29.4803050  76.2734070  34.1301390  28.7940790  75.6294990
  33.2570770  30.0050100  75.8810740  22.9067750  12.6022230  89.0401700
  22.6252020  13.1055830  88.2762520  23.2887450  11.8043980  88.6743830
  21.7976850  29.8697890  73.8269380  22.5295670  29.5857170  73.2793270
  22.0570520  29.6311170  74.7168760  20.9591640  25.9862620  73.8315710
  20.3300520  26.4547720  74.3801540  21.0739470  25.1411840  74.2661900
  29.5083210  12.0175810  89.6182170  29.3948660  12.3370420  90.5133690
  30.3252950  12.4188320  89.3219450  32.2881700  29.1647340  89.1000860
  33.0807020  28.6696570  88.8926820  32.5814850  29.8437480  89.7076470
  28.4141360  20.0368280  59.9816910  28.3335410  19.1222890  59.7108620
  28.0005780  20.5335350  59.2756620  26.5459400  21.8147300  61.8626180
  25.7701500  21.3347740  62.1524750  27.1972330  21.1352950  61.6882340
  20.5625230  22.1267110  62.7401940  19.7310110  21.8715820  63.1398450
  21.1706210  22.1977880  63.4759860  30.5666830  26.2207490  60.6425310
  30.1048360  25.4494730  60.9712480  31.3792380  26.2473560  61.1477760
  20.5426490  26.1607200  62.9359960  20.8454530  25.2704940  62.7570180
  21.2870080  26.7177420  62.7082210  18.9717180  17.0869000  56.5244330
  18.0833880  17.4284970  56.4224210  19.2558370  16.8869320  55.6325160
  16.9350190  19.6874650  62.4084030  17.5066300  18.9196850  62.4087670
  16.9351730  19.9863410  61.4990640  26.7930140  28.5065500  60.2629300
  26.1741580  28.9623000  59.6923740  27.6481920  28.6616960  59.8619000
  25.9868390  24.4904490  61.8696340  25.9176670  23.5494430  61.7085470
  26.7488250  24.5805900  62.4418910  18.1775060  15.0959010  64.1952960
  17.9977900  14.1984760  64.4755720  17.7755140  15.6430880  64.8699910
  27.0173560  17.2974870  62.0965270  27.3938380  16.4246750  61.9838940
  26.9193070  17.6333570  61.2055710  21.1478570  15.6700500  57.5582710
  21.2545320  16.5704230  57.8651470  20.2370930  15.6218470  57.2677360
  30.7997680  14.7925310  59.0293610  31.6207300  14.3021880  59.0719090
  30.8331760  15.3822970  59.7825450  18.7961730  17.5919510  62.8035300
  19.4771840  17.8557880  63.4222700  18.4809780  16.7520380  63.1373310
  22.9886300  18.6386870  61.8907890  23.4964520  19.1367840  62.5312910
  23.5199540  17.8622070  61.7147250  35.0897230  16.8092060  65.5937240
  34.3849400  17.1973770  65.0752350  35.3555150  17.5042350  66.1958170
  21.2722400  13.2785430  66.1571310  21.2740840  13.7957820  65.3517210
  20.4426710  12.8015610  66.1341240  27.6593490  23.3904740  57.6561210
  27.0410760  23.8554190  57.0923930  28.1716740  24.0832220  58.0730720
  22.5225250  22.9180610  64.3344810  22.1894630  23.5449530  64.9765880
  22.6991930  23.4442490  63.5546480  31.0359160  16.7325690  61.8021150
  30.3314730  17.0210580  62.3824260  31.3971320  17.5425800  61.4420710
  20.9537730  14.9895390  64.1641760  21.2954540  15.8337440  63.8695630
  20.0153540  15.1379130  64.2807100  21.7344350  24.8861410  66.1493990
  22.3518350  25.5612490  65.8678440  20.8737470  25.2949390  66.0581490
  17.0276690  24.0761270  55.0300840  16.6504670  24.5648370  54.2985740
  17.2849760  24.7486550  55.6607370  32.6521940  26.3500820  64.0648630
  31.9685460  27.0199930  64.0565300  33.1916230  26.5481470  63.2993490
  34.1046080  16.1780480  62.1930360  33.1570990  16.2119460  62.3245790
  34.4296070  16.9919430  62.5779720  24.6365620  12.4777660  60.4886350
  24.9440600  11.9224550  59.7721850  23.7066320  12.6122120  60.3059340
  30.1880680  28.1944950  62.7793810  30.2007840  27.7907240  61.9116070
  29.6355900  28.9692240  62.6755240  31.4826100  24.9161170  57.8683980
  31.3722430  23.9735500  57.9933400  31.4794350  25.2776810  58.7546740
  29.5866120  23.0974790  64.1076420  30.0034910  22.8834900  63.2729880
  30.3105940  23.3547580  64.6785040  27.0246380  20.5426490  57.2246470
  26.0975660  20.4763870  57.4534940  27.1771200  21.4806620  57.1101710
  27.0115460  16.8143490  54.2213630  26.0719130  16.9757450  54.3066090
  27.3298720  17.5329170  53.6749620  33.5328220  21.4962010  64.1992660
  32.7046850  21.5655100  63.7242790  34.1278700  22.0816320  63.7308490
  31.0543670  22.1046790  57.7281720  30.4356090  21.7666340  57.0808020
  31.0368120  21.4606550  58.4360910  30.4970230  18.2831330  65.1447530
  30.0841410  19.1085040  65.3987520  29.7646180  17.6976370  64.9523890
  22.6303020  21.0691230  60.0066200  22.2260020  20.3568480  59.5112100
  22.7166140  20.7244470  60.8954240  23.0984720  24.7558790  62.1705410
  22.8013010  24.1504260  61.4913190  24.0484540  24.7936100  62.0594770
  21.3431640  17.8434440  63.7865240  21.8946230  17.9529780  63.0118490
  21.8575150  18.2172040  64.5020470  31.1870330  28.3290660  65.8328510
  30.7100890  29.1362850  65.6401120  30.5032120  27.6768990  65.9854720
  22.1903150  24.4940480  68.8213210  21.2931680  24.7180450  69.0686610
  22.2156020  24.6175420  67.8724610  29.2308370  21.3433600  54.7354470
  29.6701650  20.5056030  54.5892290  29.9436790  21.9763000  54.8218610
  21.0174370  21.3653800  67.3970580  20.8782140  22.2376600  67.7657980
  20.1355730  21.0226610  67.2518520  27.3403750  26.2829670  58.7035710
  27.7799660  27.0254000  58.2891100  27.2790640  26.5256240  59.6274670
  22.8154720  27.3075500  69.6055730  22.7870150  27.7118450  68.7384160
  22.6519690  26.3785860  69.4427330  32.8125510  12.5976410  53.0495510
  32.4998170  12.6903240  53.9494580  33.5737980  13.1757440  52.9992940
  19.3307650  19.9636210  57.5072850  19.2105250  20.6898300  56.8954120
  19.0208540  19.1939120  57.0300760  34.7669540  28.0902600  70.9019900
  35.2429260  28.5685490  71.5808980  35.3876700  28.0220090  70.1765400
  16.9693020  23.1351350  63.3141490  17.0473440  23.2700120  62.3697210
  17.5834700  22.4267240  63.5069610  18.2140650  24.8351540  59.7247670
  17.8068730  24.9766130  58.8701270  19.1053660  24.5511700  59.5218880
  34.1702790  25.2815450  68.0619910  34.2965850  25.0427330  67.1437090
  34.2124170  24.4499990  68.5341990  28.0319530  28.9843450  66.6314720
  28.5464200  28.8951460  67.4337150  27.1888610  29.3303150  66.9242630
  30.0073930  29.2698790  56.0598720  29.8475070  28.9801730  56.9580550
  29.8420640  28.4938920  55.5243950  22.4862310  29.0497320  57.8370340
  22.3104790  28.1332860  57.6238140  21.6318050  29.4084610  58.0768140
  29.7100060  26.7786350  54.6196720  29.0165220  26.7763640  53.9599000
  30.4522920  26.3545670  54.1890890  29.2749990  28.4049060  58.6945210
  29.7306940  27.6238440  59.0083830  29.6142510  29.1155880  59.2386390
  34.0226800  17.3347910  69.0269650  33.4071070  17.8427580  68.4985110
  33.7023220  16.4346240  68.9695590  17.0252540  24.1765520  65.8535950
  17.1883580  23.7070880  65.0355320  17.4904990  23.6689080  66.5184790
  21.7971310  13.3071280  60.8896520  21.3539460  14.0880820  60.5581040
  22.3556300  13.6301170  61.5967460  26.0841120  16.1739800  66.4931840
  25.6220490  16.3822820  67.3051780  25.6819230  15.3599150  66.1902510
  31.0845630  17.3948750  67.6228500  30.2339220  17.0954500  67.9437570
  30.9247420  17.6390760  66.7112320  28.1795340  18.8950500  69.7227290
  28.5048750  18.0614250  69.3829520  28.9675670  19.4179020  69.8705620
  24.9130130  12.9281980  55.7702350  24.2884310  12.9241850  56.4955660
  24.8260250  12.0612940  55.3738320  23.8347210  13.8518610  62.7486120
  24.1319540  14.7581440  62.6678140  24.3832770  13.3637390  62.1345690
  21.5885530  18.4304850  58.6177770  21.3626450  18.2142020  59.5224390
  20.8078060  18.8633310  58.2723740  28.8183290  18.4368220  57.2168420
  28.2192180  19.1604020  57.0332040  29.3662900  18.3745000  56.4344870
  24.0284740  19.3290430  69.2838040  23.9328340  18.3885160  69.1338440
  24.8716720  19.5505500  68.8886110  27.4248160  17.0731760  59.2471700
  27.8177730  17.3903960  58.4340390  27.7865010  16.1943640  59.3616220
  19.1595280  15.7404100  67.4371820  18.7658670  16.5879310  67.6444600
  18.4713680  15.1030470  67.6280460  25.7340330  15.8239070  70.5068560
  25.0438650  15.6311270  71.1414650  26.4772630  16.1073710  71.0392860
  16.4612330  13.6632560  61.4701900  16.1725380  14.2335420  62.1826880
  17.2058090  13.1837010  61.8333130  16.6482560  17.6052680  52.6804620
  16.5657230  18.5483440  52.8219610  16.2965620  17.4627590  51.8016970
  28.0103300  19.6637510  63.3422480  27.2784420  20.1724320  63.6912580
  27.6127640  18.8467490  63.0411260  24.4480690  16.3391710  61.7474970
  24.4516750  15.8981660  60.8979510  25.3431810  16.6609040  61.8546790
  20.2983070  16.2218200  60.7069180  19.9583120  16.6993430  61.4636230
  19.5360390  15.7683320  60.3470280  24.5100840  17.3403790  54.7381730
  24.6313660  17.2990270  55.6867550  24.1249350  18.2027940  54.5828460
  28.4729210  15.1171190  62.7545420  28.4901950  15.5679840  63.5987270
  28.2244790  14.2176830  62.9678860  23.5222340  19.6504930  54.1365030
  22.9539240  19.2023180  53.5100940  24.2311340  20.0097710  53.6030180
  31.8999960  12.5303370  68.5931800  32.2245730  11.7993030  69.1189780
  31.9356470  12.2117010  67.6912790  18.5991520  23.5516950  68.0131760
  18.2146310  22.9110620  68.6114720  18.9103710  24.2553070  68.5826490
  24.7488660  20.3993490  63.4940380  25.1158790  19.9252060  64.2401720
  24.5593720  21.2735060  63.8348720  17.6129150  15.1437180  59.6233850
  17.3276070  14.7792850  60.4612470  17.5508010  14.4117640  59.0096990
  22.5388030  19.4402130  65.8124590  22.2345100  20.3194110  66.0374950
  23.4934490  19.5001920  65.8482030  21.0669820  23.6463120  56.4091440
  20.2932080  23.1060740  56.2490160  21.7964450  23.1269730  56.0709200
  31.8257800  22.6428480  62.2017830  32.5456920  23.1383770  61.8113940
  31.6239620  21.9646370  61.5571700  27.2867740  14.0366440  56.3447220
  26.4732350  13.5379610  56.2692530  27.0929690  14.8764690  55.9283570
  27.2076600  22.7137540  68.0886830  27.1413910  21.7933210  67.8344420
  26.5781740  22.8112980  68.8031470  30.0016130  18.4086090  54.6409380
  30.8895750  18.7203320  54.4660720  29.9721220  17.5358340  54.2489960
  21.1107220  23.3143500  60.0470250  21.6285890  22.5111760  59.9927140
  20.6591240  23.2522640  60.8887080  25.9976720  24.5809780  55.3197550
  26.3392420  25.3252010  54.8240870  25.1689430  24.8940900  55.6822380
  18.5951760  20.2804870  66.9595950  18.2366700  20.9458720  67.5469290
  18.3006320  19.4488420  67.3308570  21.7964880  20.7389110  69.8435500
  21.4965020  20.8846290  68.9463320  22.5676120  20.1794400  69.7508890
  27.1393330  25.5358110  67.8390630  27.1537870  24.6039070  67.6209540
  26.4318430  25.6217870  68.4780400  32.2730400  19.7197930  54.1089240
  32.1894120  20.1512150  53.2585680  32.9924590  20.1796280  54.5416060
  33.3504540  22.1765450  67.1859210  32.6252730  22.7694230  66.9888600
  33.8780000  22.1688990  66.3872580  33.3017650  26.5740190  56.8371370
  32.6593810  25.9195810  57.1115090  32.9148310  26.9795280  56.0612040
  28.8804130  23.9025620  60.6843060  29.2327950  23.3053750  60.0244430
  27.9966460  23.5769850  60.8551310  24.9667410  24.6623310  58.0913470
  25.6538540  25.2092520  58.4721060  24.1799830  25.2064040  58.1263080
  17.1059810  20.2796130  53.5830550  17.9754660  20.5620930  53.8666470
  16.6150130  21.0932000  53.4679360  24.2694620  21.6669340  57.7038830
  24.7257400  22.4774590  57.9299020  23.9182830  21.3492480  58.5357320
  26.5727230  27.1775680  64.9331130  27.2169450  27.3835060  65.6104550
  26.9356670  26.4164080  64.4801980  20.1706400  12.0106990  58.1761350
  20.0421030  12.0024890  59.1246270  19.3468420  12.3490080  57.8252360
  27.8459310  25.1808030  63.6508580  28.4881540  24.4801190  63.7640750
  28.3708660  25.9606470  63.4705470  31.6915030  25.4656650  53.3747720
  31.4652610  24.7487090  53.9672360  31.3011230  25.2169090  52.5369470
  29.6196930  25.9802930  66.8544640  29.9553170  26.5669620  67.5322560
  28.6997270  25.8495640  67.0842430  17.4731060  29.4923510  54.1492180
  17.8328700  30.0912850  53.4949450  17.3323400  30.0383400  54.9227210
  17.1700330  13.7698110  67.6368050  16.4558850  13.9695030  68.2420660
  17.5895370  12.9937680  68.0082850  31.2731280  23.3828590  55.0361880
  30.9852980  23.8441280  55.8239760  32.0683450  22.9226360  55.3046100
  17.4572920  27.7578370  68.6234580  17.5664040  26.8173110  68.4829970
  16.8053480  28.0233120  67.9748310  25.4485510  26.0294260  70.0232700
  25.1282380  25.3103500  70.5678390  24.7743870  26.7049330  70.0968760
  23.4899680  26.8754710  54.9665850  23.4809780  27.6084400  54.3510360
  22.5698040  26.6286290  55.0592810  19.0906320  22.0969600  55.7112610
  18.4834270  22.8368500  55.7207910  19.5655670  22.1868960  54.8850810
  28.6639110  16.2620420  65.3869500  29.0319930  15.4415630  65.7149070
  27.8037310  16.3222310  65.8025150  32.0301140  15.2177360  56.1957060
  31.4014300  15.3223030  55.4815290  31.5353060  15.4374140  56.9850940
  26.4759280  26.9382950  53.6291040  26.5771260  26.7346940  52.6993020
  25.5761020  26.6841230  53.8338820  23.9985170  17.4963310  57.6114940
  23.2901320  17.9649650  58.0528550  24.2829650  16.8385320  58.2460130
  25.6241100  18.9160010  65.6107470  26.1226350  19.3905830  66.2759320
  25.7664050  17.9923530  65.8177500  28.0300600  14.2213970  59.0510730
  27.9068380  14.2400100  58.1020240  28.9785160  14.2692910  59.1709130
  25.1177390  29.4569270  58.3238710  25.3718890  29.4190660  57.4018080
  24.1689870  29.3302600  58.3166960  22.2020190  15.8048390  54.9865650
  23.0510720  16.2418540  54.9205840  21.8351460  16.1168650  55.8137710
  32.8307960  15.1327970  66.4535860  32.3281560  15.8733370  66.7929670
  33.6464620  15.5211970  66.1372650  31.1229970  20.3761150  59.8997220
  30.1820110  20.3911380  60.0744910  31.4374040  19.5897110  60.3457520
  21.1011610  22.0580750  53.4601180  21.8674880  21.9462110  54.0226610
  21.1786300  21.3618720  52.8077950  19.7958370  19.4905820  54.1434070
  19.8761960  18.5433330  54.2551470  20.6878120  19.8212700  54.2494730
  33.1255550  27.5470000  61.5751480  33.2502970  28.3701170  62.0475290
  33.9921110  27.3360730  61.2275630  20.5973080  29.6401210  61.2468610
  21.3335560  29.0916670  61.5177180  20.9814000  30.5057220  61.1074600
  17.4818560  25.7074780  57.1210120  16.5558340  25.9495920  57.1115530
  17.9474990  26.5349040  56.9994870  19.6031360  28.8247280  70.4354190
  20.4044090  29.1459330  70.8489590  19.0883180  28.4642860  71.1574100
  23.7075390  28.8131520  53.0694180  24.5004000  29.1020350  52.6175970
  23.1879740  28.3823690  52.3906660  28.4395990  24.9327150  70.3829600
  27.8334150  24.9558750  69.6425350  28.1350100  24.2010190  70.9196850
  29.8696360  28.6607440  68.9939010  30.8218110  28.5765460  68.9439250
  29.7224580  29.3249150  69.6672800  32.7605560  28.0401650  54.4930920
  32.4747070  27.6266790  53.6785100  32.5625110  28.9689360  54.3731440
  17.3229170  21.3120740  69.3790240  17.8268190  20.7328020  69.9506470
  16.5836590  21.5960970  69.9166610  24.2252790  24.0334930  52.9336530
  24.1203430  23.4187280  53.6597910  24.0577010  23.5100820  52.1499540
  24.3767110  22.7191730  68.9125760  23.6112780  23.2876730  68.8280430
  24.5583070  22.4267940  68.0193990  27.4655520  23.0954960  53.5378520
  26.9165620  23.5424260  54.1821260  28.0874780  22.5904210  54.0616190
  31.5190460  24.4497060  69.4700780  32.2599930  24.7872820  68.9668240
  30.7563140  24.6189120  68.9170550  19.3552250  19.4550330  70.2740310
  19.3957590  19.1564200  71.1825540  20.2097750  19.8557940  70.1147830
  23.1330640  22.0545880  55.4343820  23.5547060  21.8885750  56.2775210
  23.2581480  21.2446110  54.9398960  21.2958060  18.0342430  68.2414800
  20.7654520  17.5433380  67.6138140  21.9646130  18.4626630  67.7072730
  25.6458280  21.0783490  52.6820920  26.1663940  20.3632510  52.3162070
  26.2926680  21.7169360  52.9821430  30.1936120  22.5011890  68.0055990
  30.6077140  22.6556970  68.8546410  29.2587120  22.6267110  68.1681770
  30.6658290  19.8408050  70.0095140  31.2479060  19.0860370  69.9215620
  30.8420060  20.3715490  69.2326620  21.7830360  15.0004800  68.3212090
  21.6887230  14.3825550  67.5962960  21.2027750  15.7271090  68.0942000
  24.5491800  13.5578040  65.3539480  24.1009100  13.5802300  64.5085030
  23.9157000  13.1597060  65.9509780  24.9551350  22.4532370  65.9751920
  25.3739460  23.2965100  65.8028160  24.0359980  22.5904410  65.7458700
  27.2915250  20.1848550  67.3589760  27.4111460  19.5889690  68.0984600
  28.1509250  20.2218240  66.9391060  29.6303150  20.7385740  65.9352270
  29.1038370  21.2628360  65.3317410  29.9734490  21.3713130  66.5662000
  22.0289540  18.1279110  52.3801980  21.8278600  17.2646470  52.7415320
  21.8581590  18.0412470  51.4423580  22.8058770  28.7585380  67.0909650
  22.2679860  29.4831440  66.7718350  23.0592730  28.2815720  66.3006990
  24.0584020  16.7269900  68.6165580  24.6483710  16.4185750  69.3043400
  23.2404260  16.2549650  68.7725480  28.8777450  16.3435710  68.8498600
  28.1892970  15.6817250  68.7848590  29.5983470  15.8973980  69.2947060
  29.5077850  12.9387340  54.9088860  29.7880140  12.0955240  55.2648280
  28.7343580  13.1710450  55.4227610  20.8272340  15.2279730  52.3679860
  21.1298240  15.2347160  51.4599010  21.5666930  14.8777590  52.8647520
  25.6620980  29.9936590  67.3496300  25.5879680  30.8971730  67.6568670
  24.7599820  29.6748490  67.3218370  24.0457270  14.1714350  53.3536060
  23.6979270  13.4938340  52.7738510  24.2470040  13.7103860  54.1679450
  26.2106310  29.1595100  54.9722660  27.1057100  29.4980070  54.9941420
  26.2423940  28.4374510  54.3446940  19.8502470  24.5322150  53.2009660
  20.2877340  25.0751820  53.8567240  20.3350200  23.7069100  53.2106000
  17.0648270  27.3211180  60.6529920  17.3951280  26.4532240  60.4208560
  17.4939270  27.5269700  61.4834880  21.6610190  25.6520190  58.3131890
  21.3605730  25.5285160  59.2135800  21.5547680  24.7928780  57.9047620
  17.5538480  28.1881770  63.3911550  17.1169470  28.3682570  64.2235700
  18.1216160  28.9456390  63.2493270  33.1900660  27.6898770  67.6788860
  32.5902650  27.7491330  66.9352780  33.3194560  26.7503750  67.8085710
  34.4302110  25.4316590  53.0158570  33.5995070  25.4993240  53.4865800
  34.6073940  26.3220710  52.7125430  17.3862910  20.7002000  59.7500430
  16.7311750  20.4313640  59.1060130  18.2240860  20.5906480  59.3002410
  31.8752300  24.4150750  65.7765020  31.0612140  24.8447910  66.0390810
  32.2826500  25.0269160  65.1634070  33.9377740  22.4698440  52.6765290
  34.2126580  23.3777320  52.5484510  33.7488480  22.4060970  53.6127280
  30.3353350  15.4943290  53.9718920  30.7538230  15.3074270  53.1315580
  30.0289410  14.6422340  54.2821850  18.4238840  21.0854570  64.2903770
  18.7911880  20.9981970  65.1699790  17.8549660  20.3221120  64.1910630
  33.2242700  19.5538950  67.3034240  32.9928790  19.3251700  66.4032190
  33.4847250  20.4738500  67.2579130  17.9754840  17.9963660  68.1962190
  17.0810890  17.9630420  68.5355900  18.5152390  18.1950450  68.9613440
  31.6630770  14.7795380  70.0813940  32.5400950  14.7878780  70.4647940
  31.6751610  14.0426220  69.4706290  16.6000990  17.9100930  55.6925760
  15.6965070  18.1731130  55.5177420  17.0841610  18.1812100  54.9125720
  33.1094040  18.6324920  60.9701960  33.6331520  18.1387570  60.3392130
  33.6953460  18.7675280  61.7149530  33.2883760  18.7164790  64.4921510
  32.3386470  18.6828330  64.6066500  33.4696770  19.6264900  64.2571280
  19.1428200  16.9666470  53.6020140  19.8519900  16.5449690  53.1167420
  18.4268140  17.0341700  52.9703490  18.7902360  13.0205800  52.6422790
  19.5130490  13.5614740  52.9604010  19.0626880  12.7469220  51.7664330
  32.5994010  17.8898270  56.9094370  33.0953130  17.6569140  57.6943250
  32.4010080  17.0510110  56.4932010  18.4794550  12.2711990  62.5445410
  19.1270740  11.7209370  62.1040570  18.8996390  12.5255140  63.3661220
  34.0281170  16.5259220  59.4432050  33.9180450  16.3715260  60.3814320
  34.7888760  15.9980160  59.2007460  32.3746890  12.4653350  65.9015050
  33.0119110  13.0787490  66.2674240  32.5221780  12.5014010  64.9564280
  34.9171440  14.3567140  52.6838190  35.8420750  14.2248320  52.4756480
  34.8947230  14.4359960  53.6374640  34.9909930  15.1277800  55.3094900
  34.1961430  15.0622920  55.8387810  35.1953210  16.0628440  55.2980250
  31.9328350  29.1669350  59.3033290  32.5287420  28.8453920  58.6267710
  32.1906500  28.6941170  60.0946560  18.2326550  12.4267660  65.2870730
  17.8841370  12.8831480  66.0528910  17.9014250  11.5324790  65.3693160
  19.8390920  25.5987260  69.4523920  19.7960550  25.2280170  70.3338380
  19.9701930  26.5364830  69.5925740  23.5396950  27.1546850  65.0533640
  23.2988310  27.4221410  64.1664160  24.4799590  27.3252580  65.1084500
  25.7451370  13.6179540  68.8090150  25.6840260  14.2101370  69.5585560
  26.6851750  13.5105500  68.6640410  28.3825930  13.2749600  68.4482440
  28.9966340  13.5928890  67.7863520  28.9275490  12.7898190  69.0678300
  34.8001110  29.1741230  65.8544280  34.3059390  29.5710100  65.1371410
  34.1914400  28.5490440  66.2481560  18.9047190  11.9543860  68.5621500
  19.4530180  11.7731910  67.7987610  18.9702500  11.1637970  69.0977810
  19.6778950  28.5449510  66.5721700  19.0839270  28.4134210  67.3111740
  19.6702790  27.7087650  66.1063800  29.1233970  11.8381740  64.7751730
  28.2493810  12.1716850  64.5724660  29.0144720  11.3654920  65.6003600
  30.0305950  14.0452610  66.1593450  29.7019310  13.2304370  65.7795180
  30.9788250  14.0022420  66.0359140  32.4840560  29.8164650  63.1331020
  32.0243530  30.5680460  62.7589040  31.8553020  29.0971120  63.0745820
  19.3091180  25.9107890  65.5229740  18.5825240  25.2913180  65.4555690
  19.3700330  26.3048500  64.6527820  22.9136280  28.1252890  62.3079150
  23.4301300  27.5140250  61.7827410  23.5633660  28.6281670  62.7990160
  25.6531780  29.0161380  63.1348130  25.9409590  28.7615680  62.2581140
  26.1655000  28.4638740  63.7253700  26.8708790  12.7551580  63.7144640
  26.0880580  13.2297080  63.9941400  26.5771720  11.8506410  63.6057820
  31.4229860  13.4574680  61.7593730  31.8637950  13.4019780  60.9115330
  31.1537450  14.3732690  61.8303910  33.2868430  13.0889920  59.7702550
  33.2256830  12.1451140  59.6233570  34.0660460  13.1970010  60.3156010
  17.5921180  29.2282280  58.7326500  17.4243220  28.5952960  59.4308390
  16.7255690  29.4341680  58.3820690  18.2149200  13.0599060  56.2358360
  18.9728560  13.1727940  55.6622390  17.7526370  13.8968260  56.1901790
  24.7563010  15.1738330  59.2260670  23.9437520  14.7995220  58.8856550
  25.2604650  14.4183410  59.5281860  29.2587990  11.8380780  60.4643740
  29.8617360  12.4100990  60.9392260  28.5180980  12.4020220  60.2417640
  32.4022590  12.2402340  55.7384020  32.5973220  13.1385790  56.0051450
  31.6152460  12.0089420  56.2316970  19.1983880  27.9215510  56.1776640
  18.6731500  28.3023540  55.4738600  19.1228460  28.5466280  56.8986350
  20.5874350  13.5863110  54.7760330  21.1167110  12.7992910  54.6468280
  21.2202670  14.2654300  55.0095860  22.7812190  13.3238250  57.8305720
  22.1514930  12.6225560  57.9975850  22.2417330  14.0842380  57.6138880
  25.7204140  29.9377480  70.5016330  26.6471450  29.7021750  70.5452290
  25.7054570  30.7649480  70.0202360  33.9549200  29.4803050  57.4990580
  34.1301390  28.7940790  56.8551500  33.2570770  30.0050100  57.1067250
  22.9067750  12.6022230  70.2658210  22.6252020  13.1055830  69.5019030
  23.2887450  11.8043980  69.9000340  21.7976850  29.8697890  55.0525890
  22.5295670  29.5857170  54.5049780  22.0570520  29.6311170  55.9425270
  20.9591640  25.9862620  55.0572220  20.3300520  26.4547720  55.6058050
  21.0739470  25.1411840  55.4918410  29.5083210  12.0175810  70.8438680
  29.3948660  12.3370420  71.7390200  30.3252950  12.4188320  70.5475960
  32.2881700  29.1647340  70.3257370  33.0807020  28.6696570  70.1183330
  32.5814850  29.8437480  70.9332980  28.4141360  20.0368280  41.2073420
  28.3335410  19.1222890  40.9365130  28.0005780  20.5335350  40.5013130
  26.5459400  21.8147300  43.0882690  25.7701500  21.3347740  43.3781260
  27.1972330  21.1352950  42.9138850  20.5625230  22.1267110  43.9658450
  19.7310110  21.8715820  44.3654960  21.1706210  22.1977880  44.7016370
  30.5666830  26.2207490  41.8681820  30.1048360  25.4494730  42.1968990
  31.3792380  26.2473560  42.3734270  20.5426490  26.1607200  44.1616470
  20.8454530  25.2704940  43.9826690  21.2870080  26.7177420  43.9338720
  18.9717180  17.0869000  37.7500840  18.0833880  17.4284970  37.6480720
  19.2558370  16.8869320  36.8581670  16.9350190  19.6874650  43.6340540
  17.5066300  18.9196850  43.6344180  16.9351730  19.9863410  42.7247150
  26.7930140  28.5065500  41.4885810  26.1741580  28.9623000  40.9180250
  27.6481920  28.6616960  41.0875510  25.9868390  24.4904490  43.0952850
  25.9176670  23.5494430  42.9341980  26.7488250  24.5805900  43.6675420
  18.1775060  15.0959010  45.4209470  17.9977900  14.1984760  45.7012230
  17.7755140  15.6430880  46.0956420  27.0173560  17.2974870  43.3221780
  27.3938380  16.4246750  43.2095450  26.9193070  17.6333570  42.4312220
  21.1478570  15.6700500  38.7839220  21.2545320  16.5704230  39.0907980
  20.2370930  15.6218470  38.4933870  30.7997680  14.7925310  40.2550120
  31.6207300  14.3021880  40.2975600  30.8331760  15.3822970  41.0081960
  18.7961730  17.5919510  44.0291810  19.4771840  17.8557880  44.6479210
  18.4809780  16.7520380  44.3629820  22.9886300  18.6386870  43.1164400
  23.4964520  19.1367840  43.7569420  23.5199540  17.8622070  42.9403760
  35.0897230  16.8092060  46.8193750  34.3849400  17.1973770  46.3008860
  35.3555150  17.5042350  47.4214680  21.2722400  13.2785430  47.3827820
  21.2740840  13.7957820  46.5773720  20.4426710  12.8015610  47.3597750
  27.6593490  23.3904740  38.8817720  27.0410760  23.8554190  38.3180440
  28.1716740  24.0832220  39.2987230  22.5225250  22.9180610  45.5601320
  22.1894630  23.5449530  46.2022390  22.6991930  23.4442490  44.7802990
  31.0359160  16.7325690  43.0277660  30.3314730  17.0210580  43.6080770
  31.3971320  17.5425800  42.6677220  20.9537730  14.9895390  45.3898270
  21.2954540  15.8337440  45.0952140  20.0153540  15.1379130  45.5063610
  21.7344350  24.8861410  47.3750500  22.3518350  25.5612490  47.0934950
  20.8737470  25.2949390  47.2838000  17.0276690  24.0761270  36.2557350
  16.6504670  24.5648370  35.5242250  17.2849760  24.7486550  36.8863880
  32.6521940  26.3500820  45.2905140  31.9685460  27.0199930  45.2821810
  33.1916230  26.5481470  44.5250000  34.1046080  16.1780480  43.4186870
  33.1570990  16.2119460  43.5502300  34.4296070  16.9919430  43.8036230
  24.6365620  12.4777660  41.7142860  24.9440600  11.9224550  40.9978360
  23.7066320  12.6122120  41.5315850  30.1880680  28.1944950  44.0050320
  30.2007840  27.7907240  43.1372580  29.6355900  28.9692240  43.9011750
  31.4826100  24.9161170  39.0940490  31.3722430  23.9735500  39.2189910
  31.4794350  25.2776810  39.9803250  29.5866120  23.0974790  45.3332930
  30.0034910  22.8834900  44.4986390  30.3105940  23.3547580  45.9041550
  27.0246380  20.5426490  38.4502980  26.0975660  20.4763870  38.6791450
  27.1771200  21.4806620  38.3358220  27.0115460  16.8143490  35.4470140
  26.0719130  16.9757450  35.5322600  27.3298720  17.5329170  34.9006130
  33.5328220  21.4962010  45.4249170  32.7046850  21.5655100  44.9499300
  34.1278700  22.0816320  44.9565000  31.0543670  22.1046790  38.9538230
  30.4356090  21.7666340  38.3064530  31.0368120  21.4606550  39.6617420
  30.4970230  18.2831330  46.3704040  30.0841410  19.1085040  46.6244030
  29.7646180  17.6976370  46.1780400  22.6303020  21.0691230  41.2322710
  22.2260020  20.3568480  40.7368610  22.7166140  20.7244470  42.1210750
  23.0984720  24.7558790  43.3961920  22.8013010  24.1504260  42.7169700
  24.0484540  24.7936100  43.2851280  21.3431640  17.8434440  45.0121750
  21.8946230  17.9529780  44.2375000  21.8575150  18.2172040  45.7276980
  31.1870330  28.3290660  47.0585020  30.7100890  29.1362850  46.8657630
  30.5032120  27.6768990  47.2111230  22.1903150  24.4940480  50.0469720
  21.2931680  24.7180450  50.2943120  22.2156020  24.6175420  49.0981120
  29.2308370  21.3433600  35.9610980  29.6701650  20.5056030  35.8148800
  29.9436790  21.9763000  36.0475120  21.0174370  21.3653800  48.6227090
  20.8782140  22.2376600  48.9914490  20.1355730  21.0226610  48.4775030
  27.3403750  26.2829670  39.9292220  27.7799660  27.0254000  39.5147610
  27.2790640  26.5256240  40.8531180  22.8154720  27.3075500  50.8312240
  22.7870150  27.7118450  49.9640670  22.6519690  26.3785860  50.6683840
  32.8125510  12.5976410  34.2752020  32.4998170  12.6903240  35.1751090
  33.5737980  13.1757440  34.2249450  19.3307650  19.9636210  38.7329360
  19.2105250  20.6898300  38.1210630  19.0208540  19.1939120  38.2557270
  34.7669540  28.0902600  52.1276410  35.2429260  28.5685490  52.8065490
  35.3876700  28.0220090  51.4021910  16.9693020  23.1351350  44.5398000
  17.0473440  23.2700120  43.5953720  17.5834700  22.4267240  44.7326120
  18.2140650  24.8351540  40.9504180  17.8068730  24.9766130  40.0957780
  19.1053660  24.5511700  40.7475390  34.1702790  25.2815450  49.2876420
  34.2965850  25.0427330  48.3693600  34.2124170  24.4499990  49.7598500
  28.0319530  28.9843450  47.8571230  28.5464200  28.8951460  48.6593660
  27.1888610  29.3303150  48.1499140  30.0073930  29.2698790  37.2855230
  29.8475070  28.9801730  38.1837060  29.8420640  28.4938920  36.7500460
  22.4862310  29.0497320  39.0626850  22.3104790  28.1332860  38.8494650
  21.6318050  29.4084610  39.3024650  29.7100060  26.7786350  35.8453230
  29.0165220  26.7763640  35.1855510  30.4522920  26.3545670  35.4147400
  29.2749990  28.4049060  39.9201720  29.7306940  27.6238440  40.2340340
  29.6142510  29.1155880  40.4642900  34.0226800  17.3347910  50.2526160
  33.4071070  17.8427580  49.7241620  33.7023220  16.4346240  50.1952100
  17.0252540  24.1765520  47.0792460  17.1883580  23.7070880  46.2611830
  17.4904990  23.6689080  47.7441300  21.7971310  13.3071280  42.1153030
  21.3539460  14.0880820  41.7837550  22.3556300  13.6301170  42.8223970
  26.0841120  16.1739800  47.7188350  25.6220490  16.3822820  48.5308290
  25.6819230  15.3599150  47.4159020  31.0845630  17.3948750  48.8485010
  30.2339220  17.0954500  49.1694080  30.9247420  17.6390760  47.9368830
  28.1795340  18.8950500  50.9483800  28.5048750  18.0614250  50.6086030
  28.9675670  19.4179020  51.0962130  24.9130130  12.9281980  36.9958860
  24.2884310  12.9241850  37.7212170  24.8260250  12.0612940  36.5994830
  23.8347210  13.8518610  43.9742630  24.1319540  14.7581440  43.8934650
  24.3832770  13.3637390  43.3602200  21.5885530  18.4304850  39.8434280
  21.3626450  18.2142020  40.7480900  20.8078060  18.8633310  39.4980250
  28.8183290  18.4368220  38.4424930  28.2192180  19.1604020  38.2588550
  29.3662900  18.3745000  37.6601380  24.0284740  19.3290430  50.5094550
  23.9328340  18.3885160  50.3594950  24.8716720  19.5505500  50.1142620
  27.4248160  17.0731760  40.4728210  27.8177730  17.3903960  39.6596900
  27.7865010  16.1943640  40.5872730  19.1595280  15.7404100  48.6628330
  18.7658670  16.5879310  48.8701110  18.4713680  15.1030470  48.8536970
  25.7340330  15.8239070  51.7325070  25.0438650  15.6311270  52.3671160
  26.4772630  16.1073710  52.2649370  16.4612330  13.6632560  42.6958410
  16.1725380  14.2335420  43.4083390  17.2058090  13.1837010  43.0589640
  16.6482560  17.6052680  33.9061130  16.5657230  18.5483440  34.0476120
  16.2965620  17.4627590  33.0273480  28.0103300  19.6637510  44.5678990
  27.2784420  20.1724320  44.9169090  27.6127640  18.8467490  44.2667770
  24.4480690  16.3391710  42.9731480  24.4516750  15.8981660  42.1236020
  25.3431810  16.6609040  43.0803300  20.2983070  16.2218200  41.9325690
  19.9583120  16.6993430  42.6892740  19.5360390  15.7683320  41.5726790
  24.5100840  17.3403790  35.9638240  24.6313660  17.2990270  36.9124060
  24.1249350  18.2027940  35.8084970  28.4729210  15.1171190  43.9801930
  28.4901950  15.5679840  44.8243780  28.2244790  14.2176830  44.1935370
  23.5222340  19.6504930  35.3621540  22.9539240  19.2023180  34.7357450
  24.2311340  20.0097710  34.8286690  31.8999960  12.5303370  49.8188310
  32.2245730  11.7993030  50.3446290  31.9356470  12.2117010  48.9169300
  18.5991520  23.5516950  49.2388270  18.2146310  22.9110620  49.8371230
  18.9103710  24.2553070  49.8083000  24.7488660  20.3993490  44.7196890
  25.1158790  19.9252060  45.4658230  24.5593720  21.2735060  45.0605230
  17.6129150  15.1437180  40.8490360  17.3276070  14.7792850  41.6868980
  17.5508010  14.4117640  40.2353500  22.5388030  19.4402130  47.0381100
  22.2345100  20.3194110  47.2631460  23.4934490  19.5001920  47.0738540
  21.0669820  23.6463120  37.6347950  20.2932080  23.1060740  37.4746670
  21.7964450  23.1269730  37.2965710  31.8257800  22.6428480  43.4274340
  32.5456920  23.1383770  43.0370450  31.6239620  21.9646370  42.7828210
  27.2867740  14.0366440  37.5703730  26.4732350  13.5379610  37.4949040
  27.0929690  14.8764690  37.1540080  27.2076600  22.7137540  49.3143340
  27.1413910  21.7933210  49.0600930  26.5781740  22.8112980  50.0287980
  30.0016130  18.4086090  35.8665890  30.8895750  18.7203320  35.6917230
  29.9721220  17.5358340  35.4746470  21.1107220  23.3143500  41.2726760
  21.6285890  22.5111760  41.2183650  20.6591240  23.2522640  42.1143590
  25.9976720  24.5809780  36.5454060  26.3392420  25.3252010  36.0497380
  25.1689430  24.8940900  36.9078890  18.5951760  20.2804870  48.1852460
  18.2366700  20.9458720  48.7725800  18.3006320  19.4488420  48.5565080
  21.7964880  20.7389110  51.0692010  21.4965020  20.8846290  50.1719830
  22.5676120  20.1794400  50.9765400  27.1393330  25.5358110  49.0647140
  27.1537870  24.6039070  48.8466050  26.4318430  25.6217870  49.7036910
  32.2730400  19.7197930  35.3345750  32.1894120  20.1512150  34.4842190
  32.9924590  20.1796280  35.7672570  33.3504540  22.1765450  48.4115720
  32.6252730  22.7694230  48.2145110  33.8780000  22.1688990  47.6129090
  33.3017650  26.5740190  38.0627880  32.6593810  25.9195810  38.3371600
  32.9148310  26.9795280  37.2868550  28.8804130  23.9025620  41.9099570
  29.2327950  23.3053750  41.2500940  27.9966460  23.5769850  42.0807820
  24.9667410  24.6623310  39.3169980  25.6538540  25.2092520  39.6977570
  24.1799830  25.2064040  39.3519590  17.1059810  20.2796130  34.8087060
  17.9754660  20.5620930  35.0922980  16.6150130  21.0932000  34.6935870
  24.2694620  21.6669340  38.9295340  24.7257400  22.4774590  39.1555530
  23.9182830  21.3492480  39.7613830  26.5727230  27.1775680  46.1587640
  27.2169450  27.3835060  46.8361060  26.9356670  26.4164080  45.7058490
  20.1706400  12.0106990  39.4017860  20.0421030  12.0024890  40.3502780
  19.3468420  12.3490080  39.0508870  27.8459310  25.1808030  44.8765090
  28.4881540  24.4801190  44.9897260  28.3708660  25.9606470  44.6961980
  31.6915030  25.4656650  34.6004230  31.4652610  24.7487090  35.1928870
  31.3011230  25.2169090  33.7625980  29.6196930  25.9802930  48.0801150
  29.9553170  26.5669620  48.7579070  28.6997270  25.8495640  48.3098940
  17.4731060  29.4923510  35.3748690  17.8328700  30.0912850  34.7205960
  17.3323400  30.0383400  36.1483720  17.1700330  13.7698110  48.8624560
  16.4558850  13.9695030  49.4677170  17.5895370  12.9937680  49.2339360
  31.2731280  23.3828590  36.2618390  30.9852980  23.8441280  37.0496270
  32.0683450  22.9226360  36.5302610  17.4572920  27.7578370  49.8491090
  17.5664040  26.8173110  49.7086480  16.8053480  28.0233120  49.2004820
  25.4485510  26.0294260  51.2489210  25.1282380  25.3103500  51.7934900
  24.7743870  26.7049330  51.3225270  23.4899680  26.8754710  36.1922360
  23.4809780  27.6084400  35.5766870  22.5698040  26.6286290  36.2849320
  19.0906320  22.0969600  36.9369120  18.4834270  22.8368500  36.9464420
  19.5655670  22.1868960  36.1107320  28.6639110  16.2620420  46.6126010
  29.0319930  15.4415630  46.9405580  27.8037310  16.3222310  47.0281660
  32.0301140  15.2177360  37.4213570  31.4014300  15.3223030  36.7071800
  31.5353060  15.4374140  38.2107450  26.4759280  26.9382950  34.8547550
  26.5771260  26.7346940  33.9249530  25.5761020  26.6841230  35.0595330
  23.9985170  17.4963310  38.8371450  23.2901320  17.9649650  39.2785060
  24.2829650  16.8385320  39.4716640  25.6241100  18.9160010  46.8363980
  26.1226350  19.3905830  47.5015830  25.7664050  17.9923530  47.0434010
  28.0300600  14.2213970  40.2767240  27.9068380  14.2400100  39.3276750
  28.9785160  14.2692910  40.3965640  25.1177390  29.4569270  39.5495220
  25.3718890  29.4190660  38.6274590  24.1689870  29.3302600  39.5423470
  22.2020190  15.8048390  36.2122160  23.0510720  16.2418540  36.1462350
  21.8351460  16.1168650  37.0394220  32.8307960  15.1327970  47.6792370
  32.3281560  15.8733370  48.0186180  33.6464620  15.5211970  47.3629160
  31.1229970  20.3761150  41.1253730  30.1820110  20.3911380  41.3001420
  31.4374040  19.5897110  41.5714030  21.1011610  22.0580750  34.6857690
  21.8674880  21.9462110  35.2483120  21.1786300  21.3618720  34.0334460
  19.7958370  19.4905820  35.3690580  19.8761960  18.5433330  35.4807980
  20.6878120  19.8212700  35.4751240  33.1255550  27.5470000  42.8007990
  33.2502970  28.3701170  43.2731800  33.9921110  27.3360730  42.4532140
  20.5973080  29.6401210  42.4725120  21.3335560  29.0916670  42.7433690
  20.9814000  30.5057220  42.3331110  17.4818560  25.7074780  38.3466630
  16.5558340  25.9495920  38.3372040  17.9474990  26.5349040  38.2251380
  19.6031360  28.8247280  51.6610700  20.4044090  29.1459330  52.0746100
  19.0883180  28.4642860  52.3830610  23.7075390  28.8131520  34.2950690
  24.5004000  29.1020350  33.8432480  23.1879740  28.3823690  33.6163170
  28.4395990  24.9327150  51.6086110  27.8334150  24.9558750  50.8681860
  28.1350100  24.2010190  52.1453360  29.8696360  28.6607440  50.2195520
  30.8218110  28.5765460  50.1695760  29.7224580  29.3249150  50.8929310
  32.7605560  28.0401650  35.7187430  32.4747070  27.6266790  34.9041610
  32.5625110  28.9689360  35.5987950  17.3229170  21.3120740  50.6046750
  17.8268190  20.7328020  51.1762980  16.5836590  21.5960970  51.1423120
  24.3767110  22.7191730  50.1382270  23.6112780  23.2876730  50.0536940
  24.5583070  22.4267940  49.2450500  31.5190460  24.4497060  50.6957290
  32.2599930  24.7872820  50.1924750  30.7563140  24.6189120  50.1427060
  19.3552250  19.4550330  51.4996820  19.3957590  19.1564200  52.4082050
  20.2097750  19.8557940  51.3404340  23.1330640  22.0545880  36.6600330
  23.5547060  21.8885750  37.5031720  23.2581480  21.2446110  36.1655470
  21.2958060  18.0342430  49.4671310  20.7654520  17.5433380  48.8394650
  21.9646130  18.4626630  48.9329240  30.1936120  22.5011890  49.2312500
  30.6077140  22.6556970  50.0802920  29.2587120  22.6267110  49.3938280
  30.6658290  19.8408050  51.2351650  31.2479060  19.0860370  51.1472130
  30.8420060  20.3715490  50.4583130  21.7830360  15.0004800  49.5468600
  21.6887230  14.3825550  48.8219470  21.2027750  15.7271090  49.3198510
  24.5491800  13.5578040  46.5795990  24.1009100  13.5802300  45.7341540
  23.9157000  13.1597060  47.1766290  24.9551350  22.4532370  47.2008430
  25.3739460  23.2965100  47.0284670  24.0359980  22.5904410  46.9715210
  27.2915250  20.1848550  48.5846270  27.4111460  19.5889690  49.3241110
  28.1509250  20.2218240  48.1647570  29.6303150  20.7385740  47.1608780
  29.1038370  21.2628360  46.5573920  29.9734490  21.3713130  47.7918510
  22.0289540  18.1279110  33.6058490  21.8278600  17.2646470  33.9671830
  21.8581590  18.0412470  32.6680090  22.8058770  28.7585380  48.3166160
  22.2679860  29.4831440  47.9974860  23.0592730  28.2815720  47.5263500
  24.0584020  16.7269900  49.8422090  24.6483710  16.4185750  50.5299910
  23.2404260  16.2549650  49.9981990  28.8777450  16.3435710  50.0755110
  28.1892970  15.6817250  50.0105100  29.5983470  15.8973980  50.5203570
  29.5077850  12.9387340  36.1345370  29.7880140  12.0955240  36.4904790
  28.7343580  13.1710450  36.6484120  20.8272340  15.2279730  33.5936370
  21.1298240  15.2347160  32.6855520  21.5666930  14.8777590  34.0904030
  25.6620980  29.9936590  48.5752810  25.5879680  30.8971730  48.8825180
  24.7599820  29.6748490  48.5474880  24.0457270  14.1714350  34.5792570
  23.6979270  13.4938340  33.9995020  24.2470040  13.7103860  35.3935960
  26.2106310  29.1595100  36.1979170  27.1057100  29.4980070  36.2197930
  26.2423940  28.4374510  35.5703450  19.8502470  24.5322150  34.4266170
  20.2877340  25.0751820  35.0823750  20.3350200  23.7069100  34.4362510
  17.0648270  27.3211180  41.8786430  17.3951280  26.4532240  41.6465070
  17.4939270  27.5269700  42.7091390  21.6610190  25.6520190  39.5388400
  21.3605730  25.5285160  40.4392310  21.5547680  24.7928780  39.1304130
  17.5538480  28.1881770  44.6168060  17.1169470  28.3682570  45.4492210
  18.1216160  28.9456390  44.4749780  33.1900660  27.6898770  48.9045370
  32.5902650  27.7491330  48.1609290  33.3194560  26.7503750  49.0342220
  34.4302110  25.4316590  34.2415080  33.5995070  25.4993240  34.7122310
  34.6073940  26.3220710  33.9381940  33.8858570  22.1764070  36.7449280
  34.6477480  22.7460720  36.8508970  33.9012940  21.6091270  37.5157590
  17.3862910  20.7002000  40.9756940  16.7311750  20.4313640  40.3316640
  18.2240860  20.5906480  40.5258920  34.8918540  23.0314170  41.5891210
  35.2627370  22.2481490  41.1827180  35.5320470  23.7203270  41.4108510
  31.8752300  24.4150750  47.0021530  31.0612140  24.8447910  47.2647320
  32.2826500  25.0269160  46.3890580  33.9377740  22.4698440  33.9021800
  34.2126580  23.3777320  33.7741020  33.7488480  22.4060970  34.8383790
  30.3353350  15.4943290  35.1975430  30.7538230  15.3074270  34.3572090
  30.0289410  14.6422340  35.5078360  33.8343080  20.4067430  38.8951230
  33.4586680  19.6395360  38.4632520  33.1046200  20.7890130  39.3826160
  18.4238840  21.0854570  45.5160280  18.7911880  20.9981970  46.3956300
  17.8549660  20.3221120  45.4167140  33.2242700  19.5538950  48.5290750
  32.9928790  19.3251700  47.6288700  33.4847250  20.4738500  48.4835640
  17.9754840  17.9963660  49.4218700  17.0810890  17.9630420  49.7612410
  18.5152390  18.1950450  50.1869950  31.6630770  14.7795380  51.3070450
  32.5400950  14.7878780  51.6904450  31.6751610  14.0426220  50.6962800
  16.6000990  17.9100930  36.9182270  15.6965070  18.1731130  36.7433930
  17.0841610  18.1812100  36.1382230  33.1094040  18.6324920  42.1958470
  33.6331520  18.1387570  41.5648640  33.6953460  18.7675280  42.9406040
  33.2883760  18.7164790  45.7178020  32.3386470  18.6828330  45.8323010
  33.4696770  19.6264900  45.4827790  19.1428200  16.9666470  34.8276650
  19.8519900  16.5449690  34.3423930  18.4268140  17.0341700  34.1960000
  18.7902360  13.0205800  33.8679300  19.5130490  13.5614740  34.1860520
  19.0626880  12.7469220  32.9920840  32.5994010  17.8898270  38.1350880
  33.0953130  17.6569140  38.9199760  32.4010080  17.0510110  37.7188520
  18.4794550  12.2711990  43.7701920  19.1270740  11.7209370  43.3297080
  18.8996390  12.5255140  44.5917730  34.0281170  16.5259220  40.6688560
  33.9180450  16.3715260  41.6070830  34.7888760  15.9980160  40.4263970
  32.3746890  12.4653350  47.1271560  33.0119110  13.0787490  47.4930750
  32.5221780  12.5014010  46.1820790  34.9171440  14.3567140  33.9094700
  35.8420750  14.2248320  33.7012990  34.8947230  14.4359960  34.8631150
  34.9909930  15.1277800  36.5351410  34.1961430  15.0622920  37.0644320
  35.1953210  16.0628440  36.5236760  31.9328350  29.1669350  40.5289800
  32.5287420  28.8453920  39.8524220  32.1906500  28.6941170  41.3203070
  18.2326550  12.4267660  46.5127240  17.8841370  12.8831480  47.2785420
  17.9014250  11.5324790  46.5949670  19.8390920  25.5987260  50.6780430
  19.7960550  25.2280170  51.5594890  19.9701930  26.5364830  50.8182250
  23.5396950  27.1546850  46.2790150  23.2988310  27.4221410  45.3920670
  24.4799590  27.3252580  46.3341010  25.7451370  13.6179540  50.0346660
  25.6840260  14.2101370  50.7842070  26.6851750  13.5105500  49.8896920
  28.3825930  13.2749600  49.6738950  28.9966340  13.5928890  49.0120030
  28.9275490  12.7898190  50.2934810  34.8001110  29.1741230  47.0800790
  34.3059390  29.5710100  46.3627920  34.1914400  28.5490440  47.4738070
  18.9047190  11.9543860  49.7878010  19.4530180  11.7731910  49.0244120
  18.9702500  11.1637970  50.3234320  19.6778950  28.5449510  47.7978210
  19.0839270  28.4134210  48.5368250  19.6702790  27.7087650  47.3320310
  29.1233970  11.8381740  46.0008240  28.2493810  12.1716850  45.7981170
  29.0144720  11.3654920  46.8260110  30.0305950  14.0452610  47.3849960
  29.7019310  13.2304370  47.0051690  30.9788250  14.0022420  47.2615650
  32.4840560  29.8164650  44.3587530  32.0243530  30.5680460  43.9845550
  31.8553020  29.0971120  44.3002330  19.3091180  25.9107890  46.7486250
  18.5825240  25.2913180  46.6812200  19.3700330  26.3048500  45.8784330
  22.9136280  28.1252890  43.5335660  23.4301300  27.5140250  43.0083920
  23.5633660  28.6281670  44.0246670  25.6531780  29.0161380  44.3604640
  25.9409590  28.7615680  43.4837650  26.1655000  28.4638740  44.9510210
  26.8708790  12.7551580  44.9401150  26.0880580  13.2297080  45.2197910
  26.5771720  11.8506410  44.8314330  31.4229860  13.4574680  42.9850240
  31.8637950  13.4019780  42.1371840  31.1537450  14.3732690  43.0560420
  33.2868430  13.0889920  40.9959060  33.2256830  12.1451140  40.8490080
  34.0660460  13.1970010  41.5412520  17.5921180  29.2282280  39.9583010
  17.4243220  28.5952960  40.6564900  16.7255690  29.4341680  39.6077200
  18.2149200  13.0599060  37.4614870  18.9728560  13.1727940  36.8878900
  17.7526370  13.8968260  37.4158300  24.7563010  15.1738330  40.4517180
  23.9437520  14.7995220  40.1113060  25.2604650  14.4183410  40.7538370
  29.2587990  11.8380780  41.6900250  29.8617360  12.4100990  42.1648770
  28.5180980  12.4020220  41.4674150  32.4022590  12.2402340  36.9640530
  32.5973220  13.1385790  37.2307960  31.6152460  12.0089420  37.4573480
  19.1983880  27.9215510  37.4033150  18.6731500  28.3023540  36.6995110
  19.1228460  28.5466280  38.1242860  20.5874350  13.5863110  36.0016840
  21.1167110  12.7992910  35.8724790  21.2202670  14.2654300  36.2352370
  22.7812190  13.3238250  39.0562230  22.1514930  12.6225560  39.2232360
  22.2417330  14.0842380  38.8395390  25.7204140  29.9377480  51.7272840
  26.6471450  29.7021750  51.7708800  25.7054570  30.7649480  51.2458870
  33.9549200  29.4803050  38.7247090  34.1301390  28.7940790  38.0808010
  33.2570770  30.0050100  38.3323760  22.9067750  12.6022230  51.4914720
  22.6252020  13.1055830  50.7275540  23.2887450  11.8043980  51.1256850
  21.7976850  29.8697890  36.2782400  22.5295670  29.5857170  35.7306290
  22.0570520  29.6311170  37.1681780  20.9591640  25.9862620  36.2828730
  20.3300520  26.4547720  36.8314560  21.0739470  25.1411840  36.7174920
  29.5083210  12.0175810  52.0695190  29.3948660  12.3370420  52.9646710
  30.3252950  12.4188320  51.7732470  32.2881700  29.1647340  51.5513880
  33.0807020  28.6696570  51.3439840  32.5814850  29.8437480  52.1589490
  28.4141360  20.0368280  22.4329930  28.3335410  19.1222890  22.1621640
  28.0005780  20.5335350  21.7269640  26.5459400  21.8147300  24.3139200
  25.7701500  21.3347740  24.6037770  27.1972330  21.1352950  24.1395360
  20.5625230  22.1267110  25.1914960  19.7310110  21.8715820  25.5911470
  21.1706210  22.1977880  25.9272880  30.5666830  26.2207490  23.0938330
  30.1048360  25.4494730  23.4225500  31.3792380  26.2473560  23.5990780
  20.5426490  26.1607200  25.3872980  20.8454530  25.2704940  25.2083200
  21.2870080  26.7177420  25.1595230  18.9717180  17.0869000  18.9757350
  18.0833880  17.4284970  18.8737230  19.2558370  16.8869320  18.0838180
  16.9350190  19.6874650  24.8597050  17.5066300  18.9196850  24.8600690
  16.9351730  19.9863410  23.9503660  26.7930140  28.5065500  22.7142320
  26.1741580  28.9623000  22.1436760  27.6481920  28.6616960  22.3132020
  25.9868390  24.4904490  24.3209360  25.9176670  23.5494430  24.1598490
  26.7488250  24.5805900  24.8931930  18.1775060  15.0959010  26.6465980
  17.9977900  14.1984760  26.9268740  17.7755140  15.6430880  27.3212930
  27.0173560  17.2974870  24.5478290  27.3938380  16.4246750  24.4351960
  26.9193070  17.6333570  23.6568730  21.1478570  15.6700500  20.0095730
  21.2545320  16.5704230  20.3164490  20.2370930  15.6218470  19.7190380
  30.7997680  14.7925310  21.4806630  31.6207300  14.3021880  21.5232110
  30.8331760  15.3822970  22.2338470  18.7961730  17.5919510  25.2548320
  19.4771840  17.8557880  25.8735720  18.4809780  16.7520380  25.5886330
  22.9886300  18.6386870  24.3420910  23.4964520  19.1367840  24.9825930
  23.5199540  17.8622070  24.1660270  35.0897230  16.8092060  28.0450260
  34.3849400  17.1973770  27.5265370  35.3555150  17.5042350  28.6471190
  21.2722400  13.2785430  28.6084330  21.2740840  13.7957820  27.8030230
  20.4426710  12.8015610  28.5854260  27.6593490  23.3904740  20.1074230
  27.0410760  23.8554190  19.5436950  28.1716740  24.0832220  20.5243740
  22.5225250  22.9180610  26.7857830  22.1894630  23.5449530  27.4278900
  22.6991930  23.4442490  26.0059500  31.0359160  16.7325690  24.2534170
  30.3314730  17.0210580  24.8337280  31.3971320  17.5425800  23.8933730
  20.9537730  14.9895390  26.6154780  21.2954540  15.8337440  26.3208650
  20.0153540  15.1379130  26.7320120  21.7344350  24.8861410  28.6007010
  22.3518350  25.5612490  28.3191460  20.8737470  25.2949390  28.5094510
  17.0276690  24.0761270  17.4813860  16.6504670  24.5648370  16.7498760
  17.2849760  24.7486550  18.1120390  32.6521940  26.3500820  26.5161650
  31.9685460  27.0199930  26.5078320  33.1916230  26.5481470  25.7506510
  34.1046080  16.1780480  24.6443380  33.1570990  16.2119460  24.7758810
  34.4296070  16.9919430  25.0292740  24.6365620  12.4777660  22.9399370
  24.9440600  11.9224550  22.2234870  23.7066320  12.6122120  22.7572360
  30.1880680  28.1944950  25.2306830  30.2007840  27.7907240  24.3629090
  29.6355900  28.9692240  25.1268260  31.4826100  24.9161170  20.3197000
  31.3722430  23.9735500  20.4446420  31.4794350  25.2776810  21.2059760
  29.5866120  23.0974790  26.5589440  30.0034910  22.8834900  25.7242900
  30.3105940  23.3547580  27.1298060  27.0246380  20.5426490  19.6759490
  26.0975660  20.4763870  19.9047960  27.1771200  21.4806620  19.5614730
  27.0115460  16.8143490  16.6726650  26.0719130  16.9757450  16.7579110
  27.3298720  17.5329170  16.1262640  33.5328220  21.4962010  26.6505680
  32.7046850  21.5655100  26.1755810  34.1278700  22.0816320  26.1821510
  31.0543670  22.1046790  20.1794740  30.4356090  21.7666340  19.5321040
  31.0368120  21.4606550  20.8873930  30.4970230  18.2831330  27.5960550
  30.0841410  19.1085040  27.8500540  29.7646180  17.6976370  27.4036910
  22.6303020  21.0691230  22.4579220  22.2260020  20.3568480  21.9625120
  22.7166140  20.7244470  23.3467260  23.0984720  24.7558790  24.6218430
  22.8013010  24.1504260  23.9426210  24.0484540  24.7936100  24.5107790
  21.3431640  17.8434440  26.2378260  21.8946230  17.9529780  25.4631510
  21.8575150  18.2172040  26.9533490  31.1870330  28.3290660  28.2841530
  30.7100890  29.1362850  28.0914140  30.5032120  27.6768990  28.4367740
  22.1903150  24.4940480  31.2726230  21.2931680  24.7180450  31.5199630
  22.2156020  24.6175420  30.3237630  29.2308370  21.3433600  17.1867490
  29.6701650  20.5056030  17.0405310  29.9436790  21.9763000  17.2731630
  21.0174370  21.3653800  29.8483600  20.8782140  22.2376600  30.2171000
  20.1355730  21.0226610  29.7031540  27.3403750  26.2829670  21.1548730
  27.7799660  27.0254000  20.7404120  27.2790640  26.5256240  22.0787690
  22.8154720  27.3075500  32.0568750  22.7870150  27.7118450  31.1897180
  22.6519690  26.3785860  31.8940350  32.8125510  12.5976410  15.5008530
  32.4998170  12.6903240  16.4007600  33.5737980  13.1757440  15.4505960
  19.3307650  19.9636210  19.9585870  19.2105250  20.6898300  19.3467140
  19.0208540  19.1939120  19.4813780  34.7669540  28.0902600  33.3532920
  35.2429260  28.5685490  34.0322000  35.3876700  28.0220090  32.6278420
  16.9693020  23.1351350  25.7654510  17.0473440  23.2700120  24.8210230
  17.5834700  22.4267240  25.9582630  18.2140650  24.8351540  22.1760690
  17.8068730  24.9766130  21.3214290  19.1053660  24.5511700  21.9731900
  34.1702790  25.2815450  30.5132930  34.2965850  25.0427330  29.5950110
  34.2124170  24.4499990  30.9855010  28.0319530  28.9843450  29.0827740
  28.5464200  28.8951460  29.8850170  27.1888610  29.3303150  29.3755650
  30.0073930  29.2698790  18.5111740  29.8475070  28.9801730  19.4093570
  29.8420640  28.4938920  17.9756970  22.4862310  29.0497320  20.2883360
  22.3104790  28.1332860  20.0751160  21.6318050  29.4084610  20.5281160
  29.7100060  26.7786350  17.0709740  29.0165220  26.7763640  16.4112020
  30.4522920  26.3545670  16.6403910  29.2749990  28.4049060  21.1458230
  29.7306940  27.6238440  21.4596850  29.6142510  29.1155880  21.6899410
  34.0226800  17.3347910  31.4782670  33.4071070  17.8427580  30.9498130
  33.7023220  16.4346240  31.4208610  17.0252540  24.1765520  28.3048970
  17.1883580  23.7070880  27.4868340  17.4904990  23.6689080  28.9697810
  21.7971310  13.3071280  23.3409540  21.3539460  14.0880820  23.0094060
  22.3556300  13.6301170  24.0480480  26.0841120  16.1739800  28.9444860
  25.6220490  16.3822820  29.7564800  25.6819230  15.3599150  28.6415530
  31.0845630  17.3948750  30.0741520  30.2339220  17.0954500  30.3950590
  30.9247420  17.6390760  29.1625340  28.1795340  18.8950500  32.1740310
  28.5048750  18.0614250  31.8342540  28.9675670  19.4179020  32.3218640
  24.9130130  12.9281980  18.2215370  24.2884310  12.9241850  18.9468680
  24.8260250  12.0612940  17.8251340  23.8347210  13.8518610  25.1999140
  24.1319540  14.7581440  25.1191160  24.3832770  13.3637390  24.5858710
  21.5885530  18.4304850  21.0690790  21.3626450  18.2142020  21.9737410
  20.8078060  18.8633310  20.7236760  28.8183290  18.4368220  19.6681440
  28.2192180  19.1604020  19.4845060  29.3662900  18.3745000  18.8857890
  24.0284740  19.3290430  31.7351060  23.9328340  18.3885160  31.5851460
  24.8716720  19.5505500  31.3399130  27.4248160  17.0731760  21.6984720
  27.8177730  17.3903960  20.8853410  27.7865010  16.1943640  21.8129240
  19.1595280  15.7404100  29.8884840  18.7658670  16.5879310  30.0957620
  18.4713680  15.1030470  30.0793480  25.7340330  15.8239070  32.9581580
  25.0438650  15.6311270  33.5927670  26.4772630  16.1073710  33.4905880
  16.4612330  13.6632560  23.9214920  16.1725380  14.2335420  24.6339900
  17.2058090  13.1837010  24.2846150  16.6482560  17.6052680  15.1317640
  16.5657230  18.5483440  15.2732630  16.2965620  17.4627590  14.2529990
  28.0103300  19.6637510  25.7935500  27.2784420  20.1724320  26.1425600
  27.6127640  18.8467490  25.4924280  24.4480690  16.3391710  24.1987990
  24.4516750  15.8981660  23.3492530  25.3431810  16.6609040  24.3059810
  20.2983070  16.2218200  23.1582200  19.9583120  16.6993430  23.9149250
  19.5360390  15.7683320  22.7983300  24.5100840  17.3403790  17.1894750
  24.6313660  17.2990270  18.1380570  24.1249350  18.2027940  17.0341480
  28.4729210  15.1171190  25.2058440  28.4901950  15.5679840  26.0500290
  28.2244790  14.2176830  25.4191880  23.5222340  19.6504930  16.5878050
  22.9539240  19.2023180  15.9613960  24.2311340  20.0097710  16.0543200
  31.8999960  12.5303370  31.0444820  32.2245730  11.7993030  31.5702800
  31.9356470  12.2117010  30.1425810  18.5991520  23.5516950  30.4644780
  18.2146310  22.9110620  31.0627740  18.9103710  24.2553070  31.0339510
  24.7488660  20.3993490  25.9453400  25.1158790  19.9252060  26.6914740
  24.5593720  21.2735060  26.2861740  17.6129150  15.1437180  22.0746870
  17.3276070  14.7792850  22.9125490  17.5508010  14.4117640  21.4610010
  22.5388030  19.4402130  28.2637610  22.2345100  20.3194110  28.4887970
  23.4934490  19.5001920  28.2995050  21.0669820  23.6463120  18.8604460
  20.2932080  23.1060740  18.7003180  21.7964450  23.1269730  18.5222220
  31.8257800  22.6428480  24.6530850  32.5456920  23.1383770  24.2626960
  31.6239620  21.9646370  24.0084720  27.2867740  14.0366440  18.7960240
  26.4732350  13.5379610  18.7205550  27.0929690  14.8764690  18.3796590
  30.0016130  18.4086090  17.0922400  30.8895750  18.7203320  16.9173740
  29.9721220  17.5358340  16.7002980  21.1107220  23.3143500  22.4983270
  21.6285890  22.5111760  22.4440160  20.6591240  23.2522640  23.3400100
  25.9976720  24.5809780  17.7710570  26.3392420  25.3252010  17.2753890
  25.1689430  24.8940900  18.1335400  18.5951760  20.2804870  29.4108970
  18.2366700  20.9458720  29.9982310  18.3006320  19.4488420  29.7821590
  21.7964880  20.7389110  32.2948520  21.4965020  20.8846290  31.3976340
  22.5676120  20.1794400  32.2021910  32.2730400  19.7197930  16.5602260
  32.1894120  20.1512150  15.7098700  32.9924590  20.1796280  16.9929080
  33.3504540  22.1765450  29.6372230  32.6252730  22.7694230  29.4401620
  33.8780000  22.1688990  28.8385600  33.3017650  26.5740190  19.2884390
  32.6593810  25.9195810  19.5628110  32.9148310  26.9795280  18.5125060
  28.8804130  23.9025620  23.1356080  29.2327950  23.3053750  22.4757450
  27.9966460  23.5769850  23.3064330  24.9667410  24.6623310  20.5426490
  25.6538540  25.2092520  20.9234080  24.1799830  25.2064040  20.5776100
  17.1059810  20.2796130  16.0343570  17.9754660  20.5620930  16.3179490
  16.6150130  21.0932000  15.9192380  24.2694620  21.6669340  20.1551850
  24.7257400  22.4774590  20.3812040  23.9182830  21.3492480  20.9870340
  26.5727230  27.1775680  27.3844150  27.2169450  27.3835060  28.0617570
  26.9356670  26.4164080  26.9315000  20.1706400  12.0106990  20.6274370
  20.0421030  12.0024890  21.5759290  19.3468420  12.3490080  20.2765380
  27.8459310  25.1808030  26.1021600  28.4881540  24.4801190  26.2153770
  28.3708660  25.9606470  25.9218490  31.6915030  25.4656650  15.8260740
  31.4652610  24.7487090  16.4185380  31.3011230  25.2169090  14.9882490
  17.4731060  29.4923510  16.6005200  17.8328700  30.0912850  15.9462470
  17.3323400  30.0383400  17.3740230  17.1700330  13.7698110  30.0881070
  16.4558850  13.9695030  30.6933680  17.5895370  12.9937680  30.4595870
  31.2731280  23.3828590  17.4874900  30.9852980  23.8441280  18.2752780
  32.0683450  22.9226360  17.7559120  17.4572920  27.7578370  31.0747600
  17.5664040  26.8173110  30.9342990  16.8053480  28.0233120  30.4261330
  23.4899680  26.8754710  17.4178870  23.4809780  27.6084400  16.8023380
  22.5698040  26.6286290  17.5105830  19.0906320  22.0969600  18.1625630
  18.4834270  22.8368500  18.1720930  19.5655670  22.1868960  17.3363830
  28.6639110  16.2620420  27.8382520  29.0319930  15.4415630  28.1662090
  27.8037310  16.3222310  28.2538170  32.0301140  15.2177360  18.6470080
  31.4014300  15.3223030  17.9328310  31.5353060  15.4374140  19.4363960
  26.4759280  26.9382950  16.0804060  26.5771260  26.7346940  15.1506040
  25.5761020  26.6841230  16.2851840  23.9985170  17.4963310  20.0627960
  23.2901320  17.9649650  20.5041570  24.2829650  16.8385320  20.6973150
  25.6241100  18.9160010  28.0620490  26.1226350  19.3905830  28.7272340
  25.7664050  17.9923530  28.2690520  28.0300600  14.2213970  21.5023750
  27.9068380  14.2400100  20.5533260  28.9785160  14.2692910  21.6222150
  25.1177390  29.4569270  20.7751730  25.3718890  29.4190660  19.8531100
  24.1689870  29.3302600  20.7679980  22.2020190  15.8048390  17.4378670
  23.0510720  16.2418540  17.3718860  21.8351460  16.1168650  18.2650730
  32.8307960  15.1327970  28.9048880  32.3281560  15.8733370  29.2442690
  33.6464620  15.5211970  28.5885670  31.1229970  20.3761150  22.3510240
  30.1820110  20.3911380  22.5257930  31.4374040  19.5897110  22.7970540
  21.1011610  22.0580750  15.9114200  21.8674880  21.9462110  16.4739630
  21.1786300  21.3618720  15.2590970  19.7958370  19.4905820  16.5947090
  19.8761960  18.5433330  16.7064490  20.6878120  19.8212700  16.7007750
  33.1255550  27.5470000  24.0264500  33.2502970  28.3701170  24.4988310
  33.9921110  27.3360730  23.6788650  20.5973080  29.6401210  23.6981630
  21.3335560  29.0916670  23.9690200  20.9814000  30.5057220  23.5587620
  17.4818560  25.7074780  19.5723140  16.5558340  25.9495920  19.5628550
  17.9474990  26.5349040  19.4507890  19.6031360  28.8247280  32.8867210
  20.4044090  29.1459330  33.3002610  19.0883180  28.4642860  33.6087120
  23.7075390  28.8131520  15.5207200  24.5004000  29.1020350  15.0688990
  23.1879740  28.3823690  14.8419680  29.8696360  28.6607440  31.4452030
  30.8218110  28.5765460  31.3952270  29.7224580  29.3249150  32.1185820
  32.7605560  28.0401650  16.9443940  32.4747070  27.6266790  16.1298120
  32.5625110  28.9689360  16.8244460  17.3229170  21.3120740  31.8303260
  17.8268190  20.7328020  32.4019490  16.5836590  21.5960970  32.3679630
  24.2252790  24.0334930  15.3849550  24.1203430  23.4187280  16.1110930
  24.0577010  23.5100820  14.6012560  27.4655520  23.0954960  15.9891540
  26.9165620  23.5424260  16.6334280  28.0874780  22.5904210  16.5129210
  31.5190460  24.4497060  31.9213800  32.2599930  24.7872820  31.4181260
  30.7563140  24.6189120  31.3683570  19.3552250  19.4550330  32.7253330
  19.3957590  19.1564200  33.6338560  20.2097750  19.8557940  32.5660850
  23.1330640  22.0545880  17.8856840  23.5547060  21.8885750  18.7288230
  23.2581480  21.2446110  17.3911980  21.2958060  18.0342430  30.6927820
  20.7654520  17.5433380  30.0651160  21.9646130  18.4626630  30.1585750
  25.6458280  21.0783490  15.1333940  26.1663940  20.3632510  14.7675090
  26.2926680  21.7169360  15.4334450  30.6658290  19.8408050  32.4608160
  31.2479060  19.0860370  32.3728640  30.8420060  20.3715490  31.6839640
  21.7830360  15.0004800  30.7725110  21.6887230  14.3825550  30.0475980
  21.2027750  15.7271090  30.5455020  24.5491800  13.5578040  27.8052500
  24.1009100  13.5802300  26.9598050  23.9157000  13.1597060  28.4022800
  29.6303150  20.7385740  28.3865290  29.1038370  21.2628360  27.7830430
  29.9734490  21.3713130  29.0175020  22.0289540  18.1279110  14.8315000
  21.8278600  17.2646470  15.1928340  21.8581590  18.0412470  13.8936600
  22.8058770  28.7585380  29.5422670  22.2679860  29.4831440  29.2231370
  23.0592730  28.2815720  28.7520010  24.0584020  16.7269900  31.0678600
  24.6483710  16.4185750  31.7556420  23.2404260  16.2549650  31.2238500
  28.8777450  16.3435710  31.3011620  28.1892970  15.6817250  31.2361610
  29.5983470  15.8973980  31.7460080  29.5077850  12.9387340  17.3601880
  29.7880140  12.0955240  17.7161300  28.7343580  13.1710450  17.8740630
  20.8272340  15.2279730  14.8192880  21.1298240  15.2347160  13.9112030
  21.5666930  14.8777590  15.3160540  25.6620980  29.9936590  29.8009320
  25.5879680  30.8971730  30.1081690  24.7599820  29.6748490  29.7731390
  24.0457270  14.1714350  15.8049080  23.6979270  13.4938340  15.2251530
  24.2470040  13.7103860  16.6192470  26.2106310  29.1595100  17.4235680
  27.1057100  29.4980070  17.4454440  26.2423940  28.4374510  16.7959960
  19.8502470  24.5322150  15.6522680  20.2877340  25.0751820  16.3080260
  20.3350200  23.7069100  15.6619020  17.0648270  27.3211180  23.1042940
  17.3951280  26.4532240  22.8721580  17.4939270  27.5269700  23.9347900
  21.6610190  25.6520190  20.7644910  21.3605730  25.5285160  21.6648820
  21.5547680  24.7928780  20.3560640  17.5538480  28.1881770  25.8424570
  17.1169470  28.3682570  26.6748720  18.1216160  28.9456390  25.7006290
  33.1900660  27.6898770  30.1301880  32.5902650  27.7491330  29.3865800
  33.3194560  26.7503750  30.2598730  34.4302110  25.4316590  15.4671590
  33.5995070  25.4993240  15.9378820  34.6073940  26.3220710  15.1638450
  33.8858570  22.1764070  17.9705790  34.6477480  22.7460720  18.0765480
  33.9012940  21.6091270  18.7414100  17.3862910  20.7002000  22.2013450
  16.7311750  20.4313640  21.5573150  18.2240860  20.5906480  21.7515430
  34.8918540  23.0314170  22.8147720  35.2627370  22.2481490  22.4083690
  35.5320470  23.7203270  22.6365020  31.8752300  24.4150750  28.2278040
  31.0612140  24.8447910  28.4903830  32.2826500  25.0269160  27.6147090
  33.9377740  22.4698440  15.1278310  34.2126580  23.3777320  14.9997530
  33.7488480  22.4060970  16.0640300  30.3353350  15.4943290  16.4231940
  30.7538230  15.3074270  15.5828600  30.0289410  14.6422340  16.7334870
  33.8343080  20.4067430  20.1207740  33.4586680  19.6395360  19.6889030
  33.1046200  20.7890130  20.6082670  18.4238840  21.0854570  26.7416790
  18.7911880  20.9981970  27.6212810  17.8549660  20.3221120  26.6423650
  33.2242700  19.5538950  29.7547260  32.9928790  19.3251700  28.8545210
  33.4847250  20.4738500  29.7092150  17.9754840  17.9963660  30.6475210
  17.0810890  17.9630420  30.9868920  18.5152390  18.1950450  31.4126460
  31.6630770  14.7795380  32.5326960  32.5400950  14.7878780  32.9160960
  31.6751610  14.0426220  31.9219310  16.6000990  17.9100930  18.1438780
  15.6965070  18.1731130  17.9690440  17.0841610  18.1812100  17.3638740
  33.1094040  18.6324920  23.4214980  33.6331520  18.1387570  22.7905150
  33.6953460  18.7675280  24.1662550  33.2883760  18.7164790  26.9434530
  32.3386470  18.6828330  27.0579520  33.4696770  19.6264900  26.7084300
  19.1428200  16.9666470  16.0533160  19.8519900  16.5449690  15.5680440
  18.4268140  17.0341700  15.4216510  18.7902360  13.0205800  15.0935810
  19.5130490  13.5614740  15.4117030  19.0626880  12.7469220  14.2177350
  32.5994010  17.8898270  19.3607390  33.0953130  17.6569140  20.1456270
  32.4010080  17.0510110  18.9445030  18.4794550  12.2711990  24.9958430
  19.1270740  11.7209370  24.5553590  18.8996390  12.5255140  25.8174240
  34.0281170  16.5259220  21.8945070  33.9180450  16.3715260  22.8327340
  34.7888760  15.9980160  21.6520480  32.3746890  12.4653350  28.3528070
  33.0119110  13.0787490  28.7187260  32.5221780  12.5014010  27.4077300
  34.9171440  14.3567140  15.1351210  35.8420750  14.2248320  14.9269500
  34.8947230  14.4359960  16.0887660  34.9909930  15.1277800  17.7607920
  34.1961430  15.0622920  18.2900830  35.1953210  16.0628440  17.7493270
  31.9328350  29.1669350  21.7546310  32.5287420  28.8453920  21.0780730
  32.1906500  28.6941170  22.5459580  18.2326550  12.4267660  27.7383750
  17.8841370  12.8831480  28.5041930  17.9014250  11.5324790  27.8206180
  19.8390920  25.5987260  31.9036940  19.7960550  25.2280170  32.7851400
  19.9701930  26.5364830  32.0438760  23.5396950  27.1546850  27.5046660
  23.2988310  27.4221410  26.6177180  24.4799590  27.3252580  27.5597520
  25.7451370  13.6179540  31.2603170  25.6840260  14.2101370  32.0098580
  26.6851750  13.5105500  31.1153430  28.3825930  13.2749600  30.8995460
  28.9966340  13.5928890  30.2376540  28.9275490  12.7898190  31.5191320
  34.8001110  29.1741230  28.3057300  34.3059390  29.5710100  27.5884430
  34.1914400  28.5490440  28.6994580  18.9047190  11.9543860  31.0134520
  19.4530180  11.7731910  30.2500630  18.9702500  11.1637970  31.5490830
  19.6778950  28.5449510  29.0234720  19.0839270  28.4134210  29.7624760
  19.6702790  27.7087650  28.5576820  29.1233970  11.8381740  27.2264750
  28.2493810  12.1716850  27.0237680  29.0144720  11.3654920  28.0516620
  30.0305950  14.0452610  28.6106470  29.7019310  13.2304370  28.2308200
  30.9788250  14.0022420  28.4872160  32.4840560  29.8164650  25.5844040
  32.0243530  30.5680460  25.2102060  31.8553020  29.0971120  25.5258840
  19.3091180  25.9107890  27.9742760  18.5825240  25.2913180  27.9068710
  19.3700330  26.3048500  27.1040840  22.9136280  28.1252890  24.7592170
  23.4301300  27.5140250  24.2340430  23.5633660  28.6281670  25.2503180
  25.6531780  29.0161380  25.5861150  25.9409590  28.7615680  24.7094160
  26.1655000  28.4638740  26.1766720  26.8708790  12.7551580  26.1657660
  26.0880580  13.2297080  26.4454420  26.5771720  11.8506410  26.0570840
  31.4229860  13.4574680  24.2106750  31.8637950  13.4019780  23.3628350
  31.1537450  14.3732690  24.2816930  33.2868430  13.0889920  22.2215570
  33.2256830  12.1451140  22.0746590  34.0660460  13.1970010  22.7669030
  17.5921180  29.2282280  21.1839520  17.4243220  28.5952960  21.8821410
  16.7255690  29.4341680  20.8333710  18.2149200  13.0599060  18.6871380
  18.9728560  13.1727940  18.1135410  17.7526370  13.8968260  18.6414810
  24.7563010  15.1738330  21.6773690  23.9437520  14.7995220  21.3369570
  25.2604650  14.4183410  21.9794880  29.2587990  11.8380780  22.9156760
  29.8617360  12.4100990  23.3905280  28.5180980  12.4020220  22.6930660
  32.4022590  12.2402340  18.1897040  32.5973220  13.1385790  18.4564470
  31.6152460  12.0089420  18.6829990  19.1983880  27.9215510  18.6289660
  18.6731500  28.3023540  17.9251620  19.1228460  28.5466280  19.3499370
  20.5874350  13.5863110  17.2273350  21.1167110  12.7992910  17.0981300
  21.2202670  14.2654300  17.4608880  22.7812190  13.3238250  20.2818740
  22.1514930  12.6225560  20.4488870  22.2417330  14.0842380  20.0651900
  25.7204140  29.9377480  32.9529350  26.6471450  29.7021750  32.9965310
  25.7054570  30.7649480  32.4715380  33.9549200  29.4803050  19.9503600
  34.1301390  28.7940790  19.3064520  33.2570770  30.0050100  19.5580270
  22.9067750  12.6022230  32.7171230  22.6252020  13.1055830  31.9532050
  23.2887450  11.8043980  32.3513360  21.7976850  29.8697890  17.5038910
  22.5295670  29.5857170  16.9562800  22.0570520  29.6311170  18.3938290
  20.9591640  25.9862620  17.5085240  20.3300520  26.4547720  18.0571070
  21.0739470  25.1411840  17.9431430  29.5083210  12.0175810  33.2951700
  29.3948660  12.3370420  34.1903220  30.3252950  12.4188320  32.9988980
  32.2881700  29.1647340  32.7770390  33.0807020  28.6696570  32.5696350
  32.5814850  29.8437480  33.3846000  28.4141360  20.0368280   3.6586440
  28.3335410  19.1222890   3.3878150  28.0005780  20.5335350   2.9526150
  26.5459400  21.8147300   5.5395710  25.7701500  21.3347740   5.8294280
  27.1972330  21.1352950   5.3651870  20.5625230  22.1267110   6.4171470
  19.7310110  21.8715820   6.8167980  21.1706210  22.1977880   7.1529390
  30.5666830  26.2207490   4.3194840  30.1048360  25.4494730   4.6482010
  31.3792380  26.2473560   4.8247290  20.5426490  26.1607200   6.6129490
  20.8454530  25.2704940   6.4339710  21.2870080  26.7177420   6.3851740
  16.9350190  19.6874650   6.0853560  17.5066300  18.9196850   6.0857200
  16.9351730  19.9863410   5.1760170  26.7930140  28.5065500   3.9398830
  26.1741580  28.9623000   3.3693270  27.6481920  28.6616960   3.5388530
  25.9868390  24.4904490   5.5465870  25.9176670  23.5494430   5.3855000
  26.7488250  24.5805900   6.1188440  18.1775060  15.0959010   7.8722490
  17.9977900  14.1984760   8.1525250  17.7755140  15.6430880   8.5469440
  27.0173560  17.2974870   5.7734800  27.3938380  16.4246750   5.6608470
  26.9193070  17.6333570   4.8825240  30.7997680  14.7925310   2.7063140
  31.6207300  14.3021880   2.7488620  30.8331760  15.3822970   3.4594980
  18.7961730  17.5919510   6.4804830  19.4771840  17.8557880   7.0992230
  18.4809780  16.7520380   6.8142840  22.9886300  18.6386870   5.5677420
  23.4964520  19.1367840   6.2082440  23.5199540  17.8622070   5.3916780
  35.0897230  16.8092060   9.2706770  34.3849400  17.1973770   8.7521880
  35.3555150  17.5042350   9.8727700  21.2722400  13.2785430   9.8340840
  21.2740840  13.7957820   9.0286740  20.4426710  12.8015610   9.8110770
  22.5225250  22.9180610   8.0114340  22.1894630  23.5449530   8.6535410
  22.6991930  23.4442490   7.2316010  31.0359160  16.7325690   5.4790680
  30.3314730  17.0210580   6.0593790  31.3971320  17.5425800   5.1190240
  20.9537730  14.9895390   7.8411290  21.2954540  15.8337440   7.5465160
  20.0153540  15.1379130   7.9576630  21.7344350  24.8861410   9.8263520
  22.3518350  25.5612490   9.5447970  20.8737470  25.2949390   9.7351020
  32.6521940  26.3500820   7.7418160  31.9685460  27.0199930   7.7334830
  33.1916230  26.5481470   6.9763020  34.1046080  16.1780480   5.8699890
  33.1570990  16.2119460   6.0015320  34.4296070  16.9919430   6.2549250
  24.6365620  12.4777660   4.1655880  24.9440600  11.9224550   3.4491380
  23.7066320  12.6122120   3.9828870  30.1880680  28.1944950   6.4563340
  30.2007840  27.7907240   5.5885600  29.6355900  28.9692240   6.3524770
  29.5866120  23.0974790   7.7845950  30.0034910  22.8834900   6.9499410
  30.3105940  23.3547580   8.3554570  33.5328220  21.4962010   7.8762190
  32.7046850  21.5655100   7.4012320  34.1278700  22.0816320   7.4078020
  30.4970230  18.2831330   8.8217060  30.0841410  19.1085040   9.0757050
  29.7646180  17.6976370   8.6293420  22.6303020  21.0691230   3.6835730
  22.2260020  20.3568480   3.1881630  22.7166140  20.7244470   4.5723770
  23.0984720  24.7558790   5.8474940  22.8013010  24.1504260   5.1682720
  24.0484540  24.7936100   5.7364300  21.3431640  17.8434440   7.4634770
  21.8946230  17.9529780   6.6888020  21.8575150  18.2172040   8.1790000
  31.1870330  28.3290660   9.5098040  30.7100890  29.1362850   9.3170650
  30.5032120  27.6768990   9.6624250  22.1903150  24.4940480  12.4982740
  21.2931680  24.7180450  12.7456140  22.2156020  24.6175420  11.5494140
  21.0174370  21.3653800  11.0740110  20.8782140  22.2376600  11.4427510
  20.1355730  21.0226610  10.9288050  27.3403750  26.2829670   2.3805240
  27.7799660  27.0254000   1.9660630  27.2790640  26.5256240   3.3044200
  22.8154720  27.3075500  13.2825260  22.7870150  27.7118450  12.4153690
  22.6519690  26.3785860  13.1196860  34.7669540  28.0902600  14.5789430
  35.2429260  28.5685490  15.2578510  35.3876700  28.0220090  13.8534930
  16.9693020  23.1351350   6.9911020  17.0473440  23.2700120   6.0466740
  17.5834700  22.4267240   7.1839140  18.2140650  24.8351540   3.4017200
  17.8068730  24.9766130   2.5470800  19.1053660  24.5511700   3.1988410
  34.1702790  25.2815450  11.7389440  34.2965850  25.0427330  10.8206620
  34.2124170  24.4499990  12.2111520  28.0319530  28.9843450  10.3084250
  28.5464200  28.8951460  11.1106680  27.1888610  29.3303150  10.6012160
  29.2749990  28.4049060   2.3714740  29.7306940  27.6238440   2.6853360
  29.6142510  29.1155880   2.9155920  34.0226800  17.3347910  12.7039180
  33.4071070  17.8427580  12.1754640  33.7023220  16.4346240  12.6465120
  17.0252540  24.1765520   9.5305480  17.1883580  23.7070880   8.7124850
  17.4904990  23.6689080  10.1954320  21.7971310  13.3071280   4.5666050
  21.3539460  14.0880820   4.2350570  22.3556300  13.6301170   5.2736990
  26.0841120  16.1739800  10.1701370  25.6220490  16.3822820  10.9821310
  25.6819230  15.3599150   9.8672040  31.0845630  17.3948750  11.2998030
  30.2339220  17.0954500  11.6207100  30.9247420  17.6390760  10.3881850
  28.1795340  18.8950500  13.3996820  28.5048750  18.0614250  13.0599050
  28.9675670  19.4179020  13.5475150  23.8347210  13.8518610   6.4255650
  24.1319540  14.7581440   6.3447670  24.3832770  13.3637390   5.8115220
  21.5885530  18.4304850   2.2947300  21.3626450  18.2142020   3.1993920
  20.8078060  18.8633310   1.9493270  24.0284740  19.3290430  12.9607570
  23.9328340  18.3885160  12.8107970  24.8716720  19.5505500  12.5655640
  27.4248160  17.0731760   2.9241230  27.8177730  17.3903960   2.1109920
  27.7865010  16.1943640   3.0385750  19.1595280  15.7404100  11.1141350
  18.7658670  16.5879310  11.3214130  18.4713680  15.1030470  11.3049990
  25.7340330  15.8239070  14.1838090  25.0438650  15.6311270  14.8184180
  26.4772630  16.1073710  14.7162390  16.4612330  13.6632560   5.1471430
  16.1725380  14.2335420   5.8596410  17.2058090  13.1837010   5.5102660
  28.0103300  19.6637510   7.0192010  27.2784420  20.1724320   7.3682110
  27.6127640  18.8467490   6.7180790  24.4480690  16.3391710   5.4244500
  24.4516750  15.8981660   4.5749040  25.3431810  16.6609040   5.5316320
  20.2983070  16.2218200   4.3838710  19.9583120  16.6993430   5.1405760
  19.5360390  15.7683320   4.0239810  28.4729210  15.1171190   6.4314950
  28.4901950  15.5679840   7.2756800  28.2244790  14.2176830   6.6448390
  31.8999960  12.5303370  12.2701330  32.2245730  11.7993030  12.7959310
  31.9356470  12.2117010  11.3682320  18.5991520  23.5516950  11.6901290
  18.2146310  22.9110620  12.2884250  18.9103710  24.2553070  12.2596020
  24.7488660  20.3993490   7.1709910  25.1158790  19.9252060   7.9171250
  24.5593720  21.2735060   7.5118250  17.6129150  15.1437180   3.3003380
  17.3276070  14.7792850   4.1382000  17.5508010  14.4117640   2.6866520
  22.5388030  19.4402130   9.4894120  22.2345100  20.3194110   9.7144480
  23.4934490  19.5001920   9.5251560  31.8257800  22.6428480   5.8787360
  32.5456920  23.1383770   5.4883470  31.6239620  21.9646370   5.2341230
  27.2076600  22.7137540  11.7656360  27.1413910  21.7933210  11.5113950
  26.5781740  22.8112980  12.4801000  21.1107220  23.3143500   3.7239780
  21.6285890  22.5111760   3.6696670  20.6591240  23.2522640   4.5656610
  18.5951760  20.2804870  10.6365480  18.2366700  20.9458720  11.2238820
  18.3006320  19.4488420  11.0078100  21.7964880  20.7389110  13.5205030
  21.4965020  20.8846290  12.6232850  22.5676120  20.1794400  13.4278420
  27.1393330  25.5358110  11.5160160  27.1537870  24.6039070  11.2979070
  26.4318430  25.6217870  12.1549930  33.3504540  22.1765450  10.8628740
  32.6252730  22.7694230  10.6658130  33.8780000  22.1688990  10.0642110
  28.8804130  23.9025620   4.3612590  29.2327950  23.3053750   3.7013960
  27.9966460  23.5769850   4.5320840  24.9667410  24.6623310   1.7683000
  25.6538540  25.2092520   2.1490590  24.1799830  25.2064040   1.8032610
  26.5727230  27.1775680   8.6100660  27.2169450  27.3835060   9.2874080
  26.9356670  26.4164080   8.1571510  27.8459310  25.1808030   7.3278110
  28.4881540  24.4801190   7.4410280  28.3708660  25.9606470   7.1475000
  29.6196930  25.9802930  10.5314170  29.9553170  26.5669620  11.2092090
  28.6997270  25.8495640  10.7611960  17.1700330  13.7698110  11.3137580
  16.4558850  13.9695030  11.9190190  17.5895370  12.9937680  11.6852380
  17.4572920  27.7578370  12.3004110  17.5664040  26.8173110  12.1599500
  16.8053480  28.0233120  11.6517840  25.4485510  26.0294260  13.7002230
  25.1282380  25.3103500  14.2447920  24.7743870  26.7049330  13.7738290
  28.6639110  16.2620420   9.0639030  29.0319930  15.4415630   9.3918600
  27.8037310  16.3222310   9.4794680  25.6241100  18.9160010   9.2877000
  26.1226350  19.3905830   9.9528850  25.7664050  17.9923530   9.4947030
  28.0300600  14.2213970   2.7280260  27.9068380  14.2400100   1.7789770
  28.9785160  14.2692910   2.8478660  32.8307960  15.1327970  10.1305390
  32.3281560  15.8733370  10.4699200  33.6464620  15.5211970   9.8142180
  31.1229970  20.3761150   3.5766750  30.1820110  20.3911380   3.7514440
  31.4374040  19.5897110   4.0227050  33.1255550  27.5470000   5.2521010
  33.2502970  28.3701170   5.7244820  33.9921110  27.3360730   4.9045160
  20.5973080  29.6401210   4.9238140  21.3335560  29.0916670   5.1946710
  20.9814000  30.5057220   4.7844130  19.6031360  28.8247280  14.1123720
  20.4044090  29.1459330  14.5259120  19.0883180  28.4642860  14.8343630
  28.4395990  24.9327150  14.0599130  27.8334150  24.9558750  13.3194880
  28.1350100  24.2010190  14.5966380  29.8696360  28.6607440  12.6708540
  30.8218110  28.5765460  12.6208780  29.7224580  29.3249150  13.3442330
  17.3229170  21.3120740  13.0559770  17.8268190  20.7328020  13.6276000
  16.5836590  21.5960970  13.5936140  24.3767110  22.7191730  12.5895290
  23.6112780  23.2876730  12.5049960  24.5583070  22.4267940  11.6963520
  31.5190460  24.4497060  13.1470310  32.2599930  24.7872820  12.6437770
  30.7563140  24.6189120  12.5940080  19.3552250  19.4550330  13.9509840
  19.3957590  19.1564200  14.8595070  20.2097750  19.8557940  13.7917360
  21.2958060  18.0342430  11.9184330  20.7654520  17.5433380  11.2907670
  21.9646130  18.4626630  11.3842260  30.1936120  22.5011890  11.6825520
  30.6077140  22.6556970  12.5315940  29.2587120  22.6267110  11.8451300
  30.6658290  19.8408050  13.6864670  31.2479060  19.0860370  13.5985150
  30.8420060  20.3715490  12.9096150  21.7830360  15.0004800  11.9981620
  21.6887230  14.3825550  11.2732490  21.2027750  15.7271090  11.7711530
  24.5491800  13.5578040   9.0309010  24.1009100  13.5802300   8.1854560
  23.9157000  13.1597060   9.6279310  24.9551350  22.4532370   9.6521450
  25.3739460  23.2965100   9.4797690  24.0359980  22.5904410   9.4228230
  27.2915250  20.1848550  11.0359290  27.4111460  19.5889690  11.7754130
  28.1509250  20.2218240  10.6160590  29.6303150  20.7385740   9.6121800
  29.1038370  21.2628360   9.0086940  29.9734490  21.3713130  10.2431530
  22.8058770  28.7585380  10.7679180  22.2679860  29.4831440  10.4487880
  23.0592730  28.2815720   9.9776520  24.0584020  16.7269900  12.2935110
  24.6483710  16.4185750  12.9812930  23.2404260  16.2549650  12.4495010
  28.8777450  16.3435710  12.5268130  28.1892970  15.6817250  12.4618120
  29.5983470  15.8973980  12.9716590  25.6620980  29.9936590  11.0265830
  25.5879680  30.8971730  11.3338200  24.7599820  29.6748490  10.9987900
  17.0648270  27.3211180   4.3299450  17.3951280  26.4532240   4.0978090
  17.4939270  27.5269700   5.1604410  17.5538480  28.1881770   7.0681080
  17.1169470  28.3682570   7.9005230  18.1216160  28.9456390   6.9262800
  33.1900660  27.6898770  11.3558390  32.5902650  27.7491330  10.6122310
  33.3194560  26.7503750  11.4855240  17.3862910  20.7002000   3.4269960
  16.7311750  20.4313640   2.7829660  18.2240860  20.5906480   2.9771940
  34.8918540  23.0314170   4.0404230  35.2627370  22.2481490   3.6340200
  35.5320470  23.7203270   3.8621530  31.8752300  24.4150750   9.4534550
  31.0612140  24.8447910   9.7160340  32.2826500  25.0269160   8.8403600
  18.4238840  21.0854570   7.9673300  18.7911880  20.9981970   8.8469320
  17.8549660  20.3221120   7.8680160  33.2242700  19.5538950  10.9803770
  32.9928790  19.3251700  10.0801720  33.4847250  20.4738500  10.9348660
  17.9754840  17.9963660  11.8731720  17.0810890  17.9630420  12.2125430
  18.5152390  18.1950450  12.6382970  31.6630770  14.7795380  13.7583470
  32.5400950  14.7878780  14.1417470  31.6751610  14.0426220  13.1475820
  33.1094040  18.6324920   4.6471490  33.6331520  18.1387570   4.0161660
  33.6953460  18.7675280   5.3919060  33.2883760  18.7164790   8.1691040
  32.3386470  18.6828330   8.2836030  33.4696770  19.6264900   7.9340810
  18.4794550  12.2711990   6.2214940  19.1270740  11.7209370   5.7810100
  18.8996390  12.5255140   7.0430750  34.0281170  16.5259220   3.1201580
  33.9180450  16.3715260   4.0583850  34.7888760  15.9980160   2.8776990
  32.3746890  12.4653350   9.5784580  33.0119110  13.0787490   9.9443770
  32.5221780  12.5014010   8.6333810  31.9328350  29.1669350   2.9802820
  32.5287420  28.8453920   2.3037240  32.1906500  28.6941170   3.7716090
  18.2326550  12.4267660   8.9640260  17.8841370  12.8831480   9.7298440
  17.9014250  11.5324790   9.0462690  19.8390920  25.5987260  13.1293450
  19.7960550  25.2280170  14.0107910  19.9701930  26.5364830  13.2695270
  23.5396950  27.1546850   8.7303170  23.2988310  27.4221410   7.8433690
  24.4799590  27.3252580   8.7854030  25.7451370  13.6179540  12.4859680
  25.6840260  14.2101370  13.2355090  26.6851750  13.5105500  12.3409940
  28.3825930  13.2749600  12.1251970  28.9966340  13.5928890  11.4633050
  28.9275490  12.7898190  12.7447830  34.8001110  29.1741230   9.5313810
  34.3059390  29.5710100   8.8140940  34.1914400  28.5490440   9.9251090
  18.9047190  11.9543860  12.2391030  19.4530180  11.7731910  11.4757140
  18.9702500  11.1637970  12.7747340  19.6778950  28.5449510  10.2491230
  19.0839270  28.4134210  10.9881270  19.6702790  27.7087650   9.7833330
  29.1233970  11.8381740   8.4521260  28.2493810  12.1716850   8.2494190
  29.0144720  11.3654920   9.2773130  30.0305950  14.0452610   9.8362980
  29.7019310  13.2304370   9.4564710  30.9788250  14.0022420   9.7128670
  32.4840560  29.8164650   6.8100550  32.0243530  30.5680460   6.4358570
  31.8553020  29.0971120   6.7515350  19.3091180  25.9107890   9.1999270
  18.5825240  25.2913180   9.1325220  19.3700330  26.3048500   8.3297350
  22.9136280  28.1252890   5.9848680  23.4301300  27.5140250   5.4596940
  23.5633660  28.6281670   6.4759690  25.6531780  29.0161380   6.8117660
  25.9409590  28.7615680   5.9350670  26.1655000  28.4638740   7.4023230
  26.8708790  12.7551580   7.3914170  26.0880580  13.2297080   7.6710930
  26.5771720  11.8506410   7.2827350  31.4229860  13.4574680   5.4363260
  31.8637950  13.4019780   4.5884860  31.1537450  14.3732690   5.5073440
  33.2868430  13.0889920   3.4472080  33.2256830  12.1451140   3.3003100
  34.0660460  13.1970010   3.9925540  17.5921180  29.2282280   2.4096030
  17.4243220  28.5952960   3.1077920  16.7255690  29.4341680   2.0590220
  24.7563010  15.1738330   2.9030200  23.9437520  14.7995220   2.5626080
  25.2604650  14.4183410   3.2051390  29.2587990  11.8380780   4.1413270
  29.8617360  12.4100990   4.6161790  28.5180980  12.4020220   3.9187170
  25.7204140  29.9377480  14.1785860  26.6471450  29.7021750  14.2221820
  25.7054570  30.7649480  13.6971890  22.9067750  12.6022230  13.9427740
  22.6252020  13.1055830  13.1788560  23.2887450  11.8043980  13.5769870
  29.5083210  12.0175810  14.5208210  29.3948660  12.3370420  15.4159730
  30.3252950  12.4188320  14.2245490  32.2881700  29.1647340  14.0026900
  33.0807020  28.6696570  13.7952860  32.5814850  29.8437480  14.6102510
  26.5459400   3.0403810  99.4113160  25.7701500   2.5604250  99.7011730
  27.1972330   2.3609460  99.2369320  20.5625230   3.3523620 100.2888920
  19.7310110   3.0972330 100.6885430  21.1706210   3.4234390 101.0246840
  30.5666830   7.4464000  98.1912290  30.1048360   6.6751240  98.5199460
  31.3792380   7.4730070  98.6964740  20.5426490   7.3863710 100.4846940
  20.8454530   6.4961450 100.3057160  21.2870080   7.9433930 100.2569190
  26.7930140   9.7322010  97.8116280  26.1741580  10.1879510  97.2410720
  27.6481920   9.8873470  97.4105980  25.9868390   5.7161000  99.4183320
  25.9176670   4.7750940  99.2572450  26.7488250   5.8062410  99.9905890
  27.6593490   4.6161250  95.2048190  27.0410760   5.0810700  94.6410910
  28.1716740   5.3088730  95.6217700  22.5225250   4.1437120 101.8831790
  22.1894630   4.7706040 102.5252860  22.6991930   4.6699000 101.1033460
  17.0276690   5.3017780  92.5787820  16.6504670   5.7904880  91.8472720
  17.2849760   5.9743060  93.2094350  32.6521940   7.5757330 101.6135610
  31.9685460   8.2456440 101.6052280  33.1916230   7.7737980 100.8480470
  30.1880680   9.4201460 100.3280790  30.2007840   9.0163750  99.4603050
  29.6355900  10.1948750 100.2242220  31.4826100   6.1417680  95.4170960
  31.3722430   5.1992010  95.5420380  31.4794350   6.5033320  96.3033720
  29.5866120   4.3231300 101.6563400  30.0034910   4.1091410 100.8216860
  30.3105940   4.5804090 102.2272020  27.0246380   1.7683000  94.7733450
  26.0975660   1.7020380  95.0021920  27.1771200   2.7063130  94.6588690
  33.5328220   2.7218520 101.7479640  32.7046850   2.7911610 101.2729770
  34.1278700   3.3072830 101.2795470  31.0543670   3.3303300  95.2768700
  30.4356090   2.9922850  94.6295000  31.0368120   2.6863060  95.9847890
  22.6303020   2.2947740  97.5553180  22.2260020   1.5824990  97.0599080
  22.7166140   1.9500980  98.4441220  23.0984720   5.9815300  99.7192390
  22.8013010   5.3760770  99.0400170  24.0484540   6.0192610  99.6081750
  29.2308370   2.5690110  92.2841450  29.6701650   1.7312540  92.1379270
  29.9436790   3.2019510  92.3705590  27.3403750   7.5086180  96.2522690
  27.7799660   8.2510510  95.8378080  27.2790640   7.7512750  97.1761650
  16.9693020   4.3607860 100.8628470  17.0473440   4.4956630  99.9184190
  17.5834700   3.6523750 101.0556590  18.2140650   6.0608050  97.2734650
  17.8068730   6.2022640  96.4188250  19.1053660   5.7768210  97.0705860
  30.0073930  10.4955300  93.6085700  29.8475070  10.2058240  94.5067530
  29.8420640   9.7195430  93.0730930  22.4862310  10.2753830  95.3857320
  22.3104790   9.3589370  95.1725120  21.6318050  10.6341120  95.6255120
  29.7100060   8.0042860  92.1683700  29.0165220   8.0020150  91.5085980
  30.4522920   7.5802180  91.7377870  29.2749990   9.6305570  96.2432190
  29.7306940   8.8494950  96.5570810  29.6142510  10.3412390  96.7873370
  21.0669820   4.8719630  93.9578420  20.2932080   4.3317250  93.7977140
  21.7964450   4.3526240  93.6196180  31.8257800   3.8684990  99.7504810
  32.5456920   4.3640280  99.3600920  31.6239620   3.1902880  99.1058680
  21.1107220   4.5400010  97.5957230  21.6285890   3.7368270  97.5414120
  20.6591240   4.4779150  98.4374060  25.9976720   5.8066290  92.8684530
  26.3392420   6.5508520  92.3727850  25.1689430   6.1197410  93.2309360
  33.3017650   7.7996700  94.3858350  32.6593810   7.1452320  94.6602070
  32.9148310   8.2051790  93.6099020  28.8804130   5.1282130  98.2330040
  29.2327950   4.5310260  97.5731410  27.9966460   4.8026360  98.4038290
  24.9667410   5.8879820  95.6400450  25.6538540   6.4349030  96.0208040
  24.1799830   6.4320550  95.6750060  24.2694620   2.8925850  95.2525810
  24.7257400   3.7031100  95.4786000  23.9182830   2.5748990  96.0844300
  27.8459310   6.4064540 101.1995560  28.4881540   5.7057700 101.3127730
  28.3708660   7.1862980 101.0192450  31.6915030   6.6913160  90.9234700
  31.4652610   5.9743600  91.5159340  31.3011230   6.4425600  90.0856450
  17.4731060  10.7180020  91.6979160  17.8328700  11.3169360  91.0436430
  17.3323400  11.2639910  92.4714190  31.2731280   4.6085100  92.5848860
  30.9852980   5.0697790  93.3726740  32.0683450   4.1482870  92.8533080
  23.4899680   8.1011220  92.5152830  23.4809780   8.8340910  91.8997340
  22.5698040   7.8542800  92.6079790  19.0906320   3.3226110  93.2599590
  18.4834270   4.0625010  93.2694890  19.5655670   3.4125470  92.4337790
  26.4759280   8.1639460  91.1778020  26.5771260   7.9603450  90.2480000
  25.5761020   7.9097740  91.3825800  25.1177390  10.6825780  95.8725690
  25.3718890  10.6447170  94.9505060  24.1689870  10.5559110  95.8653940
  21.1011610   3.2837260  91.0088160  21.8674880   3.1718620  91.5713590
  21.1786300   2.5875230  90.3564930  33.1255550   8.7726510  99.1238460
  33.2502970   9.5957680  99.5962270  33.9921110   8.5617240  98.7762610
  20.5973080  10.8657720  98.7955590  21.3335560  10.3173180  99.0664160
  20.9814000  11.7313730  98.6561580  17.4818560   6.9331290  94.6697100
  16.5558340   7.1752430  94.6602510  17.9474990   7.7605550  94.5481850
  23.7075390  10.0388030  90.6181160  24.5004000  10.3276860  90.1662950
  23.1879740   9.6080200  89.9393640  32.7605560   9.2658160  92.0417900
  32.4747070   8.8523300  91.2272080  32.5625110  10.1945870  91.9218420
  24.2252790   5.2591440  90.4823510  24.1203430   4.6443790  91.2084890
  24.0577010   4.7357330  89.6986520  27.4655520   4.3211470  91.0865500
  26.9165620   4.7680770  91.7308240  28.0874780   3.8160720  91.6103170
  23.1330640   3.2802390  92.9830800  23.5547060   3.1142260  93.8262190
  23.2581480   2.4702620  92.4885940  25.6458280   2.3040000  90.2307900
  26.1663940   1.5889020  89.8649050  26.2926680   2.9425870  90.5308410
  26.2106310  10.3851610  92.5209640  27.1057100  10.7236580  92.5428400
  26.2423940   9.6631020  91.8933920  19.8502470   5.7578660  90.7496640
  20.2877340   6.3008330  91.4054220  20.3350200   4.9325610  90.7592980
  17.0648270   8.5467690  98.2016900  17.3951280   7.6788750  97.9695540
  17.4939270   8.7526210  99.0321860  21.6610190   6.8776700  95.8618870
  21.3605730   6.7541670  96.7622780  21.5547680   6.0185290  95.4534600
  17.5538480   9.4138280 100.9398530  17.1169470   9.5939080 101.7722680
  18.1216160  10.1712900 100.7980250  34.4302110   6.6573100  90.5645550
  33.5995070   6.7249750  91.0352780  34.6073940   7.5477220  90.2612410
  33.8858570   3.4020580  93.0679750  34.6477480   3.9717230  93.1739440
  33.9012940   2.8347780  93.8388060  17.3862910   1.9258510  97.2987410
  16.7311750   1.6570150  96.6547110  18.2240860   1.8162990  96.8489390
  34.8918540   4.2570680  97.9121680  35.2627370   3.4738000  97.5057650
  35.5320470   4.9459780  97.7338980  33.9377740   3.6954950  90.2252270
  34.2126580   4.6033830  90.0971490  33.7488480   3.6317480  91.1614260
  18.4238840   2.3111080 101.8390750  18.7911880   2.2238480 102.7186770
  17.8549660   1.5477630 101.7397610  31.9328350  10.3925860  96.8520270
  32.5287420  10.0710430  96.1754690  32.1906500   9.9197680  97.6433540
  23.5396950   8.3803360 102.6020620  23.2988310   8.6477920 101.7151140
  24.4799590   8.5509090 102.6571480  32.4840560  11.0421160 100.6818000
  32.0243530  11.7936970 100.3076020  31.8553020  10.3227630 100.6232800
  22.9136280   9.3509400  99.8566130  23.4301300   8.7396760  99.3314390
  23.5633660   9.8538180 100.3477140  25.6531780  10.2417890 100.6835110
  25.9409590   9.9872190  99.8068120  26.1655000   9.6895250 101.2740680
  17.5921180  10.4538790  96.2813480  17.4243220   9.8209470  96.9795370
  16.7255690  10.6598190  95.9307670  19.1983880   9.1472020  93.7263620
  18.6731500   9.5280050  93.0225580  19.1228460   9.7722790  94.4473330
  33.9549200  10.7059560  95.0477560  34.1301390  10.0197300  94.4038480
  33.2570770  11.2306610  94.6554230  21.7976850  11.0954400  92.6012870
  22.5295670  10.8113680  92.0536760  22.0570520  10.8567680  93.4912250
  20.9591640   7.2119130  92.6059200  20.3300520   7.6804230  93.1545030
  21.0739470   6.3668350  93.0405390  26.5459400   3.0403810  80.6369670
  25.7701500   2.5604250  80.9268240  27.1972330   2.3609460  80.4625830
  20.5625230   3.3523620  81.5145430  19.7310110   3.0972330  81.9141940
  21.1706210   3.4234390  82.2503350  30.5666830   7.4464000  79.4168800
  30.1048360   6.6751240  79.7455970  31.3792380   7.4730070  79.9221250
  20.5426490   7.3863710  81.7103450  20.8454530   6.4961450  81.5313670
  21.2870080   7.9433930  81.4825700  26.7930140   9.7322010  79.0372790
  26.1741580  10.1879510  78.4667230  27.6481920   9.8873470  78.6362490
  25.9868390   5.7161000  80.6439830  25.9176670   4.7750940  80.4828960
  26.7488250   5.8062410  81.2162400  27.6593490   4.6161250  76.4304700
  27.0410760   5.0810700  75.8667420  28.1716740   5.3088730  76.8474210
  22.5225250   4.1437120  83.1088300  22.1894630   4.7706040  83.7509370
  22.6991930   4.6699000  82.3289970  21.7344350   6.1117920  84.9237480
  22.3518350   6.7869000  84.6421930  20.8737470   6.5205900  84.8324980
  17.0276690   5.3017780  73.8044330  16.6504670   5.7904880  73.0729230
  17.2849760   5.9743060  74.4350860  32.6521940   7.5757330  82.8392120
  31.9685460   8.2456440  82.8308790  33.1916230   7.7737980  82.0736980
  30.1880680   9.4201460  81.5537300  30.2007840   9.0163750  80.6859560
  29.6355900  10.1948750  81.4498730  31.4826100   6.1417680  76.6427470
  31.3722430   5.1992010  76.7676890  31.4794350   6.5033320  77.5290230
  29.5866120   4.3231300  82.8819910  30.0034910   4.1091410  82.0473370
  30.3105940   4.5804090  83.4528530  27.0246380   1.7683000  75.9989960
  26.0975660   1.7020380  76.2278430  27.1771200   2.7063130  75.8845200
  33.5328220   2.7218520  82.9736150  32.7046850   2.7911610  82.4986280
  34.1278700   3.3072830  82.5051980  31.0543670   3.3303300  76.5025210
  30.4356090   2.9922850  75.8551510  31.0368120   2.6863060  77.2104400
  22.6303020   2.2947740  78.7809690  22.2260020   1.5824990  78.2855590
  22.7166140   1.9500980  79.6697730  23.0984720   5.9815300  80.9448900
  22.8013010   5.3760770  80.2656680  24.0484540   6.0192610  80.8338260
  31.1870330   9.5547170  84.6072000  30.7100890  10.3619360  84.4144610
  30.5032120   8.9025500  84.7598210  22.1903150   5.7196990  87.5956700
  21.2931680   5.9436960  87.8430100  22.2156020   5.8431930  86.6468100
  29.2308370   2.5690110  73.5097960  29.6701650   1.7312540  73.3635780
  29.9436790   3.2019510  73.5962100  21.0174370   2.5910310  86.1714070
  20.8782140   3.4633110  86.5401470  20.1355730   2.2483120  86.0262010
  27.3403750   7.5086180  77.4779200  27.7799660   8.2510510  77.0634590
  27.2790640   7.7512750  78.4018160  22.8154720   8.5332010  88.3799220
  22.7870150   8.9374960  87.5127650  22.6519690   7.6042370  88.2170820
  34.7669540   9.3159110  89.6763390  35.2429260   9.7942000  90.3552470
  35.3876700   9.2476600  88.9508890  16.9693020   4.3607860  82.0884980
  17.0473440   4.4956630  81.1440700  17.5834700   3.6523750  82.2813100
  18.2140650   6.0608050  78.4991160  17.8068730   6.2022640  77.6444760
  19.1053660   5.7768210  78.2962370  34.1702790   6.5071960  86.8363400
  34.2965850   6.2683840  85.9180580  34.2124170   5.6756500  87.3085480
  28.0319530  10.2099960  85.4058210  28.5464200  10.1207970  86.2080640
  27.1888610  10.5559660  85.6986120  30.0073930  10.4955300  74.8342210
  29.8475070  10.2058240  75.7324040  29.8420640   9.7195430  74.2987440
  22.4862310  10.2753830  76.6113830  22.3104790   9.3589370  76.3981630
  21.6318050  10.6341120  76.8511630  29.7100060   8.0042860  73.3940210
  29.0165220   8.0020150  72.7342490  30.4522920   7.5802180  72.9634380
  29.2749990   9.6305570  77.4688700  29.7306940   8.8494950  77.7827320
  29.6142510  10.3412390  78.0129880  17.0252540   5.4022030  84.6279440
  17.1883580   4.9327390  83.8098810  17.4904990   4.8945590  85.2928280
  18.5991520   4.7773460  86.7875250  18.2146310   4.1367130  87.3858210
  18.9103710   5.4809580  87.3569980  21.0669820   4.8719630  75.1834930
  20.2932080   4.3317250  75.0233650  21.7964450   4.3526240  74.8452690
  31.8257800   3.8684990  80.9761320  32.5456920   4.3640280  80.5857430
  31.6239620   3.1902880  80.3315190  27.2076600   3.9394050  86.8630320
  27.1413910   3.0189720  86.6087910  26.5781740   4.0369490  87.5774960
  21.1107220   4.5400010  78.8213740  21.6285890   3.7368270  78.7670630
  20.6591240   4.4779150  79.6630570  25.9976720   5.8066290  74.0941040
  26.3392420   6.5508520  73.5984360  25.1689430   6.1197410  74.4565870
  27.1393330   6.7614620  86.6134120  27.1537870   5.8295580  86.3953030
  26.4318430   6.8474380  87.2523890  33.3504540   3.4021960  85.9602700
  32.6252730   3.9950740  85.7632090  33.8780000   3.3945500  85.1616070
  33.3017650   7.7996700  75.6114860  32.6593810   7.1452320  75.8858580
  32.9148310   8.2051790  74.8355530  28.8804130   5.1282130  79.4586550
  29.2327950   4.5310260  78.7987920  27.9966460   4.8026360  79.6294800
  24.9667410   5.8879820  76.8656960  25.6538540   6.4349030  77.2464550
  24.1799830   6.4320550  76.9006570  24.2694620   2.8925850  76.4782320
  24.7257400   3.7031100  76.7042510  23.9182830   2.5748990  77.3100810
  26.5727230   8.4032190  83.7074620  27.2169450   8.6091570  84.3848040
  26.9356670   7.6420590  83.2545470  27.8459310   6.4064540  82.4252070
  28.4881540   5.7057700  82.5384240  28.3708660   7.1862980  82.2448960
  31.6915030   6.6913160  72.1491210  31.4652610   5.9743600  72.7415850
  31.3011230   6.4425600  71.3112960  29.6196930   7.2059440  85.6288130
  29.9553170   7.7926130  86.3066050  28.6997270   7.0752150  85.8585920
  17.4731060  10.7180020  72.9235670  17.8328700  11.3169360  72.2692940
  17.3323400  11.2639910  73.6970700  31.2731280   4.6085100  73.8105370
  30.9852980   5.0697790  74.5983250  32.0683450   4.1482870  74.0789590
  17.4572920   8.9834880  87.3978070  17.5664040   8.0429620  87.2573460
  16.8053480   9.2489630  86.7491800  25.4485510   7.2550770  88.7976190
  25.1282380   6.5360010  89.3421880  24.7743870   7.9305840  88.8712250
  23.4899680   8.1011220  73.7409340  23.4809780   8.8340910  73.1253850
  22.5698040   7.8542800  73.8336300  19.0906320   3.3226110  74.4856100
  18.4834270   4.0625010  74.4951400  19.5655670   3.4125470  73.6594300
  26.4759280   8.1639460  72.4034530  26.5771260   7.9603450  71.4736510
  25.5761020   7.9097740  72.6082310  25.1177390  10.6825780  77.0982200
  25.3718890  10.6447170  76.1761570  24.1689870  10.5559110  77.0910450
  21.1011610   3.2837260  72.2344670  21.8674880   3.1718620  72.7970100
  21.1786300   2.5875230  71.5821440  33.1255550   8.7726510  80.3494970
  33.2502970   9.5957680  80.8218780  33.9921110   8.5617240  80.0019120
  20.5973080  10.8657720  80.0212100  21.3335560  10.3173180  80.2920670
  20.9814000  11.7313730  79.8818090  17.4818560   6.9331290  75.8953610
  16.5558340   7.1752430  75.8859020  17.9474990   7.7605550  75.7738360
  19.6031360  10.0503790  89.2097680  20.4044090  10.3715840  89.6233080
  19.0883180   9.6899370  89.9317590  23.7075390  10.0388030  71.8437670
  24.5004000  10.3276860  71.3919460  23.1879740   9.6080200  71.1650150
  28.4395990   6.1583660  89.1573090  27.8334150   6.1815260  88.4168840
  28.1350100   5.4266700  89.6940340  29.8696360   9.8863950  87.7682500
  30.8218110   9.8021970  87.7182740  29.7224580  10.5505660  88.4416290
  32.7605560   9.2658160  73.2674410  32.4747070   8.8523300  72.4528590
  32.5625110  10.1945870  73.1474930  17.3229170   2.5377250  88.1533730
  17.8268190   1.9584530  88.7249960  16.5836590   2.8217480  88.6910100
  24.2252790   5.2591440  71.7080020  24.1203430   4.6443790  72.4341400
  24.0577010   4.7357330  70.9243030  24.3767110   3.9448240  87.6869250
  23.6112780   4.5133240  87.6023920  24.5583070   3.6524450  86.7937480
  27.4655520   4.3211470  72.3122010  26.9165620   4.7680770  72.9564750
  28.0874780   3.8160720  72.8359680  31.5190460   5.6753570  88.2444270
  32.2599930   6.0129330  87.7411730  30.7563140   5.8445630  87.6914040
  23.1330640   3.2802390  74.2087310  23.5547060   3.1142260  75.0518700
  23.2581480   2.4702620  73.7142450  25.6458280   2.3040000  71.4564410
  26.1663940   1.5889020  71.0905560  26.2926680   2.9425870  71.7564920
  30.1936120   3.7268400  86.7799480  30.6077140   3.8813480  87.6289900
  29.2587120   3.8523620  86.9425260  24.9551350   3.6788880  84.7495410
  25.3739460   4.5221610  84.5771650  24.0359980   3.8160920  84.5202190
  29.6303150   1.9642250  84.7095760  29.1038370   2.4884870  84.1060900
  29.9734490   2.5969640  85.3405490  22.8058770   9.9841890  85.8653140
  22.2679860  10.7087950  85.5461840  23.0592730   9.5072230  85.0750480
  25.6620980  11.2193100  86.1239790  25.5879680  12.1228240  86.4312160
  24.7599820  10.9005000  86.0961860  26.2106310  10.3851610  73.7466150
  27.1057100  10.7236580  73.7684910  26.2423940   9.6631020  73.1190430
  19.8502470   5.7578660  71.9753150  20.2877340   6.3008330  72.6310730
  20.3350200   4.9325610  71.9849490  17.0648270   8.5467690  79.4273410
  17.3951280   7.6788750  79.1952050  17.4939270   8.7526210  80.2578370
  21.6610190   6.8776700  77.0875380  21.3605730   6.7541670  77.9879290
  21.5547680   6.0185290  76.6791110  17.5538480   9.4138280  82.1655040
  17.1169470   9.5939080  82.9979190  18.1216160  10.1712900  82.0236760
  33.1900660   8.9155280  86.4532350  32.5902650   8.9747840  85.7096270
  33.3194560   7.9760260  86.5829200  34.4302110   6.6573100  71.7902060
  33.5995070   6.7249750  72.2609290  34.6073940   7.5477220  71.4868920
  33.8858570   3.4020580  74.2936260  34.6477480   3.9717230  74.3995950
  33.9012940   2.8347780  75.0644570  17.3862910   1.9258510  78.5243920
  16.7311750   1.6570150  77.8803620  18.2240860   1.8162990  78.0745900
  34.8918540   4.2570680  79.1378190  35.2627370   3.4738000  78.7314160
  35.5320470   4.9459780  78.9595490  31.8752300   5.6407260  84.5508510
  31.0612140   6.0704420  84.8134300  32.2826500   6.2525670  83.9377560
  33.9377740   3.6954950  71.4508780  34.2126580   4.6033830  71.3228000
  33.7488480   3.6317480  72.3870770  18.4238840   2.3111080  83.0647260
  18.7911880   2.2238480  83.9443280  17.8549660   1.5477630  82.9654120
  31.9328350  10.3925860  78.0776780  32.5287420  10.0710430  77.4011200
  32.1906500   9.9197680  78.8690050  19.8390920   6.8243770  88.2267410
  19.7960550   6.4536680  89.1081870  19.9701930   7.7621340  88.3669230
  23.5396950   8.3803360  83.8277130  23.2988310   8.6477920  82.9407650
  24.4799590   8.5509090  83.8827990  34.8001110  10.3997740  84.6287770
  34.3059390  10.7966610  83.9114900  34.1914400   9.7746950  85.0225050
  19.6778950   9.7706020  85.3465190  19.0839270   9.6390720  86.0855230
  19.6702790   8.9344160  84.8807290  32.4840560  11.0421160  81.9074510
  32.0243530  11.7936970  81.5332530  31.8553020  10.3227630  81.8489310
  19.3091180   7.1364400  84.2973230  18.5825240   6.5169690  84.2299180
  19.3700330   7.5305010  83.4271310  22.9136280   9.3509400  81.0822640
  23.4301300   8.7396760  80.5570900  23.5633660   9.8538180  81.5733650
  25.6531780  10.2417890  81.9091620  25.9409590   9.9872190  81.0324630
  26.1655000   9.6895250  82.4997190  17.5921180  10.4538790  77.5069990
  17.4243220   9.8209470  78.2051880  16.7255690  10.6598190  77.1564180
  19.1983880   9.1472020  74.9520130  18.6731500   9.5280050  74.2482090
  19.1228460   9.7722790  75.6729840  25.7204140  11.1633990  89.2759820
  26.6471450  10.9278260  89.3195780  25.7054570  11.9905990  88.7945850
  33.9549200  10.7059560  76.2734070  34.1301390  10.0197300  75.6294990
  33.2570770  11.2306610  75.8810740  21.7976850  11.0954400  73.8269380
  22.5295670  10.8113680  73.2793270  22.0570520  10.8567680  74.7168760
  20.9591640   7.2119130  73.8315710  20.3300520   7.6804230  74.3801540
  21.0739470   6.3668350  74.2661900  32.2881700  10.3903850  89.1000860
  33.0807020   9.8953080  88.8926820  32.5814850  11.0693990  89.7076470
  26.5459400   3.0403810  61.8626180  25.7701500   2.5604250  62.1524750
  27.1972330   2.3609460  61.6882340  20.5625230   3.3523620  62.7401940
  19.7310110   3.0972330  63.1398450  21.1706210   3.4234390  63.4759860
  30.5666830   7.4464000  60.6425310  30.1048360   6.6751240  60.9712480
  31.3792380   7.4730070  61.1477760  20.5426490   7.3863710  62.9359960
  20.8454530   6.4961450  62.7570180  21.2870080   7.9433930  62.7082210
  26.7930140   9.7322010  60.2629300  26.1741580  10.1879510  59.6923740
  27.6481920   9.8873470  59.8619000  25.9868390   5.7161000  61.8696340
  25.9176670   4.7750940  61.7085470  26.7488250   5.8062410  62.4418910
  27.6593490   4.6161250  57.6561210  27.0410760   5.0810700  57.0923930
  28.1716740   5.3088730  58.0730720  22.5225250   4.1437120  64.3344810
  22.1894630   4.7706040  64.9765880  22.6991930   4.6699000  63.5546480
  21.7344350   6.1117920  66.1493990  22.3518350   6.7869000  65.8678440
  20.8737470   6.5205900  66.0581490  17.0276690   5.3017780  55.0300840
  16.6504670   5.7904880  54.2985740  17.2849760   5.9743060  55.6607370
  32.6521940   7.5757330  64.0648630  31.9685460   8.2456440  64.0565300
  33.1916230   7.7737980  63.2993490  30.1880680   9.4201460  62.7793810
  30.2007840   9.0163750  61.9116070  29.6355900  10.1948750  62.6755240
  31.4826100   6.1417680  57.8683980  31.3722430   5.1992010  57.9933400
  31.4794350   6.5033320  58.7546740  29.5866120   4.3231300  64.1076420
  30.0034910   4.1091410  63.2729880  30.3105940   4.5804090  64.6785040
  27.0246380   1.7683000  57.2246470  26.0975660   1.7020380  57.4534940
  27.1771200   2.7063130  57.1101710  33.5328220   2.7218520  64.1992660
  32.7046850   2.7911610  63.7242790  34.1278700   3.3072830  63.7308490
  31.0543670   3.3303300  57.7281720  30.4356090   2.9922850  57.0808020
  31.0368120   2.6863060  58.4360910  22.6303020   2.2947740  60.0066200
  22.2260020   1.5824990  59.5112100  22.7166140   1.9500980  60.8954240
  23.0984720   5.9815300  62.1705410  22.8013010   5.3760770  61.4913190
  24.0484540   6.0192610  62.0594770  31.1870330   9.5547170  65.8328510
  30.7100890  10.3619360  65.6401120  30.5032120   8.9025500  65.9854720
  22.1903150   5.7196990  68.8213210  21.2931680   5.9436960  69.0686610
  22.2156020   5.8431930  67.8724610  29.2308370   2.5690110  54.7354470
  29.6701650   1.7312540  54.5892290  29.9436790   3.2019510  54.8218610
  21.0174370   2.5910310  67.3970580  20.8782140   3.4633110  67.7657980
  20.1355730   2.2483120  67.2518520  27.3403750   7.5086180  58.7035710
  27.7799660   8.2510510  58.2891100  27.2790640   7.7512750  59.6274670
  22.8154720   8.5332010  69.6055730  22.7870150   8.9374960  68.7384160
  22.6519690   7.6042370  69.4427330  34.7669540   9.3159110  70.9019900
  35.2429260   9.7942000  71.5808980  35.3876700   9.2476600  70.1765400
  16.9693020   4.3607860  63.3141490  17.0473440   4.4956630  62.3697210
  17.5834700   3.6523750  63.5069610  18.2140650   6.0608050  59.7247670
  17.8068730   6.2022640  58.8701270  19.1053660   5.7768210  59.5218880
  34.1702790   6.5071960  68.0619910  34.2965850   6.2683840  67.1437090
  34.2124170   5.6756500  68.5341990  28.0319530  10.2099960  66.6314720
  28.5464200  10.1207970  67.4337150  27.1888610  10.5559660  66.9242630
  30.0073930  10.4955300  56.0598720  29.8475070  10.2058240  56.9580550
  29.8420640   9.7195430  55.5243950  22.4862310  10.2753830  57.8370340
  22.3104790   9.3589370  57.6238140  21.6318050  10.6341120  58.0768140
  29.7100060   8.0042860  54.6196720  29.0165220   8.0020150  53.9599000
  30.4522920   7.5802180  54.1890890  29.2749990   9.6305570  58.6945210
  29.7306940   8.8494950  59.0083830  29.6142510  10.3412390  59.2386390
  17.0252540   5.4022030  65.8535950  17.1883580   4.9327390  65.0355320
  17.4904990   4.8945590  66.5184790  18.5991520   4.7773460  68.0131760
  18.2146310   4.1367130  68.6114720  18.9103710   5.4809580  68.5826490
  21.0669820   4.8719630  56.4091440  20.2932080   4.3317250  56.2490160
  21.7964450   4.3526240  56.0709200  31.8257800   3.8684990  62.2017830
  32.5456920   4.3640280  61.8113940  31.6239620   3.1902880  61.5571700
  27.2076600   3.9394050  68.0886830  27.1413910   3.0189720  67.8344420
  26.5781740   4.0369490  68.8031470  21.1107220   4.5400010  60.0470250
  21.6285890   3.7368270  59.9927140  20.6591240   4.4779150  60.8887080
  25.9976720   5.8066290  55.3197550  26.3392420   6.5508520  54.8240870
  25.1689430   6.1197410  55.6822380  27.1393330   6.7614620  67.8390630
  27.1537870   5.8295580  67.6209540  26.4318430   6.8474380  68.4780400
  33.3504540   3.4021960  67.1859210  32.6252730   3.9950740  66.9888600
  33.8780000   3.3945500  66.3872580  33.3017650   7.7996700  56.8371370
  32.6593810   7.1452320  57.1115090  32.9148310   8.2051790  56.0612040
  28.8804130   5.1282130  60.6843060  29.2327950   4.5310260  60.0244430
  27.9966460   4.8026360  60.8551310  24.9667410   5.8879820  58.0913470
  25.6538540   6.4349030  58.4721060  24.1799830   6.4320550  58.1263080
  24.2694620   2.8925850  57.7038830  24.7257400   3.7031100  57.9299020
  23.9182830   2.5748990  58.5357320  26.5727230   8.4032190  64.9331130
  27.2169450   8.6091570  65.6104550  26.9356670   7.6420590  64.4801980
  27.8459310   6.4064540  63.6508580  28.4881540   5.7057700  63.7640750
  28.3708660   7.1862980  63.4705470  31.6915030   6.6913160  53.3747720
  31.4652610   5.9743600  53.9672360  31.3011230   6.4425600  52.5369470
  29.6196930   7.2059440  66.8544640  29.9553170   7.7926130  67.5322560
  28.6997270   7.0752150  67.0842430  17.4731060  10.7180020  54.1492180
  17.8328700  11.3169360  53.4949450  17.3323400  11.2639910  54.9227210
  31.2731280   4.6085100  55.0361880  30.9852980   5.0697790  55.8239760
  32.0683450   4.1482870  55.3046100  17.4572920   8.9834880  68.6234580
  17.5664040   8.0429620  68.4829970  16.8053480   9.2489630  67.9748310
  25.4485510   7.2550770  70.0232700  25.1282380   6.5360010  70.5678390
  24.7743870   7.9305840  70.0968760  23.4899680   8.1011220  54.9665850
  23.4809780   8.8340910  54.3510360  22.5698040   7.8542800  55.0592810
  19.0906320   3.3226110  55.7112610  18.4834270   4.0625010  55.7207910
  19.5655670   3.4125470  54.8850810  26.4759280   8.1639460  53.6291040
  26.5771260   7.9603450  52.6993020  25.5761020   7.9097740  53.8338820
  25.1177390  10.6825780  58.3238710  25.3718890  10.6447170  57.4018080
  24.1689870  10.5559110  58.3166960  21.1011610   3.2837260  53.4601180
  21.8674880   3.1718620  54.0226610  21.1786300   2.5875230  52.8077950
  33.1255550   8.7726510  61.5751480  33.2502970   9.5957680  62.0475290
  33.9921110   8.5617240  61.2275630  20.5973080  10.8657720  61.2468610
  21.3335560  10.3173180  61.5177180  20.9814000  11.7313730  61.1074600
  17.4818560   6.9331290  57.1210120  16.5558340   7.1752430  57.1115530
  17.9474990   7.7605550  56.9994870  19.6031360  10.0503790  70.4354190
  20.4044090  10.3715840  70.8489590  19.0883180   9.6899370  71.1574100
  23.7075390  10.0388030  53.0694180  24.5004000  10.3276860  52.6175970
  23.1879740   9.6080200  52.3906660  28.4395990   6.1583660  70.3829600
  27.8334150   6.1815260  69.6425350  28.1350100   5.4266700  70.9196850
  29.8696360   9.8863950  68.9939010  30.8218110   9.8021970  68.9439250
  29.7224580  10.5505660  69.6672800  32.7605560   9.2658160  54.4930920
  32.4747070   8.8523300  53.6785100  32.5625110  10.1945870  54.3731440
  17.3229170   2.5377250  69.3790240  17.8268190   1.9584530  69.9506470
  16.5836590   2.8217480  69.9166610  24.2252790   5.2591440  52.9336530
  24.1203430   4.6443790  53.6597910  24.0577010   4.7357330  52.1499540
  24.3767110   3.9448240  68.9125760  23.6112780   4.5133240  68.8280430
  24.5583070   3.6524450  68.0193990  27.4655520   4.3211470  53.5378520
  26.9165620   4.7680770  54.1821260  28.0874780   3.8160720  54.0616190
  31.5190460   5.6753570  69.4700780  32.2599930   6.0129330  68.9668240
  30.7563140   5.8445630  68.9170550  23.1330640   3.2802390  55.4343820
  23.5547060   3.1142260  56.2775210  23.2581480   2.4702620  54.9398960
  25.6458280   2.3040000  52.6820920  26.1663940   1.5889020  52.3162070
  26.2926680   2.9425870  52.9821430  30.1936120   3.7268400  68.0055990
  30.6077140   3.8813480  68.8546410  29.2587120   3.8523620  68.1681770
  24.9551350   3.6788880  65.9751920  25.3739460   4.5221610  65.8028160
  24.0359980   3.8160920  65.7458700  29.6303150   1.9642250  65.9352270
  29.1038370   2.4884870  65.3317410  29.9734490   2.5969640  66.5662000
  22.8058770   9.9841890  67.0909650  22.2679860  10.7087950  66.7718350
  23.0592730   9.5072230  66.3006990  25.6620980  11.2193100  67.3496300
  25.5879680  12.1228240  67.6568670  24.7599820  10.9005000  67.3218370
  26.2106310  10.3851610  54.9722660  27.1057100  10.7236580  54.9941420
  26.2423940   9.6631020  54.3446940  19.8502470   5.7578660  53.2009660
  20.2877340   6.3008330  53.8567240  20.3350200   4.9325610  53.2106000
  17.0648270   8.5467690  60.6529920  17.3951280   7.6788750  60.4208560
  17.4939270   8.7526210  61.4834880  21.6610190   6.8776700  58.3131890
  21.3605730   6.7541670  59.2135800  21.5547680   6.0185290  57.9047620
  17.5538480   9.4138280  63.3911550  17.1169470   9.5939080  64.2235700
  18.1216160  10.1712900  63.2493270  33.1900660   8.9155280  67.6788860
  32.5902650   8.9747840  66.9352780  33.3194560   7.9760260  67.8085710
  34.4302110   6.6573100  53.0158570  33.5995070   6.7249750  53.4865800
  34.6073940   7.5477220  52.7125430  33.8858570   3.4020580  55.5192770
  34.6477480   3.9717230  55.6252460  33.9012940   2.8347780  56.2901080
  17.3862910   1.9258510  59.7500430  16.7311750   1.6570150  59.1060130
  18.2240860   1.8162990  59.3002410  34.8918540   4.2570680  60.3634700
  35.2627370   3.4738000  59.9570670  35.5320470   4.9459780  60.1852000
  31.8752300   5.6407260  65.7765020  31.0612140   6.0704420  66.0390810
  32.2826500   6.2525670  65.1634070  33.9377740   3.6954950  52.6765290
  34.2126580   4.6033830  52.5484510  33.7488480   3.6317480  53.6127280
  18.4238840   2.3111080  64.2903770  18.7911880   2.2238480  65.1699790
  17.8549660   1.5477630  64.1910630  31.9328350  10.3925860  59.3033290
  32.5287420  10.0710430  58.6267710  32.1906500   9.9197680  60.0946560
  19.8390920   6.8243770  69.4523920  19.7960550   6.4536680  70.3338380
  19.9701930   7.7621340  69.5925740  23.5396950   8.3803360  65.0533640
  23.2988310   8.6477920  64.1664160  24.4799590   8.5509090  65.1084500
  34.8001110  10.3997740  65.8544280  34.3059390  10.7966610  65.1371410
  34.1914400   9.7746950  66.2481560  19.6778950   9.7706020  66.5721700
  19.0839270   9.6390720  67.3111740  19.6702790   8.9344160  66.1063800
  32.4840560  11.0421160  63.1331020  32.0243530  11.7936970  62.7589040
  31.8553020  10.3227630  63.0745820  19.3091180   7.1364400  65.5229740
  18.5825240   6.5169690  65.4555690  19.3700330   7.5305010  64.6527820
  22.9136280   9.3509400  62.3079150  23.4301300   8.7396760  61.7827410
  23.5633660   9.8538180  62.7990160  25.6531780  10.2417890  63.1348130
  25.9409590   9.9872190  62.2581140  26.1655000   9.6895250  63.7253700
  17.5921180  10.4538790  58.7326500  17.4243220   9.8209470  59.4308390
  16.7255690  10.6598190  58.3820690  19.1983880   9.1472020  56.1776640
  18.6731500   9.5280050  55.4738600  19.1228460   9.7722790  56.8986350
  25.7204140  11.1633990  70.5016330  26.6471450  10.9278260  70.5452290
  25.7054570  11.9905990  70.0202360  33.9549200  10.7059560  57.4990580
  34.1301390  10.0197300  56.8551500  33.2570770  11.2306610  57.1067250
  21.7976850  11.0954400  55.0525890  22.5295670  10.8113680  54.5049780
  22.0570520  10.8567680  55.9425270  20.9591640   7.2119130  55.0572220
  20.3300520   7.6804230  55.6058050  21.0739470   6.3668350  55.4918410
  32.2881700  10.3903850  70.3257370  33.0807020   9.8953080  70.1183330
  32.5814850  11.0693990  70.9332980  26.5459400   3.0403810  43.0882690
  25.7701500   2.5604250  43.3781260  27.1972330   2.3609460  42.9138850
  20.5625230   3.3523620  43.9658450  19.7310110   3.0972330  44.3654960
  21.1706210   3.4234390  44.7016370  30.5666830   7.4464000  41.8681820
  30.1048360   6.6751240  42.1968990  31.3792380   7.4730070  42.3734270
  20.5426490   7.3863710  44.1616470  20.8454530   6.4961450  43.9826690
  21.2870080   7.9433930  43.9338720  26.7930140   9.7322010  41.4885810
  26.1741580  10.1879510  40.9180250  27.6481920   9.8873470  41.0875510
  25.9868390   5.7161000  43.0952850  25.9176670   4.7750940  42.9341980
  26.7488250   5.8062410  43.6675420  27.6593490   4.6161250  38.8817720
  27.0410760   5.0810700  38.3180440  28.1716740   5.3088730  39.2987230
  22.5225250   4.1437120  45.5601320  22.1894630   4.7706040  46.2022390
  22.6991930   4.6699000  44.7802990  21.7344350   6.1117920  47.3750500
  22.3518350   6.7869000  47.0934950  20.8737470   6.5205900  47.2838000
  17.0276690   5.3017780  36.2557350  16.6504670   5.7904880  35.5242250
  17.2849760   5.9743060  36.8863880  32.6521940   7.5757330  45.2905140
  31.9685460   8.2456440  45.2821810  33.1916230   7.7737980  44.5250000
  30.1880680   9.4201460  44.0050320  30.2007840   9.0163750  43.1372580
  29.6355900  10.1948750  43.9011750  31.4826100   6.1417680  39.0940490
  31.3722430   5.1992010  39.2189910  31.4794350   6.5033320  39.9803250
  29.5866120   4.3231300  45.3332930  30.0034910   4.1091410  44.4986390
  30.3105940   4.5804090  45.9041550  27.0246380   1.7683000  38.4502980
  26.0975660   1.7020380  38.6791450  27.1771200   2.7063130  38.3358220
  33.5328220   2.7218520  45.4249170  32.7046850   2.7911610  44.9499300
  34.1278700   3.3072830  44.9565000  31.0543670   3.3303300  38.9538230
  30.4356090   2.9922850  38.3064530  31.0368120   2.6863060  39.6617420
  22.6303020   2.2947740  41.2322710  22.2260020   1.5824990  40.7368610
  22.7166140   1.9500980  42.1210750  23.0984720   5.9815300  43.3961920
  22.8013010   5.3760770  42.7169700  24.0484540   6.0192610  43.2851280
  31.1870330   9.5547170  47.0585020  30.7100890  10.3619360  46.8657630
  30.5032120   8.9025500  47.2111230  22.1903150   5.7196990  50.0469720
  21.2931680   5.9436960  50.2943120  22.2156020   5.8431930  49.0981120
  29.2308370   2.5690110  35.9610980  29.6701650   1.7312540  35.8148800
  29.9436790   3.2019510  36.0475120  21.0174370   2.5910310  48.6227090
  20.8782140   3.4633110  48.9914490  20.1355730   2.2483120  48.4775030
  27.3403750   7.5086180  39.9292220  27.7799660   8.2510510  39.5147610
  27.2790640   7.7512750  40.8531180  22.8154720   8.5332010  50.8312240
  22.7870150   8.9374960  49.9640670  22.6519690   7.6042370  50.6683840
  34.7669540   9.3159110  52.1276410  35.2429260   9.7942000  52.8065490
  35.3876700   9.2476600  51.4021910  16.9693020   4.3607860  44.5398000
  17.0473440   4.4956630  43.5953720  17.5834700   3.6523750  44.7326120
  18.2140650   6.0608050  40.9504180  17.8068730   6.2022640  40.0957780
  19.1053660   5.7768210  40.7475390  34.1702790   6.5071960  49.2876420
  34.2965850   6.2683840  48.3693600  34.2124170   5.6756500  49.7598500
  28.0319530  10.2099960  47.8571230  28.5464200  10.1207970  48.6593660
  27.1888610  10.5559660  48.1499140  30.0073930  10.4955300  37.2855230
  29.8475070  10.2058240  38.1837060  29.8420640   9.7195430  36.7500460
  22.4862310  10.2753830  39.0626850  22.3104790   9.3589370  38.8494650
  21.6318050  10.6341120  39.3024650  29.7100060   8.0042860  35.8453230
  29.0165220   8.0020150  35.1855510  30.4522920   7.5802180  35.4147400
  29.2749990   9.6305570  39.9201720  29.7306940   8.8494950  40.2340340
  29.6142510  10.3412390  40.4642900  17.0252540   5.4022030  47.0792460
  17.1883580   4.9327390  46.2611830  17.4904990   4.8945590  47.7441300
  18.5991520   4.7773460  49.2388270  18.2146310   4.1367130  49.8371230
  18.9103710   5.4809580  49.8083000  21.0669820   4.8719630  37.6347950
  20.2932080   4.3317250  37.4746670  21.7964450   4.3526240  37.2965710
  31.8257800   3.8684990  43.4274340  32.5456920   4.3640280  43.0370450
  31.6239620   3.1902880  42.7828210  27.2076600   3.9394050  49.3143340
  27.1413910   3.0189720  49.0600930  26.5781740   4.0369490  50.0287980
  21.1107220   4.5400010  41.2726760  21.6285890   3.7368270  41.2183650
  20.6591240   4.4779150  42.1143590  25.9976720   5.8066290  36.5454060
  26.3392420   6.5508520  36.0497380  25.1689430   6.1197410  36.9078890
  27.1393330   6.7614620  49.0647140  27.1537870   5.8295580  48.8466050
  26.4318430   6.8474380  49.7036910  33.3504540   3.4021960  48.4115720
  32.6252730   3.9950740  48.2145110  33.8780000   3.3945500  47.6129090
  33.3017650   7.7996700  38.0627880  32.6593810   7.1452320  38.3371600
  32.9148310   8.2051790  37.2868550  28.8804130   5.1282130  41.9099570
  29.2327950   4.5310260  41.2500940  27.9966460   4.8026360  42.0807820
  24.9667410   5.8879820  39.3169980  25.6538540   6.4349030  39.6977570
  24.1799830   6.4320550  39.3519590  24.2694620   2.8925850  38.9295340
  24.7257400   3.7031100  39.1555530  23.9182830   2.5748990  39.7613830
  26.5727230   8.4032190  46.1587640  27.2169450   8.6091570  46.8361060
  26.9356670   7.6420590  45.7058490  27.8459310   6.4064540  44.8765090
  28.4881540   5.7057700  44.9897260  28.3708660   7.1862980  44.6961980
  31.6915030   6.6913160  34.6004230  31.4652610   5.9743600  35.1928870
  31.3011230   6.4425600  33.7625980  29.6196930   7.2059440  48.0801150
  29.9553170   7.7926130  48.7579070  28.6997270   7.0752150  48.3098940
  17.4731060  10.7180020  35.3748690  17.8328700  11.3169360  34.7205960
  17.3323400  11.2639910  36.1483720  31.2731280   4.6085100  36.2618390
  30.9852980   5.0697790  37.0496270  32.0683450   4.1482870  36.5302610
  17.4572920   8.9834880  49.8491090  17.5664040   8.0429620  49.7086480
  16.8053480   9.2489630  49.2004820  25.4485510   7.2550770  51.2489210
  25.1282380   6.5360010  51.7934900  24.7743870   7.9305840  51.3225270
  23.4899680   8.1011220  36.1922360  23.4809780   8.8340910  35.5766870
  22.5698040   7.8542800  36.2849320  19.0906320   3.3226110  36.9369120
  18.4834270   4.0625010  36.9464420  19.5655670   3.4125470  36.1107320
  26.4759280   8.1639460  34.8547550  26.5771260   7.9603450  33.9249530
  25.5761020   7.9097740  35.0595330  25.1177390  10.6825780  39.5495220
  25.3718890  10.6447170  38.6274590  24.1689870  10.5559110  39.5423470
  21.1011610   3.2837260  34.6857690  21.8674880   3.1718620  35.2483120
  21.1786300   2.5875230  34.0334460  33.1255550   8.7726510  42.8007990
  33.2502970   9.5957680  43.2731800  33.9921110   8.5617240  42.4532140
  20.5973080  10.8657720  42.4725120  21.3335560  10.3173180  42.7433690
  20.9814000  11.7313730  42.3331110  17.4818560   6.9331290  38.3466630
  16.5558340   7.1752430  38.3372040  17.9474990   7.7605550  38.2251380
  19.6031360  10.0503790  51.6610700  20.4044090  10.3715840  52.0746100
  19.0883180   9.6899370  52.3830610  23.7075390  10.0388030  34.2950690
  24.5004000  10.3276860  33.8432480  23.1879740   9.6080200  33.6163170
  28.4395990   6.1583660  51.6086110  27.8334150   6.1815260  50.8681860
  28.1350100   5.4266700  52.1453360  29.8696360   9.8863950  50.2195520
  30.8218110   9.8021970  50.1695760  29.7224580  10.5505660  50.8929310
  32.7605560   9.2658160  35.7187430  32.4747070   8.8523300  34.9041610
  32.5625110  10.1945870  35.5987950  17.3229170   2.5377250  50.6046750
  17.8268190   1.9584530  51.1762980  16.5836590   2.8217480  51.1423120
  24.2252790   5.2591440  34.1593040  24.1203430   4.6443790  34.8854420
  24.0577010   4.7357330  33.3756050  24.3767110   3.9448240  50.1382270
  23.6112780   4.5133240  50.0536940  24.5583070   3.6524450  49.2450500
  27.4655520   4.3211470  34.7635030  26.9165620   4.7680770  35.4077770
  28.0874780   3.8160720  35.2872700  31.5190460   5.6753570  50.6957290
  32.2599930   6.0129330  50.1924750  30.7563140   5.8445630  50.1427060
  23.1330640   3.2802390  36.6600330  23.5547060   3.1142260  37.5031720
  23.2581480   2.4702620  36.1655470  25.6458280   2.3040000  33.9077430
  26.1663940   1.5889020  33.5418580  26.2926680   2.9425870  34.2077940
  30.1936120   3.7268400  49.2312500  30.6077140   3.8813480  50.0802920
  29.2587120   3.8523620  49.3938280  24.9551350   3.6788880  47.2008430
  25.3739460   4.5221610  47.0284670  24.0359980   3.8160920  46.9715210
  29.6303150   1.9642250  47.1608780  29.1038370   2.4884870  46.5573920
  29.9734490   2.5969640  47.7918510  22.8058770   9.9841890  48.3166160
  22.2679860  10.7087950  47.9974860  23.0592730   9.5072230  47.5263500
  25.6620980  11.2193100  48.5752810  25.5879680  12.1228240  48.8825180
  24.7599820  10.9005000  48.5474880  26.2106310  10.3851610  36.1979170
  27.1057100  10.7236580  36.2197930  26.2423940   9.6631020  35.5703450
  19.8502470   5.7578660  34.4266170  20.2877340   6.3008330  35.0823750
  20.3350200   4.9325610  34.4362510  17.0648270   8.5467690  41.8786430
  17.3951280   7.6788750  41.6465070  17.4939270   8.7526210  42.7091390
  21.6610190   6.8776700  39.5388400  21.3605730   6.7541670  40.4392310
  21.5547680   6.0185290  39.1304130  17.5538480   9.4138280  44.6168060
  17.1169470   9.5939080  45.4492210  18.1216160  10.1712900  44.4749780
  33.1900660   8.9155280  48.9045370  32.5902650   8.9747840  48.1609290
  33.3194560   7.9760260  49.0342220  34.4302110   6.6573100  34.2415080
  33.5995070   6.7249750  34.7122310  34.6073940   7.5477220  33.9381940
  33.8858570   3.4020580  36.7449280  34.6477480   3.9717230  36.8508970
  33.9012940   2.8347780  37.5157590  17.3862910   1.9258510  40.9756940
  16.7311750   1.6570150  40.3316640  18.2240860   1.8162990  40.5258920
  34.8918540   4.2570680  41.5891210  35.2627370   3.4738000  41.1827180
  35.5320470   4.9459780  41.4108510  31.8752300   5.6407260  47.0021530
  31.0612140   6.0704420  47.2647320  32.2826500   6.2525670  46.3890580
  33.9377740   3.6954950  33.9021800  34.2126580   4.6033830  33.7741020
  33.7488480   3.6317480  34.8383790  18.4238840   2.3111080  45.5160280
  18.7911880   2.2238480  46.3956300  17.8549660   1.5477630  45.4167140
  31.9328350  10.3925860  40.5289800  32.5287420  10.0710430  39.8524220
  32.1906500   9.9197680  41.3203070  19.8390920   6.8243770  50.6780430
  19.7960550   6.4536680  51.5594890  19.9701930   7.7621340  50.8182250
  23.5396950   8.3803360  46.2790150  23.2988310   8.6477920  45.3920670
  24.4799590   8.5509090  46.3341010  34.8001110  10.3997740  47.0800790
  34.3059390  10.7966610  46.3627920  34.1914400   9.7746950  47.4738070
  19.6778950   9.7706020  47.7978210  19.0839270   9.6390720  48.5368250
  19.6702790   8.9344160  47.3320310  32.4840560  11.0421160  44.3587530
  32.0243530  11.7936970  43.9845550  31.8553020  10.3227630  44.3002330
  19.3091180   7.1364400  46.7486250  18.5825240   6.5169690  46.6812200
  19.3700330   7.5305010  45.8784330  22.9136280   9.3509400  43.5335660
  23.4301300   8.7396760  43.0083920  23.5633660   9.8538180  44.0246670
  25.6531780  10.2417890  44.3604640  25.9409590   9.9872190  43.4837650
  26.1655000   9.6895250  44.9510210  17.5921180  10.4538790  39.9583010
  17.4243220   9.8209470  40.6564900  16.7255690  10.6598190  39.6077200
  19.1983880   9.1472020  37.4033150  18.6731500   9.5280050  36.6995110
  19.1228460   9.7722790  38.1242860  25.7204140  11.1633990  51.7272840
  26.6471450  10.9278260  51.7708800  25.7054570  11.9905990  51.2458870
  33.9549200  10.7059560  38.7247090  34.1301390  10.0197300  38.0808010
  33.2570770  11.2306610  38.3323760  21.7976850  11.0954400  36.2782400
  22.5295670  10.8113680  35.7306290  22.0570520  10.8567680  37.1681780
  20.9591640   7.2119130  36.2828730  20.3300520   7.6804230  36.8314560
  21.0739470   6.3668350  36.7174920  32.2881700  10.3903850  51.5513880
  33.0807020   9.8953080  51.3439840  32.5814850  11.0693990  52.1589490
  26.5459400   3.0403810  24.3139200  25.7701500   2.5604250  24.6037770
  27.1972330   2.3609460  24.1395360  20.5625230   3.3523620  25.1914960
  19.7310110   3.0972330  25.5911470  21.1706210   3.4234390  25.9272880
  30.5666830   7.4464000  23.0938330  30.1048360   6.6751240  23.4225500
  31.3792380   7.4730070  23.5990780  20.5426490   7.3863710  25.3872980
  20.8454530   6.4961450  25.2083200  21.2870080   7.9433930  25.1595230
  26.7930140   9.7322010  22.7142320  26.1741580  10.1879510  22.1436760
  27.6481920   9.8873470  22.3132020  25.9868390   5.7161000  24.3209360
  25.9176670   4.7750940  24.1598490  26.7488250   5.8062410  24.8931930
  27.6593490   4.6161250  20.1074230  27.0410760   5.0810700  19.5436950
  28.1716740   5.3088730  20.5243740  22.5225250   4.1437120  26.7857830
  22.1894630   4.7706040  27.4278900  22.6991930   4.6699000  26.0059500
  21.7344350   6.1117920  28.6007010  22.3518350   6.7869000  28.3191460
  20.8737470   6.5205900  28.5094510  17.0276690   5.3017780  17.4813860
  16.6504670   5.7904880  16.7498760  17.2849760   5.9743060  18.1120390
  32.6521940   7.5757330  26.5161650  31.9685460   8.2456440  26.5078320
  33.1916230   7.7737980  25.7506510  30.1880680   9.4201460  25.2306830
  30.2007840   9.0163750  24.3629090  29.6355900  10.1948750  25.1268260
  31.4826100   6.1417680  20.3197000  31.3722430   5.1992010  20.4446420
  31.4794350   6.5033320  21.2059760  29.5866120   4.3231300  26.5589440
  30.0034910   4.1091410  25.7242900  30.3105940   4.5804090  27.1298060
  27.0246380   1.7683000  19.6759490  26.0975660   1.7020380  19.9047960
  27.1771200   2.7063130  19.5614730  33.5328220   2.7218520  26.6505680
  32.7046850   2.7911610  26.1755810  34.1278700   3.3072830  26.1821510
  31.0543670   3.3303300  20.1794740  30.4356090   2.9922850  19.5321040
  31.0368120   2.6863060  20.8873930  22.6303020   2.2947740  22.4579220
  22.2260020   1.5824990  21.9625120  22.7166140   1.9500980  23.3467260
  23.0984720   5.9815300  24.6218430  22.8013010   5.3760770  23.9426210
  24.0484540   6.0192610  24.5107790  31.1870330   9.5547170  28.2841530
  30.7100890  10.3619360  28.0914140  30.5032120   8.9025500  28.4367740
  22.1903150   5.7196990  31.2726230  21.2931680   5.9436960  31.5199630
  22.2156020   5.8431930  30.3237630  29.2308370   2.5690110  17.1867490
  29.6701650   1.7312540  17.0405310  29.9436790   3.2019510  17.2731630
  21.0174370   2.5910310  29.8483600  20.8782140   3.4633110  30.2171000
  20.1355730   2.2483120  29.7031540  27.3403750   7.5086180  21.1548730
  27.7799660   8.2510510  20.7404120  27.2790640   7.7512750  22.0787690
  22.8154720   8.5332010  32.0568750  22.7870150   8.9374960  31.1897180
  22.6519690   7.6042370  31.8940350  34.7669540   9.3159110  33.3532920
  35.2429260   9.7942000  34.0322000  35.3876700   9.2476600  32.6278420
  16.9693020   4.3607860  25.7654510  17.0473440   4.4956630  24.8210230
  17.5834700   3.6523750  25.9582630  18.2140650   6.0608050  22.1760690
  17.8068730   6.2022640  21.3214290  19.1053660   5.7768210  21.9731900
  34.1702790   6.5071960  30.5132930  34.2965850   6.2683840  29.5950110
  34.2124170   5.6756500  30.9855010  28.0319530  10.2099960  29.0827740
  28.5464200  10.1207970  29.8850170  27.1888610  10.5559660  29.3755650
  30.0073930  10.4955300  18.5111740  29.8475070  10.2058240  19.4093570
  29.8420640   9.7195430  17.9756970  22.4862310  10.2753830  20.2883360
  22.3104790   9.3589370  20.0751160  21.6318050  10.6341120  20.5281160
  29.7100060   8.0042860  17.0709740  29.0165220   8.0020150  16.4112020
  30.4522920   7.5802180  16.6403910  29.2749990   9.6305570  21.1458230
  29.7306940   8.8494950  21.4596850  29.6142510  10.3412390  21.6899410
  17.0252540   5.4022030  28.3048970  17.1883580   4.9327390  27.4868340
  17.4904990   4.8945590  28.9697810  18.5991520   4.7773460  30.4644780
  18.2146310   4.1367130  31.0627740  18.9103710   5.4809580  31.0339510
  21.0669820   4.8719630  18.8604460  20.2932080   4.3317250  18.7003180
  21.7964450   4.3526240  18.5222220  31.8257800   3.8684990  24.6530850
  32.5456920   4.3640280  24.2626960  31.6239620   3.1902880  24.0084720
  27.2076600   3.9394050  30.5399850  27.1413910   3.0189720  30.2857440
  26.5781740   4.0369490  31.2544490  21.1107220   4.5400010  22.4983270
  21.6285890   3.7368270  22.4440160  20.6591240   4.4779150  23.3400100
  25.9976720   5.8066290  17.7710570  26.3392420   6.5508520  17.2753890
  25.1689430   6.1197410  18.1335400  27.1393330   6.7614620  30.2903650
  27.1537870   5.8295580  30.0722560  26.4318430   6.8474380  30.9293420
  33.3504540   3.4021960  29.6372230  32.6252730   3.9950740  29.4401620
  33.8780000   3.3945500  28.8385600  33.3017650   7.7996700  19.2884390
  32.6593810   7.1452320  19.5628110  32.9148310   8.2051790  18.5125060
  28.8804130   5.1282130  23.1356080  29.2327950   4.5310260  22.4757450
  27.9966460   4.8026360  23.3064330  24.9667410   5.8879820  20.5426490
  25.6538540   6.4349030  20.9234080  24.1799830   6.4320550  20.5776100
  24.2694620   2.8925850  20.1551850  24.7257400   3.7031100  20.3812040
  23.9182830   2.5748990  20.9870340  26.5727230   8.4032190  27.3844150
  27.2169450   8.6091570  28.0617570  26.9356670   7.6420590  26.9315000
  27.8459310   6.4064540  26.1021600  28.4881540   5.7057700  26.2153770
  28.3708660   7.1862980  25.9218490  31.6915030   6.6913160  15.8260740
  31.4652610   5.9743600  16.4185380  31.3011230   6.4425600  14.9882490
  29.6196930   7.2059440  29.3057660  29.9553170   7.7926130  29.9835580
  28.6997270   7.0752150  29.5355450  17.4731060  10.7180020  16.6005200
  17.8328700  11.3169360  15.9462470  17.3323400  11.2639910  17.3740230
  31.2731280   4.6085100  17.4874900  30.9852980   5.0697790  18.2752780
  32.0683450   4.1482870  17.7559120  17.4572920   8.9834880  31.0747600
  17.5664040   8.0429620  30.9342990  16.8053480   9.2489630  30.4261330
  25.4485510   7.2550770  32.4745720  25.1282380   6.5360010  33.0191410
  24.7743870   7.9305840  32.5481780  23.4899680   8.1011220  17.4178870
  23.4809780   8.8340910  16.8023380  22.5698040   7.8542800  17.5105830
  19.0906320   3.3226110  18.1625630  18.4834270   4.0625010  18.1720930
  19.5655670   3.4125470  17.3363830  26.4759280   8.1639460  16.0804060
  26.5771260   7.9603450  15.1506040  25.5761020   7.9097740  16.2851840
  25.1177390  10.6825780  20.7751730  25.3718890  10.6447170  19.8531100
  24.1689870  10.5559110  20.7679980  21.1011610   3.2837260  15.9114200
  21.8674880   3.1718620  16.4739630  21.1786300   2.5875230  15.2590970
  33.1255550   8.7726510  24.0264500  33.2502970   9.5957680  24.4988310
  33.9921110   8.5617240  23.6788650  20.5973080  10.8657720  23.6981630
  21.3335560  10.3173180  23.9690200  20.9814000  11.7313730  23.5587620
  17.4818560   6.9331290  19.5723140  16.5558340   7.1752430  19.5628550
  17.9474990   7.7605550  19.4507890  19.6031360  10.0503790  32.8867210
  20.4044090  10.3715840  33.3002610  19.0883180   9.6899370  33.6087120
  23.7075390  10.0388030  15.5207200  24.5004000  10.3276860  15.0688990
  23.1879740   9.6080200  14.8419680  28.4395990   6.1583660  32.8342620
  27.8334150   6.1815260  32.0938370  28.1350100   5.4266700  33.3709870
  29.8696360   9.8863950  31.4452030  30.8218110   9.8021970  31.3952270
  29.7224580  10.5505660  32.1185820  32.7605560   9.2658160  16.9443940
  32.4747070   8.8523300  16.1298120  32.5625110  10.1945870  16.8244460
  17.3229170   2.5377250  31.8303260  17.8268190   1.9584530  32.4019490
  16.5836590   2.8217480  32.3679630  24.2252790   5.2591440  15.3849550
  24.1203430   4.6443790  16.1110930  24.0577010   4.7357330  14.6012560
  24.3767110   3.9448240  31.3638780  23.6112780   4.5133240  31.2793450
  24.5583070   3.6524450  30.4707010  27.4655520   4.3211470  15.9891540
  26.9165620   4.7680770  16.6334280  28.0874780   3.8160720  16.5129210
  31.5190460   5.6753570  31.9213800  32.2599930   6.0129330  31.4181260
  30.7563140   5.8445630  31.3683570  23.1330640   3.2802390  17.8856840
  23.5547060   3.1142260  18.7288230  23.2581480   2.4702620  17.3911980
  25.6458280   2.3040000  15.1333940  26.1663940   1.5889020  14.7675090
  26.2926680   2.9425870  15.4334450  30.1936120   3.7268400  30.4569010
  30.6077140   3.8813480  31.3059430  29.2587120   3.8523620  30.6194790
  24.9551350   3.6788880  28.4264940  25.3739460   4.5221610  28.2541180
  24.0359980   3.8160920  28.1971720  29.6303150   1.9642250  28.3865290
  29.1038370   2.4884870  27.7830430  29.9734490   2.5969640  29.0175020
  22.8058770   9.9841890  29.5422670  22.2679860  10.7087950  29.2231370
  23.0592730   9.5072230  28.7520010  25.6620980  11.2193100  29.8009320
  25.5879680  12.1228240  30.1081690  24.7599820  10.9005000  29.7731390
  26.2106310  10.3851610  17.4235680  27.1057100  10.7236580  17.4454440
  26.2423940   9.6631020  16.7959960  19.8502470   5.7578660  15.6522680
  20.2877340   6.3008330  16.3080260  20.3350200   4.9325610  15.6619020
  17.0648270   8.5467690  23.1042940  17.3951280   7.6788750  22.8721580
  17.4939270   8.7526210  23.9347900  21.6610190   6.8776700  20.7644910
  21.3605730   6.7541670  21.6648820  21.5547680   6.0185290  20.3560640
  17.5538480   9.4138280  25.8424570  17.1169470   9.5939080  26.6748720
  18.1216160  10.1712900  25.7006290  33.1900660   8.9155280  30.1301880
  32.5902650   8.9747840  29.3865800  33.3194560   7.9760260  30.2598730
  34.4302110   6.6573100  15.4671590  33.5995070   6.7249750  15.9378820
  34.6073940   7.5477220  15.1638450  33.8858570   3.4020580  17.9705790
  34.6477480   3.9717230  18.0765480  33.9012940   2.8347780  18.7414100
  17.3862910   1.9258510  22.2013450  16.7311750   1.6570150  21.5573150
  18.2240860   1.8162990  21.7515430  34.8918540   4.2570680  22.8147720
  35.2627370   3.4738000  22.4083690  35.5320470   4.9459780  22.6365020
  31.8752300   5.6407260  28.2278040  31.0612140   6.0704420  28.4903830
  32.2826500   6.2525670  27.6147090  33.9377740   3.6954950  15.1278310
  34.2126580   4.6033830  14.9997530  33.7488480   3.6317480  16.0640300
  18.4238840   2.3111080  26.7416790  18.7911880   2.2238480  27.6212810
  17.8549660   1.5477630  26.6423650  31.9328350  10.3925860  21.7546310
  32.5287420  10.0710430  21.0780730  32.1906500   9.9197680  22.5459580
  19.8390920   6.8243770  31.9036940  19.7960550   6.4536680  32.7851400
  19.9701930   7.7621340  32.0438760  23.5396950   8.3803360  27.5046660
  23.2988310   8.6477920  26.6177180  24.4799590   8.5509090  27.5597520
  34.8001110  10.3997740  28.3057300  34.3059390  10.7966610  27.5884430
  34.1914400   9.7746950  28.6994580  19.6778950   9.7706020  29.0234720
  19.0839270   9.6390720  29.7624760  19.6702790   8.9344160  28.5576820
  32.4840560  11.0421160  25.5844040  32.0243530  11.7936970  25.2102060
  31.8553020  10.3227630  25.5258840  19.3091180   7.1364400  27.9742760
  18.5825240   6.5169690  27.9068710  19.3700330   7.5305010  27.1040840
  22.9136280   9.3509400  24.7592170  23.4301300   8.7396760  24.2340430
  23.5633660   9.8538180  25.2503180  25.6531780  10.2417890  25.5861150
  25.9409590   9.9872190  24.7094160  26.1655000   9.6895250  26.1766720
  17.5921180  10.4538790  21.1839520  17.4243220   9.8209470  21.8821410
  16.7255690  10.6598190  20.8333710  19.1983880   9.1472020  18.6289660
  18.6731500   9.5280050  17.9251620  19.1228460   9.7722790  19.3499370
  25.7204140  11.1633990  32.9529350  26.6471450  10.9278260  32.9965310
  25.7054570  11.9905990  32.4715380  33.9549200  10.7059560  19.9503600
  34.1301390  10.0197300  19.3064520  33.2570770  11.2306610  19.5580270
  21.7976850  11.0954400  17.5038910  22.5295670  10.8113680  16.9562800
  22.0570520  10.8567680  18.3938290  20.9591640   7.2119130  17.5085240
  20.3300520   7.6804230  18.0571070  21.0739470   6.3668350  17.9431430
  32.2881700  10.3903850  32.7770390  33.0807020   9.8953080  32.5696350
  32.5814850  11.0693990  33.3846000  26.5459400   3.0403810   5.5395710
  25.7701500   2.5604250   5.8294280  27.1972330   2.3609460   5.3651870
  20.5625230   3.3523620   6.4171470  19.7310110   3.0972330   6.8167980
  21.1706210   3.4234390   7.1529390  30.5666830   7.4464000   4.3194840
  30.1048360   6.6751240   4.6482010  31.3792380   7.4730070   4.8247290
  20.5426490   7.3863710   6.6129490  20.8454530   6.4961450   6.4339710
  21.2870080   7.9433930   6.3851740  26.7930140   9.7322010   3.9398830
  26.1741580  10.1879510   3.3693270  27.6481920   9.8873470   3.5388530
  25.9868390   5.7161000   5.5465870  25.9176670   4.7750940   5.3855000
  26.7488250   5.8062410   6.1188440  22.5225250   4.1437120   8.0114340
  22.1894630   4.7706040   8.6535410  22.6991930   4.6699000   7.2316010
  21.7344350   6.1117920   9.8263520  22.3518350   6.7869000   9.5447970
  20.8737470   6.5205900   9.7351020  32.6521940   7.5757330   7.7418160
  31.9685460   8.2456440   7.7334830  33.1916230   7.7737980   6.9763020
  30.1880680   9.4201460   6.4563340  30.2007840   9.0163750   5.5885600
  29.6355900  10.1948750   6.3524770  29.5866120   4.3231300   7.7845950
  30.0034910   4.1091410   6.9499410  30.3105940   4.5804090   8.3554570
  33.5328220   2.7218520   7.8762190  32.7046850   2.7911610   7.4012320
  34.1278700   3.3072830   7.4078020  22.6303020   2.2947740   3.6835730
  22.2260020   1.5824990   3.1881630  22.7166140   1.9500980   4.5723770
  23.0984720   5.9815300   5.8474940  22.8013010   5.3760770   5.1682720
  24.0484540   6.0192610   5.7364300  31.1870330   9.5547170   9.5098040
  30.7100890  10.3619360   9.3170650  30.5032120   8.9025500   9.6624250
  22.1903150   5.7196990  12.4982740  21.2931680   5.9436960  12.7456140
  22.2156020   5.8431930  11.5494140  21.0174370   2.5910310  11.0740110
  20.8782140   3.4633110  11.4427510  20.1355730   2.2483120  10.9288050
  27.3403750   7.5086180   2.3805240  27.7799660   8.2510510   1.9660630
  27.2790640   7.7512750   3.3044200  22.8154720   8.5332010  13.2825260
  22.7870150   8.9374960  12.4153690  22.6519690   7.6042370  13.1196860
  34.7669540   9.3159110  14.5789430  35.2429260   9.7942000  15.2578510
  35.3876700   9.2476600  13.8534930  16.9693020   4.3607860   6.9911020
  17.0473440   4.4956630   6.0466740  17.5834700   3.6523750   7.1839140
  18.2140650   6.0608050   3.4017200  17.8068730   6.2022640   2.5470800
  19.1053660   5.7768210   3.1988410  34.1702790   6.5071960  11.7389440
  34.2965850   6.2683840  10.8206620  34.2124170   5.6756500  12.2111520
  28.0319530  10.2099960  10.3084250  28.5464200  10.1207970  11.1106680
  27.1888610  10.5559660  10.6012160  29.2749990   9.6305570   2.3714740
  29.7306940   8.8494950   2.6853360  29.6142510  10.3412390   2.9155920
  17.0252540   5.4022030   9.5305480  17.1883580   4.9327390   8.7124850
  17.4904990   4.8945590  10.1954320  18.5991520   4.7773460  11.6901290
  18.2146310   4.1367130  12.2884250  18.9103710   5.4809580  12.2596020
  31.8257800   3.8684990   5.8787360  32.5456920   4.3640280   5.4883470
  31.6239620   3.1902880   5.2341230  27.2076600   3.9394050  11.7656360
  27.1413910   3.0189720  11.5113950  26.5781740   4.0369490  12.4801000
  21.1107220   4.5400010   3.7239780  21.6285890   3.7368270   3.6696670
  20.6591240   4.4779150   4.5656610  27.1393330   6.7614620  11.5160160
  27.1537870   5.8295580  11.2979070  26.4318430   6.8474380  12.1549930
  33.3504540   3.4021960  10.8628740  32.6252730   3.9950740  10.6658130
  33.8780000   3.3945500  10.0642110  28.8804130   5.1282130   4.3612590
  29.2327950   4.5310260   3.7013960  27.9966460   4.8026360   4.5320840
  24.9667410   5.8879820   1.7683000  25.6538540   6.4349030   2.1490590
  24.1799830   6.4320550   1.8032610  26.5727230   8.4032190   8.6100660
  27.2169450   8.6091570   9.2874080  26.9356670   7.6420590   8.1571510
  27.8459310   6.4064540   7.3278110  28.4881540   5.7057700   7.4410280
  28.3708660   7.1862980   7.1475000  29.6196930   7.2059440  10.5314170
  29.9553170   7.7926130  11.2092090  28.6997270   7.0752150  10.7611960
  17.4572920   8.9834880  12.3004110  17.5664040   8.0429620  12.1599500
  16.8053480   9.2489630  11.6517840  25.4485510   7.2550770  13.7002230
  25.1282380   6.5360010  14.2447920  24.7743870   7.9305840  13.7738290
  33.1255550   8.7726510   5.2521010  33.2502970   9.5957680   5.7244820
  33.9921110   8.5617240   4.9045160  20.5973080  10.8657720   4.9238140
  21.3335560  10.3173180   5.1946710  20.9814000  11.7313730   4.7844130
  19.6031360  10.0503790  14.1123720  20.4044090  10.3715840  14.5259120
  19.0883180   9.6899370  14.8343630  28.4395990   6.1583660  14.0599130
  27.8334150   6.1815260  13.3194880  28.1350100   5.4266700  14.5966380
  29.8696360   9.8863950  12.6708540  30.8218110   9.8021970  12.6208780
  29.7224580  10.5505660  13.3442330  17.3229170   2.5377250  13.0559770
  17.8268190   1.9584530  13.6276000  16.5836590   2.8217480  13.5936140
  24.3767110   3.9448240  12.5895290  23.6112780   4.5133240  12.5049960
  24.5583070   3.6524450  11.6963520  31.5190460   5.6753570  13.1470310
  32.2599930   6.0129330  12.6437770  30.7563140   5.8445630  12.5940080
  30.1936120   3.7268400  11.6825520  30.6077140   3.8813480  12.5315940
  29.2587120   3.8523620  11.8451300  24.9551350   3.6788880   9.6521450
  25.3739460   4.5221610   9.4797690  24.0359980   3.8160920   9.4228230
  29.6303150   1.9642250   9.6121800  29.1038370   2.4884870   9.0086940
  29.9734490   2.5969640  10.2431530  22.8058770   9.9841890  10.7679180
  22.2679860  10.7087950  10.4487880  23.0592730   9.5072230   9.9776520
  25.6620980  11.2193100  11.0265830  25.5879680  12.1228240  11.3338200
  24.7599820  10.9005000  10.9987900  17.0648270   8.5467690   4.3299450
  17.3951280   7.6788750   4.0978090  17.4939270   8.7526210   5.1604410
  17.5538480   9.4138280   7.0681080  17.1169470   9.5939080   7.9005230
  18.1216160  10.1712900   6.9262800  33.1900660   8.9155280  11.3558390
  32.5902650   8.9747840  10.6122310  33.3194560   7.9760260  11.4855240
  17.3862910   1.9258510   3.4269960  16.7311750   1.6570150   2.7829660
  18.2240860   1.8162990   2.9771940  34.8918540   4.2570680   4.0404230
  35.2627370   3.4738000   3.6340200  35.5320470   4.9459780   3.8621530
  31.8752300   5.6407260   9.4534550  31.0612140   6.0704420   9.7160340
  32.2826500   6.2525670   8.8403600  18.4238840   2.3111080   7.9673300
  18.7911880   2.2238480   8.8469320  17.8549660   1.5477630   7.8680160
  31.9328350  10.3925860   2.9802820  32.5287420  10.0710430   2.3037240
  32.1906500   9.9197680   3.7716090  19.8390920   6.8243770  13.1293450
  19.7960550   6.4536680  14.0107910  19.9701930   7.7621340  13.2695270
  23.5396950   8.3803360   8.7303170  23.2988310   8.6477920   7.8433690
  24.4799590   8.5509090   8.7854030  34.8001110  10.3997740   9.5313810
  34.3059390  10.7966610   8.8140940  34.1914400   9.7746950   9.9251090
  19.6778950   9.7706020  10.2491230  19.0839270   9.6390720  10.9881270
  19.6702790   8.9344160   9.7833330  32.4840560  11.0421160   6.8100550
  32.0243530  11.7936970   6.4358570  31.8553020  10.3227630   6.7515350
  19.3091180   7.1364400   9.1999270  18.5825240   6.5169690   9.1325220
  19.3700330   7.5305010   8.3297350  22.9136280   9.3509400   5.9848680
  23.4301300   8.7396760   5.4596940  23.5633660   9.8538180   6.4759690
  25.6531780  10.2417890   6.8117660  25.9409590   9.9872190   5.9350670
  26.1655000   9.6895250   7.4023230  17.5921180  10.4538790   2.4096030
  17.4243220   9.8209470   3.1077920  16.7255690  10.6598190   2.0590220
  25.7204140  11.1633990  14.1785860  26.6471450  10.9278260  14.2221820
  25.7054570  11.9905990  13.6971890  32.2881700  10.3903850  14.0026900
  33.0807020   9.8953080  13.7952860  32.5814850  11.0693990  14.6102510
   9.6397870 113.9085730  97.5303890   9.5591920 112.9940340  97.2595600
   9.2262290 114.4052800  96.8243600   8.2430070 111.1692320  99.6452250
   8.6194890 110.2964200  99.5325920   8.1449580 111.5051020  98.7542690
   2.3735080 109.5417950  95.1069690   2.4801830 110.4421680  95.4138450
   1.4627440 109.4935920  94.8164340  12.0254190 108.6642760  96.5780590
  12.8463810 108.1739330  96.6206070  12.0588270 109.2540420  97.3312430
   4.2142810 112.5104320  99.4394870   4.7221030 113.0085290 100.0799890
   4.7456050 111.7339520  99.2634230  12.2615670 110.6043140  99.3508130
  11.5571240 110.8928030  99.9311240  12.6227830 111.4143250  98.9907690
   2.1794240 108.8612840 101.7128740   2.5211050 109.7054890 101.4182610
   1.2410050 109.0096580 101.8294080  15.3302590 110.0497930  99.7417340
  14.3827500 110.0836910  99.8732770  15.6552580 110.8636880 100.1266700
   5.8622130 106.3495110  98.0373330   6.1697110 105.7942000  97.3208830
   4.9322830 106.4839570  97.8546320   8.2371970 110.6860940  91.7700610
   7.2975640 110.8474900  91.8553070   8.5555230 111.4046620  91.2236600
   3.8559530 114.9408680  97.5553180   3.4516530 114.2285930  97.0599080
   3.9422650 114.5961920  98.4441220   2.5688150 111.7151890 101.3352220
   3.1202740 111.8247230 100.5605470   3.0831660 112.0889490 102.0507450
  14.0382020 106.4693860  90.5982490  13.7254680 106.5620690  91.4981560
  14.7994490 107.0474890  90.5479920   3.0227820 107.1788730  98.4383500
   2.5795970 107.9598270  98.1068020   3.5812810 107.5018620  99.1454440
   6.1386640 106.7999430  93.3189330   5.5140820 106.7959300  94.0442640
   6.0516760 105.9330390  92.9225300   5.0603720 107.7236060 100.2973100
   5.3576050 108.6298890 100.2165120   5.6089280 107.2354840  99.6832670
   2.8142040 112.3022300  96.1664750   2.5882960 112.0859470  97.0711370
   2.0334570 112.7350760  95.8210720  10.0439800 112.3085670  94.7655400
   9.4448690 113.0321470  94.5819020  10.5919410 112.2462450  93.9831850
   8.6504670 110.9449210  96.7958680   9.0434240 111.2621410  95.9827370
   9.0121520 110.0661090  96.9103200   9.2359810 113.5354960 100.8909460
   8.5040930 114.0441770 101.2399560   8.8384150 112.7184940 100.5898240
   5.6737200 110.2109160  99.2961950   5.6773260 109.7699110  98.4466490
   6.5688320 110.5326490  99.4033770   5.7357350 111.2121240  92.2868710
   5.8570170 111.1707720  93.2354530   5.3505860 112.0745390  92.1315440
   9.6985720 108.9888640 100.3032400   9.7158460 109.4397290 101.1474250
   9.4501300 108.0894280 100.5165840   4.7478850 113.5222380  91.6852010
   4.1795750 113.0740630  91.0587920   5.4567850 113.8815160  91.1517160
   5.9745170 114.2710940 101.0427360   6.3415300 113.7969510 101.7888700
   5.7850230 115.1452510 101.3835700   8.5124250 107.9083890  93.8934200
   7.6988860 107.4097060  93.8179510   8.3186200 108.7482140  93.4770550
  11.2272640 112.2803540  92.1896360  12.1152260 112.5920770  92.0147700
  11.1977730 111.4075790  91.7976940  13.4986910 113.5915380  91.6576220
  13.4150630 114.0229600  90.8072660  14.2181100 114.0513730  92.0903040
  13.2557650 109.0894810  93.7444040  12.6270810 109.1940480  93.0302270
  12.7609570 109.3091590  94.5337920   5.2241680 111.3680760  95.1601920
   4.5157830 111.8367100  95.6015530   5.5086160 110.7102770  95.7947110
   9.2557110 108.0931420  96.5997710   9.1324890 108.1117550  95.6507220
  10.2041670 108.1410360  96.7196110   3.4276700 109.6765840  92.5352630
   4.2767230 110.1135990  92.4692820   3.0607970 109.9886100  93.3624690
  12.3486480 114.2478600  97.4484200  11.4076620 114.2628830  97.6231890
  12.6630550 113.4614560  97.8944500   3.2546050 111.9996560  89.9288960
   3.0535110 111.1363920  90.2902300   3.0838100 111.9129920  88.9910560
  10.7334360 106.8104790  92.4575840  11.0136650 105.9672690  92.8135260
   9.9600090 107.0427900  92.9714590   2.0528850 109.0997180  89.9166840
   2.3554750 109.1064610  89.0085990   2.7923440 108.7495040  90.4134500
   5.2713780 108.0431800  90.9023040   4.9235780 107.3655790  90.3225490
   5.4726550 107.5821310  91.7166430  11.5609860 109.3660740  91.5205900
  11.9794740 109.1791720  90.6802560  11.2545920 108.5139790  91.8308830
  15.0599590 114.2784880  95.2181700  14.6843190 113.5112810  94.7862990
  14.3302710 114.6607580  95.7056630  14.3350550 112.5042370  98.5188940
  14.8588030 112.0105020  97.8879110  14.9209970 112.6392730  99.2636510
  14.5140270 112.5882240 102.0408490  13.5642980 112.5545780 102.1553480
  14.6953280 113.4982350 101.8058260  13.8250520 111.7615720  94.4581350
  14.3209640 111.5286590  95.2430230  13.6266590 110.9227560  94.0418990
  15.2537680 110.3976670  96.9919030  15.1436960 110.2432710  97.9301300
  16.0145270 109.8697610  96.7494440  16.1427950 108.2284590  90.2325170
  17.0677260 108.0965770  90.0243460  16.1203740 108.3077410  91.1861620
  16.2166440 108.9995250  92.8581880  15.4217940 108.9340370  93.3874790
  16.4209720 109.9345890  92.8467230   8.0965300 106.6269030 101.2631620
   7.3137090 107.1014530 101.5428380   7.8028230 105.7223860 101.1544800
  12.6486370 107.3292130  99.3080710  13.0894460 107.2737230  98.4602310
  12.3793960 108.2450140  99.3790890  14.5124940 106.9607370  97.3189530
  14.4513340 106.0168590  97.1720550  15.2916970 107.0687460  97.8642990
   5.9819520 109.0455780  96.7747650   5.1694030 108.6712670  96.4343530
   6.4861160 108.2900860  97.0768840  10.4844500 105.7098230  98.0130720
  11.0873870 106.2818440  98.4879240   9.7437490 106.2737670  97.7904620
  13.6279100 106.1119790  93.2871000  13.8229730 107.0103240  93.5538430
  12.8408970 105.8806870  93.7803950   1.8130860 107.4580560  92.3247310
   2.3423620 106.6710360  92.1955260   2.4459180 108.1371750  92.5582840
   4.0068700 107.1955700  95.3792700   3.3771440 106.4943010  95.5462830
   3.4673840 107.9559830  95.1625860   9.6397870 113.9085730  78.7560400
   9.5591920 112.9940340  78.4852110   9.2262290 114.4052800  78.0500110
   8.2430070 111.1692320  80.8708760   8.6194890 110.2964200  80.7582430
   8.1449580 111.5051020  79.9799200   2.3735080 109.5417950  76.3326200
   2.4801830 110.4421680  76.6394960   1.4627440 109.4935920  76.0420850
  12.0254190 108.6642760  77.8037100  12.8463810 108.1739330  77.8462580
  12.0588270 109.2540420  78.5568940   4.2142810 112.5104320  80.6651380
   4.7221030 113.0085290  81.3056400   4.7456050 111.7339520  80.4890740
  16.3153740 110.6809510  84.3680730  15.6105910 111.0691220  83.8495840
  16.5811660 111.3759800  84.9701660   2.4978910 107.1502880  84.9314800
   2.4997350 107.6675270  84.1260700   1.6683220 106.6733060  84.9084730
  12.2615670 110.6043140  80.5764640  11.5571240 110.8928030  81.1567750
  12.6227830 111.4143250  80.2164200   2.1794240 108.8612840  82.9385250
   2.5211050 109.7054890  82.6439120   1.2410050 109.0096580  83.0550590
  15.3302590 110.0497930  80.9673850  14.3827500 110.0836910  81.0989280
  15.6552580 110.8636880  81.3523210   5.8622130 106.3495110  79.2629840
   6.1697110 105.7942000  78.5465340   4.9322830 106.4839570  79.0802830
   8.2371970 110.6860940  72.9957120   7.2975640 110.8474900  73.0809580
   8.5555230 111.4046620  72.4493110  11.7226740 112.1548780  83.9191020
  11.3097920 112.9802490  84.1731010  10.9902690 111.5693820  83.7267380
   3.8559530 114.9408680  78.7809690   3.4516530 114.2285930  78.2855590
   3.9422650 114.5961920  79.6697730   2.5688150 111.7151890  82.5608730
   3.1202740 111.8247230  81.7861980   3.0831660 112.0889490  83.2763960
  14.0382020 106.4693860  71.8239000  13.7254680 106.5620690  72.7238070
  14.7994490 107.0474890  71.7736430  15.2483310 111.2065360  87.8013140
  14.6327580 111.7145030  87.2728600  14.9279730 110.3063690  87.7439080
   3.0227820 107.1788730  79.6640010   2.5795970 107.9598270  79.3324530
   3.5812810 107.5018620  80.3710950   7.3097630 110.0457250  85.2675330
   6.8477000 110.2540270  86.0795270   6.9075740 109.2316600  84.9646000
  12.3102140 111.2666200  86.3971990  11.4595730 110.9671950  86.7181060
  12.1503930 111.5108210  85.4855810   9.4051850 112.7667950  88.4970780
   9.7305260 111.9331700  88.1573010  10.1932180 113.2896470  88.6449110
   6.1386640 106.7999430  74.5445840   5.5140820 106.7959300  75.2699150
   6.0516760 105.9330390  74.1481810   5.0603720 107.7236060  81.5229610
   5.3576050 108.6298890  81.4421630   5.6089280 107.2354840  80.9089180
   2.8142040 112.3022300  77.3921260   2.5882960 112.0859470  78.2967880
   2.0334570 112.7350760  77.0467230  10.0439800 112.3085670  75.9911910
   9.4448690 113.0321470  75.8075530  10.5919410 112.2462450  75.2088360
   5.2541250 113.2007880  88.0581530   5.1584850 112.2602610  87.9081930
   6.0973230 113.4222950  87.6629600   8.6504670 110.9449210  78.0215190
   9.0434240 111.2621410  77.2083880   9.0121520 110.0661090  78.1359710
   6.9596840 109.6956520  89.2812050   6.2695160 109.5028720  89.9158140
   7.7029140 109.9791160  89.8136350   9.2359810 113.5354960  82.1165970
   8.5040930 114.0441770  82.4656070   8.8384150 112.7184940  81.8154750
   5.6737200 110.2109160  80.5218460   5.6773260 109.7699110  79.6723000
   6.5688320 110.5326490  80.6290280   5.7357350 111.2121240  73.5125220
   5.8570170 111.1707720  74.4611040   5.3505860 112.0745390  73.3571950
   9.6985720 108.9888640  81.5288910   9.7158460 109.4397290  82.3730760
   9.4501300 108.0894280  81.7422350   4.7478850 113.5222380  72.9108520
   4.1795750 113.0740630  72.2844430   5.4567850 113.8815160  72.3773670
  13.1256470 106.4020820  87.3675290  13.4502240 105.6710480  87.8933270
  13.1612980 106.0834460  86.4656280   5.9745170 114.2710940  82.2683870
   6.3415300 113.7969510  83.0145210   5.7850230 115.1452510  82.6092210
   3.7644540 113.3119580  84.5868080   3.4601610 114.1911560  84.8118440
   4.7191000 113.3719370  84.6225520   8.5124250 107.9083890  75.1190710
   7.6988860 107.4097060  75.0436020   8.3186200 108.7482140  74.7027060
  11.2272640 112.2803540  73.4152870  12.1152260 112.5920770  73.2404210
  11.1977730 111.4075790  73.0233450   3.0221390 114.6106560  88.6178990
   2.7221530 114.7563740  87.7206810   3.7932630 114.0511850  88.5252380
  13.4986910 113.5915380  72.8832730  13.4150630 114.0229600  72.0329170
  14.2181100 114.0513730  73.3159550   9.8895620 110.1337870  84.1612990
  10.2576440 109.3133080  84.4892560   9.0293820 110.1939760  84.5768640
  13.2557650 109.0894810  74.9700550  12.6270810 109.1940480  74.2558780
  12.7609570 109.3091590  75.7594430   5.2241680 111.3680760  76.3858430
   4.5157830 111.8367100  76.8272040   5.5086160 110.7102770  77.0203620
   6.8497610 112.7877460  84.3850960   7.3482860 113.2623280  85.0502810
   6.9920560 111.8640980  84.5920990   9.2557110 108.0931420  77.8254220
   9.1324890 108.1117550  76.8763730  10.2041670 108.1410360  77.9452620
   3.4276700 109.6765840  73.7609140   4.2767230 110.1135990  73.6949330
   3.0607970 109.9886100  74.5881200  14.0564470 109.0045420  85.2279350
  13.5538070 109.7450820  85.5673160  14.8721130 109.3929420  84.9116140
  12.3486480 114.2478600  78.6740710  11.4076620 114.2628830  78.8488400
  12.6630550 113.4614560  79.1201010   2.5214570 111.9059880  87.0158290
   1.9911030 111.4150830  86.3881630   3.1902640 112.3344080  86.4816220
  11.8914800 113.7125500  88.7838630  12.4735570 112.9577820  88.6959110
  12.0676570 114.2432940  88.0070110   3.0086870 108.8722250  87.0955580
   2.9143740 108.2543000  86.3706450   2.4284260 109.5988540  86.8685490
   5.7748310 107.4295490  84.1282970   5.3265610 107.4519750  83.2828520
   5.1413510 107.0314510  84.7253270   8.5171760 114.0566000  86.1333250
   8.6367970 113.4607140  86.8728090   9.3765760 114.0935690  85.7134550
   3.2546050 111.9996560  71.1545470   3.0535110 111.1363920  71.5158810
   3.0838100 111.9129920  70.2167070   5.2840530 110.5987350  87.3909070
   5.8740220 110.2903200  88.0786890   4.4660770 110.1267100  87.5468970
  10.1033960 110.2153160  87.6242090   9.4149480 109.5534700  87.5592080
  10.8239980 109.7691430  88.0690550  10.7334360 106.8104790  73.6832350
  11.0136650 105.9672690  74.0391770   9.9600090 107.0427900  74.1971100
   2.0528850 109.0997180  71.1423350   2.3554750 109.1064610  70.2342500
   2.7923440 108.7495040  71.6391010   5.2713780 108.0431800  72.1279550
   4.9235780 107.3655790  71.5482000   5.4726550 107.5821310  72.9422940
  11.5609860 109.3660740  72.7462410  11.9794740 109.1791720  71.9059070
  11.2545920 108.5139790  73.0565340  15.0599590 114.2784880  76.4438210
  14.6843190 113.5112810  76.0119500  14.3302710 114.6607580  76.9313140
  14.4499210 113.4256400  86.0777730  14.2185300 113.1969150  85.1775680
  14.7103760 114.3455950  86.0322620  12.8887280 108.6512830  88.8557430
  13.7657460 108.6596230  89.2391430  12.9008120 107.9143670  88.2449780
  14.3350550 112.5042370  79.7445450  14.8588030 112.0105020  79.1135620
  14.9209970 112.6392730  80.4893020  14.5140270 112.5882240  83.2665000
  13.5642980 112.5545780  83.3809990  14.6953280 113.4982350  83.0314770
  13.8250520 111.7615720  75.6837860  14.3209640 111.5286590  76.4686740
  13.6266590 110.9227560  75.2675500  15.2537680 110.3976670  78.2175540
  15.1436960 110.2432710  79.1557810  16.0145270 109.8697610  77.9750950
  13.6003400 106.3370800  84.6758540  14.2375620 106.9504940  85.0417730
  13.7478290 106.3731460  83.7307770  16.1427950 108.2284590  71.4581680
  17.0677260 108.0965770  71.2499970  16.1203740 108.3077410  72.4118130
  16.2166440 108.9995250  74.0838390  15.4217940 108.9340370  74.6131300
  16.4209720 109.9345890  74.0723740   6.9707880 107.4896990  87.5833640
   6.9096770 108.0818820  88.3329050   7.9108260 107.3822950  87.4383900
   9.6082440 107.1467050  87.2225930  10.2222850 107.4646340  86.5607010
  10.1532000 106.6615640  87.8421790  10.3490480 105.7099190  83.5495220
   9.4750320 106.0434300  83.3468150  10.2401230 105.2372370  84.3747090
  11.2562460 107.9170060  84.9336940  10.9275820 107.1021820  84.5538670
  12.2044760 107.8739870  84.8102630   8.0965300 106.6269030  82.4888130
   7.3137090 107.1014530  82.7684890   7.8028230 105.7223860  82.3801310
  12.6486370 107.3292130  80.5337220  13.0894460 107.2737230  79.6858820
  12.3793960 108.2450140  80.6047400  14.5124940 106.9607370  78.5446040
  14.4513340 106.0168590  78.3977060  15.2916970 107.0687460  79.0899500
   5.9819520 109.0455780  78.0004160   5.1694030 108.6712670  77.6600040
   6.4861160 108.2900860  78.3025350  10.4844500 105.7098230  79.2387230
  11.0873870 106.2818440  79.7135750   9.7437490 106.2737670  79.0161130
  13.6279100 106.1119790  74.5127510  13.8229730 107.0103240  74.7794940
  12.8408970 105.8806870  75.0060460   1.8130860 107.4580560  73.5503820
   2.3423620 106.6710360  73.4211770   2.4459180 108.1371750  73.7839350
   4.0068700 107.1955700  76.6049210   3.3771440 106.4943010  76.7719340
   3.4673840 107.9559830  76.3882370   4.1324260 106.4739680  89.0401700
   3.8508530 106.9773280  88.2762520   4.5143960 105.6761430  88.6743830
  10.7339720 105.8893260  89.6182170  10.6205170 106.2087870  90.5133690
  11.5509460 106.2905770  89.3219450   9.6397870 113.9085730  59.9816910
   9.5591920 112.9940340  59.7108620   9.2262290 114.4052800  59.2756620
   8.2430070 111.1692320  62.0965270   8.6194890 110.2964200  61.9838940
   8.1449580 111.5051020  61.2055710   2.3735080 109.5417950  57.5582710
   2.4801830 110.4421680  57.8651470   1.4627440 109.4935920  57.2677360
  12.0254190 108.6642760  59.0293610  12.8463810 108.1739330  59.0719090
  12.0588270 109.2540420  59.7825450   4.2142810 112.5104320  61.8907890
   4.7221030 113.0085290  62.5312910   4.7456050 111.7339520  61.7147250
  16.3153740 110.6809510  65.5937240  15.6105910 111.0691220  65.0752350
  16.5811660 111.3759800  66.1958170   2.4978910 107.1502880  66.1571310
   2.4997350 107.6675270  65.3517210   1.6683220 106.6733060  66.1341240
  12.2615670 110.6043140  61.8021150  11.5571240 110.8928030  62.3824260
  12.6227830 111.4143250  61.4420710   2.1794240 108.8612840  64.1641760
   2.5211050 109.7054890  63.8695630   1.2410050 109.0096580  64.2807100
  15.3302590 110.0497930  62.1930360  14.3827500 110.0836910  62.3245790
  15.6552580 110.8636880  62.5779720   5.8622130 106.3495110  60.4886350
   6.1697110 105.7942000  59.7721850   4.9322830 106.4839570  60.3059340
   8.2371970 110.6860940  54.2213630   7.2975640 110.8474900  54.3066090
   8.5555230 111.4046620  53.6749620  11.7226740 112.1548780  65.1447530
  11.3097920 112.9802490  65.3987520  10.9902690 111.5693820  64.9523890
   3.8559530 114.9408680  60.0066200   3.4516530 114.2285930  59.5112100
   3.9422650 114.5961920  60.8954240   2.5688150 111.7151890  63.7865240
   3.1202740 111.8247230  63.0118490   3.0831660 112.0889490  64.5020470
  14.0382020 106.4693860  53.0495510  13.7254680 106.5620690  53.9494580
  14.7994490 107.0474890  52.9992940  15.2483310 111.2065360  69.0269650
  14.6327580 111.7145030  68.4985110  14.9279730 110.3063690  68.9695590
   3.0227820 107.1788730  60.8896520   2.5795970 107.9598270  60.5581040
   3.5812810 107.5018620  61.5967460   7.3097630 110.0457250  66.4931840
   6.8477000 110.2540270  67.3051780   6.9075740 109.2316600  66.1902510
  12.3102140 111.2666200  67.6228500  11.4595730 110.9671950  67.9437570
  12.1503930 111.5108210  66.7112320   9.4051850 112.7667950  69.7227290
   9.7305260 111.9331700  69.3829520  10.1932180 113.2896470  69.8705620
   6.1386640 106.7999430  55.7702350   5.5140820 106.7959300  56.4955660
   6.0516760 105.9330390  55.3738320   5.0603720 107.7236060  62.7486120
   5.3576050 108.6298890  62.6678140   5.6089280 107.2354840  62.1345690
   2.8142040 112.3022300  58.6177770   2.5882960 112.0859470  59.5224390
   2.0334570 112.7350760  58.2723740  10.0439800 112.3085670  57.2168420
   9.4448690 113.0321470  57.0332040  10.5919410 112.2462450  56.4344870
   5.2541250 113.2007880  69.2838040   5.1584850 112.2602610  69.1338440
   6.0973230 113.4222950  68.8886110   8.6504670 110.9449210  59.2471700
   9.0434240 111.2621410  58.4340390   9.0121520 110.0661090  59.3616220
   6.9596840 109.6956520  70.5068560   6.2695160 109.5028720  71.1414650
   7.7029140 109.9791160  71.0392860   9.2359810 113.5354960  63.3422480
   8.5040930 114.0441770  63.6912580   8.8384150 112.7184940  63.0411260
   5.6737200 110.2109160  61.7474970   5.6773260 109.7699110  60.8979510
   6.5688320 110.5326490  61.8546790   5.7357350 111.2121240  54.7381730
   5.8570170 111.1707720  55.6867550   5.3505860 112.0745390  54.5828460
   9.6985720 108.9888640  62.7545420   9.7158460 109.4397290  63.5987270
   9.4501300 108.0894280  62.9678860   4.7478850 113.5222380  54.1365030
   4.1795750 113.0740630  53.5100940   5.4567850 113.8815160  53.6030180
  13.1256470 106.4020820  68.5931800  13.4502240 105.6710480  69.1189780
  13.1612980 106.0834460  67.6912790   5.9745170 114.2710940  63.4940380
   6.3415300 113.7969510  64.2401720   5.7850230 115.1452510  63.8348720
   3.7644540 113.3119580  65.8124590   3.4601610 114.1911560  66.0374950
   4.7191000 113.3719370  65.8482030   8.5124250 107.9083890  56.3447220
   7.6988860 107.4097060  56.2692530   8.3186200 108.7482140  55.9283570
  11.2272640 112.2803540  54.6409380  12.1152260 112.5920770  54.4660720
  11.1977730 111.4075790  54.2489960   3.0221390 114.6106560  69.8435500
   2.7221530 114.7563740  68.9463320   3.7932630 114.0511850  69.7508890
  13.4986910 113.5915380  54.1089240  13.4150630 114.0229600  53.2585680
  14.2181100 114.0513730  54.5416060   9.8895620 110.1337870  65.3869500
  10.2576440 109.3133080  65.7149070   9.0293820 110.1939760  65.8025150
  13.2557650 109.0894810  56.1957060  12.6270810 109.1940480  55.4815290
  12.7609570 109.3091590  56.9850940   5.2241680 111.3680760  57.6114940
   4.5157830 111.8367100  58.0528550   5.5086160 110.7102770  58.2460130
   6.8497610 112.7877460  65.6107470   7.3482860 113.2623280  66.2759320
   6.9920560 111.8640980  65.8177500   9.2557110 108.0931420  59.0510730
   9.1324890 108.1117550  58.1020240  10.2041670 108.1410360  59.1709130
   3.4276700 109.6765840  54.9865650   4.2767230 110.1135990  54.9205840
   3.0607970 109.9886100  55.8137710  14.0564470 109.0045420  66.4535860
  13.5538070 109.7450820  66.7929670  14.8721130 109.3929420  66.1372650
  12.3486480 114.2478600  59.8997220  11.4076620 114.2628830  60.0744910
  12.6630550 113.4614560  60.3457520   2.5214570 111.9059880  68.2414800
   1.9911030 111.4150830  67.6138140   3.1902640 112.3344080  67.7072730
  11.8914800 113.7125500  70.0095140  12.4735570 112.9577820  69.9215620
  12.0676570 114.2432940  69.2326620   3.0086870 108.8722250  68.3212090
   2.9143740 108.2543000  67.5962960   2.4284260 109.5988540  68.0942000
   5.7748310 107.4295490  65.3539480   5.3265610 107.4519750  64.5085030
   5.1413510 107.0314510  65.9509780   8.5171760 114.0566000  67.3589760
   8.6367970 113.4607140  68.0984600   9.3765760 114.0935690  66.9391060
   3.2546050 111.9996560  52.3801980   3.0535110 111.1363920  52.7415320
   3.0838100 111.9129920  51.4423580   5.2840530 110.5987350  68.6165580
   5.8740220 110.2903200  69.3043400   4.4660770 110.1267100  68.7725480
  10.1033960 110.2153160  68.8498600   9.4149480 109.5534700  68.7848590
  10.8239980 109.7691430  69.2947060  10.7334360 106.8104790  54.9088860
  11.0136650 105.9672690  55.2648280   9.9600090 107.0427900  55.4227610
   2.0528850 109.0997180  52.3679860   2.3554750 109.1064610  51.4599010
   2.7923440 108.7495040  52.8647520   5.2713780 108.0431800  53.3536060
   4.9235780 107.3655790  52.7738510   5.4726550 107.5821310  54.1679450
  11.5609860 109.3660740  53.9718920  11.9794740 109.1791720  53.1315580
  11.2545920 108.5139790  54.2821850  15.0599590 114.2784880  57.6694720
  14.6843190 113.5112810  57.2376010  14.3302710 114.6607580  58.1569650
  14.4499210 113.4256400  67.3034240  14.2185300 113.1969150  66.4032190
  14.7103760 114.3455950  67.2579130  12.8887280 108.6512830  70.0813940
  13.7657460 108.6596230  70.4647940  12.9008120 107.9143670  69.4706290
  14.3350550 112.5042370  60.9701960  14.8588030 112.0105020  60.3392130
  14.9209970 112.6392730  61.7149530  14.5140270 112.5882240  64.4921510
  13.5642980 112.5545780  64.6066500  14.6953280 113.4982350  64.2571280
  13.8250520 111.7615720  56.9094370  14.3209640 111.5286590  57.6943250
  13.6266590 110.9227560  56.4932010  15.2537680 110.3976670  59.4432050
  15.1436960 110.2432710  60.3814320  16.0145270 109.8697610  59.2007460
  13.6003400 106.3370800  65.9015050  14.2375620 106.9504940  66.2674240
  13.7478290 106.3731460  64.9564280  16.1427950 108.2284590  52.6838190
  17.0677260 108.0965770  52.4756480  16.1203740 108.3077410  53.6374640
  16.2166440 108.9995250  55.3094900  15.4217940 108.9340370  55.8387810
  16.4209720 109.9345890  55.2980250   6.9707880 107.4896990  68.8090150
   6.9096770 108.0818820  69.5585560   7.9108260 107.3822950  68.6640410
   9.6082440 107.1467050  68.4482440  10.2222850 107.4646340  67.7863520
  10.1532000 106.6615640  69.0678300  10.3490480 105.7099190  64.7751730
   9.4750320 106.0434300  64.5724660  10.2401230 105.2372370  65.6003600
  11.2562460 107.9170060  66.1593450  10.9275820 107.1021820  65.7795180
  12.2044760 107.8739870  66.0359140   8.0965300 106.6269030  63.7144640
   7.3137090 107.1014530  63.9941400   7.8028230 105.7223860  63.6057820
  12.6486370 107.3292130  61.7593730  13.0894460 107.2737230  60.9115330
  12.3793960 108.2450140  61.8303910  14.5124940 106.9607370  59.7702550
  14.4513340 106.0168590  59.6233570  15.2916970 107.0687460  60.3156010
   5.9819520 109.0455780  59.2260670   5.1694030 108.6712670  58.8856550
   6.4861160 108.2900860  59.5281860  10.4844500 105.7098230  60.4643740
  11.0873870 106.2818440  60.9392260   9.7437490 106.2737670  60.2417640
  13.6279100 106.1119790  55.7384020  13.8229730 107.0103240  56.0051450
  12.8408970 105.8806870  56.2316970   1.8130860 107.4580560  54.7760330
   2.3423620 106.6710360  54.6468280   2.4459180 108.1371750  55.0095860
   4.0068700 107.1955700  57.8305720   3.3771440 106.4943010  57.9975850
   3.4673840 107.9559830  57.6138880   4.1324260 106.4739680  70.2658210
   3.8508530 106.9773280  69.5019030   4.5143960 105.6761430  69.9000340
  10.7339720 105.8893260  70.8438680  10.6205170 106.2087870  71.7390200
  11.5509460 106.2905770  70.5475960   9.6397870 113.9085730  41.2073420
   9.5591920 112.9940340  40.9365130   9.2262290 114.4052800  40.5013130
   8.2430070 111.1692320  43.3221780   8.6194890 110.2964200  43.2095450
   8.1449580 111.5051020  42.4312220   2.3735080 109.5417950  38.7839220
   2.4801830 110.4421680  39.0907980   1.4627440 109.4935920  38.4933870
  12.0254190 108.6642760  40.2550120  12.8463810 108.1739330  40.2975600
  12.0588270 109.2540420  41.0081960   4.2142810 112.5104320  43.1164400
   4.7221030 113.0085290  43.7569420   4.7456050 111.7339520  42.9403760
  16.3153740 110.6809510  46.8193750  15.6105910 111.0691220  46.3008860
  16.5811660 111.3759800  47.4214680   2.4978910 107.1502880  47.3827820
   2.4997350 107.6675270  46.5773720   1.6683220 106.6733060  47.3597750
  12.2615670 110.6043140  43.0277660  11.5571240 110.8928030  43.6080770
  12.6227830 111.4143250  42.6677220   2.1794240 108.8612840  45.3898270
   2.5211050 109.7054890  45.0952140   1.2410050 109.0096580  45.5063610
  15.3302590 110.0497930  43.4186870  14.3827500 110.0836910  43.5502300
  15.6552580 110.8636880  43.8036230   5.8622130 106.3495110  41.7142860
   6.1697110 105.7942000  40.9978360   4.9322830 106.4839570  41.5315850
   8.2371970 110.6860940  35.4470140   7.2975640 110.8474900  35.5322600
   8.5555230 111.4046620  34.9006130  11.7226740 112.1548780  46.3704040
  11.3097920 112.9802490  46.6244030  10.9902690 111.5693820  46.1780400
   3.8559530 114.9408680  41.2322710   3.4516530 114.2285930  40.7368610
   3.9422650 114.5961920  42.1210750   2.5688150 111.7151890  45.0121750
   3.1202740 111.8247230  44.2375000   3.0831660 112.0889490  45.7276980
  14.0382020 106.4693860  34.2752020  13.7254680 106.5620690  35.1751090
  14.7994490 107.0474890  34.2249450  15.2483310 111.2065360  50.2526160
  14.6327580 111.7145030  49.7241620  14.9279730 110.3063690  50.1952100
   3.0227820 107.1788730  42.1153030   2.5795970 107.9598270  41.7837550
   3.5812810 107.5018620  42.8223970   7.3097630 110.0457250  47.7188350
   6.8477000 110.2540270  48.5308290   6.9075740 109.2316600  47.4159020
  12.3102140 111.2666200  48.8485010  11.4595730 110.9671950  49.1694080
  12.1503930 111.5108210  47.9368830   9.4051850 112.7667950  50.9483800
   9.7305260 111.9331700  50.6086030  10.1932180 113.2896470  51.0962130
   6.1386640 106.7999430  36.9958860   5.5140820 106.7959300  37.7212170
   6.0516760 105.9330390  36.5994830   5.0603720 107.7236060  43.9742630
   5.3576050 108.6298890  43.8934650   5.6089280 107.2354840  43.3602200
   2.8142040 112.3022300  39.8434280   2.5882960 112.0859470  40.7480900
   2.0334570 112.7350760  39.4980250  10.0439800 112.3085670  38.4424930
   9.4448690 113.0321470  38.2588550  10.5919410 112.2462450  37.6601380
   5.2541250 113.2007880  50.5094550   5.1584850 112.2602610  50.3594950
   6.0973230 113.4222950  50.1142620   8.6504670 110.9449210  40.4728210
   9.0434240 111.2621410  39.6596900   9.0121520 110.0661090  40.5872730
   6.9596840 109.6956520  51.7325070   6.2695160 109.5028720  52.3671160
   7.7029140 109.9791160  52.2649370   9.2359810 113.5354960  44.5678990
   8.5040930 114.0441770  44.9169090   8.8384150 112.7184940  44.2667770
   5.6737200 110.2109160  42.9731480   5.6773260 109.7699110  42.1236020
   6.5688320 110.5326490  43.0803300   5.7357350 111.2121240  35.9638240
   5.8570170 111.1707720  36.9124060   5.3505860 112.0745390  35.8084970
   9.6985720 108.9888640  43.9801930   9.7158460 109.4397290  44.8243780
   9.4501300 108.0894280  44.1935370   4.7478850 113.5222380  35.3621540
   4.1795750 113.0740630  34.7357450   5.4567850 113.8815160  34.8286690
  13.1256470 106.4020820  49.8188310  13.4502240 105.6710480  50.3446290
  13.1612980 106.0834460  48.9169300   5.9745170 114.2710940  44.7196890
   6.3415300 113.7969510  45.4658230   5.7850230 115.1452510  45.0605230
   3.7644540 113.3119580  47.0381100   3.4601610 114.1911560  47.2631460
   4.7191000 113.3719370  47.0738540   8.5124250 107.9083890  37.5703730
   7.6988860 107.4097060  37.4949040   8.3186200 108.7482140  37.1540080
  11.2272640 112.2803540  35.8665890  12.1152260 112.5920770  35.6917230
  11.1977730 111.4075790  35.4746470   3.0221390 114.6106560  51.0692010
   2.7221530 114.7563740  50.1719830   3.7932630 114.0511850  50.9765400
  13.4986910 113.5915380  35.3345750  13.4150630 114.0229600  34.4842190
  14.2181100 114.0513730  35.7672570   9.8895620 110.1337870  46.6126010
  10.2576440 109.3133080  46.9405580   9.0293820 110.1939760  47.0281660
  13.2557650 109.0894810  37.4213570  12.6270810 109.1940480  36.7071800
  12.7609570 109.3091590  38.2107450   5.2241680 111.3680760  38.8371450
   4.5157830 111.8367100  39.2785060   5.5086160 110.7102770  39.4716640
   6.8497610 112.7877460  46.8363980   7.3482860 113.2623280  47.5015830
   6.9920560 111.8640980  47.0434010   9.2557110 108.0931420  40.2767240
   9.1324890 108.1117550  39.3276750  10.2041670 108.1410360  40.3965640
   3.4276700 109.6765840  36.2122160   4.2767230 110.1135990  36.1462350
   3.0607970 109.9886100  37.0394220  14.0564470 109.0045420  47.6792370
  13.5538070 109.7450820  48.0186180  14.8721130 109.3929420  47.3629160
  12.3486480 114.2478600  41.1253730  11.4076620 114.2628830  41.3001420
  12.6630550 113.4614560  41.5714030   2.5214570 111.9059880  49.4671310
   1.9911030 111.4150830  48.8394650   3.1902640 112.3344080  48.9329240
  11.8914800 113.7125500  51.2351650  12.4735570 112.9577820  51.1472130
  12.0676570 114.2432940  50.4583130   3.0086870 108.8722250  49.5468600
   2.9143740 108.2543000  48.8219470   2.4284260 109.5988540  49.3198510
   5.7748310 107.4295490  46.5795990   5.3265610 107.4519750  45.7341540
   5.1413510 107.0314510  47.1766290   8.5171760 114.0566000  48.5846270
   8.6367970 113.4607140  49.3241110   9.3765760 114.0935690  48.1647570
   3.2546050 111.9996560  33.6058490   3.0535110 111.1363920  33.9671830
   3.0838100 111.9129920  32.6680090   5.2840530 110.5987350  49.8422090
   5.8740220 110.2903200  50.5299910   4.4660770 110.1267100  49.9981990
  10.1033960 110.2153160  50.0755110   9.4149480 109.5534700  50.0105100
  10.8239980 109.7691430  50.5203570  10.7334360 106.8104790  36.1345370
  11.0136650 105.9672690  36.4904790   9.9600090 107.0427900  36.6484120
   2.0528850 109.0997180  33.5936370   2.3554750 109.1064610  32.6855520
   2.7923440 108.7495040  34.0904030   5.2713780 108.0431800  34.5792570
   4.9235780 107.3655790  33.9995020   5.4726550 107.5821310  35.3935960
  11.5609860 109.3660740  35.1975430  11.9794740 109.1791720  34.3572090
  11.2545920 108.5139790  35.5078360  15.0599590 114.2784880  38.8951230
  14.6843190 113.5112810  38.4632520  14.3302710 114.6607580  39.3826160
  14.4499210 113.4256400  48.5290750  14.2185300 113.1969150  47.6288700
  14.7103760 114.3455950  48.4835640  12.8887280 108.6512830  51.3070450
  13.7657460 108.6596230  51.6904450  12.9008120 107.9143670  50.6962800
  14.3350550 112.5042370  42.1958470  14.8588030 112.0105020  41.5648640
  14.9209970 112.6392730  42.9406040  14.5140270 112.5882240  45.7178020
  13.5642980 112.5545780  45.8323010  14.6953280 113.4982350  45.4827790
  13.8250520 111.7615720  38.1350880  14.3209640 111.5286590  38.9199760
  13.6266590 110.9227560  37.7188520  15.2537680 110.3976670  40.6688560
  15.1436960 110.2432710  41.6070830  16.0145270 109.8697610  40.4263970
  13.6003400 106.3370800  47.1271560  14.2375620 106.9504940  47.4930750
  13.7478290 106.3731460  46.1820790  16.1427950 108.2284590  33.9094700
  17.0677260 108.0965770  33.7012990  16.1203740 108.3077410  34.8631150
  16.2166440 108.9995250  36.5351410  15.4217940 108.9340370  37.0644320
  16.4209720 109.9345890  36.5236760   6.9707880 107.4896990  50.0346660
   6.9096770 108.0818820  50.7842070   7.9108260 107.3822950  49.8896920
   9.6082440 107.1467050  49.6738950  10.2222850 107.4646340  49.0120030
  10.1532000 106.6615640  50.2934810  10.3490480 105.7099190  46.0008240
   9.4750320 106.0434300  45.7981170  10.2401230 105.2372370  46.8260110
  11.2562460 107.9170060  47.3849960  10.9275820 107.1021820  47.0051690
  12.2044760 107.8739870  47.2615650   8.0965300 106.6269030  44.9401150
   7.3137090 107.1014530  45.2197910   7.8028230 105.7223860  44.8314330
  12.6486370 107.3292130  42.9850240  13.0894460 107.2737230  42.1371840
  12.3793960 108.2450140  43.0560420  14.5124940 106.9607370  40.9959060
  14.4513340 106.0168590  40.8490080  15.2916970 107.0687460  41.5412520
   5.9819520 109.0455780  40.4517180   5.1694030 108.6712670  40.1113060
   6.4861160 108.2900860  40.7538370  10.4844500 105.7098230  41.6900250
  11.0873870 106.2818440  42.1648770   9.7437490 106.2737670  41.4674150
  13.6279100 106.1119790  36.9640530  13.8229730 107.0103240  37.2307960
  12.8408970 105.8806870  37.4573480   1.8130860 107.4580560  36.0016840
   2.3423620 106.6710360  35.8724790   2.4459180 108.1371750  36.2352370
   4.0068700 107.1955700  39.0562230   3.3771440 106.4943010  39.2232360
   3.4673840 107.9559830  38.8395390   4.1324260 106.4739680  51.4914720
   3.8508530 106.9773280  50.7275540   4.5143960 105.6761430  51.1256850
  10.7339720 105.8893260  52.0695190  10.6205170 106.2087870  52.9646710
  11.5509460 106.2905770  51.7732470   9.6397870 113.9085730  22.4329930
   9.5591920 112.9940340  22.1621640   9.2262290 114.4052800  21.7269640
   8.2430070 111.1692320  24.5478290   8.6194890 110.2964200  24.4351960
   8.1449580 111.5051020  23.6568730   2.3735080 109.5417950  20.0095730
   2.4801830 110.4421680  20.3164490   1.4627440 109.4935920  19.7190380
  12.0254190 108.6642760  21.4806630  12.8463810 108.1739330  21.5232110
  12.0588270 109.2540420  22.2338470   4.2142810 112.5104320  24.3420910
   4.7221030 113.0085290  24.9825930   4.7456050 111.7339520  24.1660270
  16.3153740 110.6809510  28.0450260  15.6105910 111.0691220  27.5265370
  16.5811660 111.3759800  28.6471190   2.4978910 107.1502880  28.6084330
   2.4997350 107.6675270  27.8030230   1.6683220 106.6733060  28.5854260
  12.2615670 110.6043140  24.2534170  11.5571240 110.8928030  24.8337280
  12.6227830 111.4143250  23.8933730   2.1794240 108.8612840  26.6154780
   2.5211050 109.7054890  26.3208650   1.2410050 109.0096580  26.7320120
  15.3302590 110.0497930  24.6443380  14.3827500 110.0836910  24.7758810
  15.6552580 110.8636880  25.0292740   5.8622130 106.3495110  22.9399370
   6.1697110 105.7942000  22.2234870   4.9322830 106.4839570  22.7572360
   8.2371970 110.6860940  16.6726650   7.2975640 110.8474900  16.7579110
   8.5555230 111.4046620  16.1262640  11.7226740 112.1548780  27.5960550
  11.3097920 112.9802490  27.8500540  10.9902690 111.5693820  27.4036910
   3.8559530 114.9408680  22.4579220   3.4516530 114.2285930  21.9625120
   3.9422650 114.5961920  23.3467260   2.5688150 111.7151890  26.2378260
   3.1202740 111.8247230  25.4631510   3.0831660 112.0889490  26.9533490
  14.0382020 106.4693860  15.5008530  13.7254680 106.5620690  16.4007600
  14.7994490 107.0474890  15.4505960  15.2483310 111.2065360  31.4782670
  14.6327580 111.7145030  30.9498130  14.9279730 110.3063690  31.4208610
   3.0227820 107.1788730  23.3409540   2.5795970 107.9598270  23.0094060
   3.5812810 107.5018620  24.0480480   7.3097630 110.0457250  28.9444860
   6.8477000 110.2540270  29.7564800   6.9075740 109.2316600  28.6415530
  12.3102140 111.2666200  30.0741520  11.4595730 110.9671950  30.3950590
  12.1503930 111.5108210  29.1625340   9.4051850 112.7667950  32.1740310
   9.7305260 111.9331700  31.8342540  10.1932180 113.2896470  32.3218640
   6.1386640 106.7999430  18.2215370   5.5140820 106.7959300  18.9468680
   6.0516760 105.9330390  17.8251340   5.0603720 107.7236060  25.1999140
   5.3576050 108.6298890  25.1191160   5.6089280 107.2354840  24.5858710
   2.8142040 112.3022300  21.0690790   2.5882960 112.0859470  21.9737410
   2.0334570 112.7350760  20.7236760  10.0439800 112.3085670  19.6681440
   9.4448690 113.0321470  19.4845060  10.5919410 112.2462450  18.8857890
   5.2541250 113.2007880  31.7351060   5.1584850 112.2602610  31.5851460
   6.0973230 113.4222950  31.3399130   8.6504670 110.9449210  21.6984720
   9.0434240 111.2621410  20.8853410   9.0121520 110.0661090  21.8129240
   6.9596840 109.6956520  32.9581580   6.2695160 109.5028720  33.5927670
   7.7029140 109.9791160  33.4905880   9.2359810 113.5354960  25.7935500
   8.5040930 114.0441770  26.1425600   8.8384150 112.7184940  25.4924280
   5.6737200 110.2109160  24.1987990   5.6773260 109.7699110  23.3492530
   6.5688320 110.5326490  24.3059810   5.7357350 111.2121240  17.1894750
   5.8570170 111.1707720  18.1380570   5.3505860 112.0745390  17.0341480
   9.6985720 108.9888640  25.2058440   9.7158460 109.4397290  26.0500290
   9.4501300 108.0894280  25.4191880   4.7478850 113.5222380  16.5878050
   4.1795750 113.0740630  15.9613960   5.4567850 113.8815160  16.0543200
  13.1256470 106.4020820  31.0444820  13.4502240 105.6710480  31.5702800
  13.1612980 106.0834460  30.1425810   5.9745170 114.2710940  25.9453400
   6.3415300 113.7969510  26.6914740   5.7850230 115.1452510  26.2861740
   3.7644540 113.3119580  28.2637610   3.4601610 114.1911560  28.4887970
   4.7191000 113.3719370  28.2995050   8.5124250 107.9083890  18.7960240
   7.6988860 107.4097060  18.7205550   8.3186200 108.7482140  18.3796590
  11.2272640 112.2803540  17.0922400  12.1152260 112.5920770  16.9173740
  11.1977730 111.4075790  16.7002980   3.0221390 114.6106560  32.2948520
   2.7221530 114.7563740  31.3976340   3.7932630 114.0511850  32.2021910
  13.4986910 113.5915380  16.5602260  13.4150630 114.0229600  15.7098700
  14.2181100 114.0513730  16.9929080   9.8895620 110.1337870  27.8382520
  10.2576440 109.3133080  28.1662090   9.0293820 110.1939760  28.2538170
  13.2557650 109.0894810  18.6470080  12.6270810 109.1940480  17.9328310
  12.7609570 109.3091590  19.4363960   5.2241680 111.3680760  20.0627960
   4.5157830 111.8367100  20.5041570   5.5086160 110.7102770  20.6973150
   6.8497610 112.7877460  28.0620490   7.3482860 113.2623280  28.7272340
   6.9920560 111.8640980  28.2690520   9.2557110 108.0931420  21.5023750
   9.1324890 108.1117550  20.5533260  10.2041670 108.1410360  21.6222150
   3.4276700 109.6765840  17.4378670   4.2767230 110.1135990  17.3718860
   3.0607970 109.9886100  18.2650730  14.0564470 109.0045420  28.9048880
  13.5538070 109.7450820  29.2442690  14.8721130 109.3929420  28.5885670
  12.3486480 114.2478600  22.3510240  11.4076620 114.2628830  22.5257930
  12.6630550 113.4614560  22.7970540   2.5214570 111.9059880  30.6927820
   1.9911030 111.4150830  30.0651160   3.1902640 112.3344080  30.1585750
  11.8914800 113.7125500  32.4608160  12.4735570 112.9577820  32.3728640
  12.0676570 114.2432940  31.6839640   3.0086870 108.8722250  30.7725110
   2.9143740 108.2543000  30.0475980   2.4284260 109.5988540  30.5455020
   5.7748310 107.4295490  27.8052500   5.3265610 107.4519750  26.9598050
   5.1413510 107.0314510  28.4022800   8.5171760 114.0566000  29.8102780
   8.6367970 113.4607140  30.5497620   9.3765760 114.0935690  29.3904080
   3.2546050 111.9996560  14.8315000   3.0535110 111.1363920  15.1928340
   3.0838100 111.9129920  13.8936600   5.2840530 110.5987350  31.0678600
   5.8740220 110.2903200  31.7556420   4.4660770 110.1267100  31.2238500
  10.1033960 110.2153160  31.3011620   9.4149480 109.5534700  31.2361610
  10.8239980 109.7691430  31.7460080  10.7334360 106.8104790  17.3601880
  11.0136650 105.9672690  17.7161300   9.9600090 107.0427900  17.8740630
   2.0528850 109.0997180  14.8192880   2.3554750 109.1064610  13.9112030
   2.7923440 108.7495040  15.3160540   5.2713780 108.0431800  15.8049080
   4.9235780 107.3655790  15.2251530   5.4726550 107.5821310  16.6192470
  11.5609860 109.3660740  16.4231940  11.9794740 109.1791720  15.5828600
  11.2545920 108.5139790  16.7334870  15.0599590 114.2784880  20.1207740
  14.6843190 113.5112810  19.6889030  14.3302710 114.6607580  20.6082670
  14.4499210 113.4256400  29.7547260  14.2185300 113.1969150  28.8545210
  14.7103760 114.3455950  29.7092150  12.8887280 108.6512830  32.5326960
  13.7657460 108.6596230  32.9160960  12.9008120 107.9143670  31.9219310
  14.3350550 112.5042370  23.4214980  14.8588030 112.0105020  22.7905150
  14.9209970 112.6392730  24.1662550  14.5140270 112.5882240  26.9434530
  13.5642980 112.5545780  27.0579520  14.6953280 113.4982350  26.7084300
  13.8250520 111.7615720  19.3607390  14.3209640 111.5286590  20.1456270
  13.6266590 110.9227560  18.9445030  15.2537680 110.3976670  21.8945070
  15.1436960 110.2432710  22.8327340  16.0145270 109.8697610  21.6520480
  13.6003400 106.3370800  28.3528070  14.2375620 106.9504940  28.7187260
  13.7478290 106.3731460  27.4077300  16.1427950 108.2284590  15.1351210
  17.0677260 108.0965770  14.9269500  16.1203740 108.3077410  16.0887660
  16.2166440 108.9995250  17.7607920  15.4217940 108.9340370  18.2900830
  16.4209720 109.9345890  17.7493270   6.9707880 107.4896990  31.2603170
   6.9096770 108.0818820  32.0098580   7.9108260 107.3822950  31.1153430
   9.6082440 107.1467050  30.8995460  10.2222850 107.4646340  30.2376540
  10.1532000 106.6615640  31.5191320  10.3490480 105.7099190  27.2264750
   9.4750320 106.0434300  27.0237680  10.2401230 105.2372370  28.0516620
  11.2562460 107.9170060  28.6106470  10.9275820 107.1021820  28.2308200
  12.2044760 107.8739870  28.4872160   8.0965300 106.6269030  26.1657660
   7.3137090 107.1014530  26.4454420   7.8028230 105.7223860  26.0570840
  12.6486370 107.3292130  24.2106750  13.0894460 107.2737230  23.3628350
  12.3793960 108.2450140  24.2816930  14.5124940 106.9607370  22.2215570
  14.4513340 106.0168590  22.0746590  15.2916970 107.0687460  22.7669030
   5.9819520 109.0455780  21.6773690   5.1694030 108.6712670  21.3369570
   6.4861160 108.2900860  21.9794880  10.4844500 105.7098230  22.9156760
  11.0873870 106.2818440  23.3905280   9.7437490 106.2737670  22.6930660
  13.6279100 106.1119790  18.1897040  13.8229730 107.0103240  18.4564470
  12.8408970 105.8806870  18.6829990   1.8130860 107.4580560  17.2273350
   2.3423620 106.6710360  17.0981300   2.4459180 108.1371750  17.4608880
   4.0068700 107.1955700  20.2818740   3.3771440 106.4943010  20.4488870
   3.4673840 107.9559830  20.0651900   4.1324260 106.4739680  32.7171230
   3.8508530 106.9773280  31.9532050   4.5143960 105.6761430  32.3513360
  10.7339720 105.8893260  33.2951700  10.6205170 106.2087870  34.1903220
  11.5509460 106.2905770  32.9988980   9.6397870 113.9085730   3.6586440
   9.5591920 112.9940340   3.3878150   9.2262290 114.4052800   2.9526150
   8.2430070 111.1692320   5.7734800   8.6194890 110.2964200   5.6608470
   8.1449580 111.5051020   4.8825240  12.0254190 108.6642760   2.7063140
  12.8463810 108.1739330   2.7488620  12.0588270 109.2540420   3.4594980
   4.2142810 112.5104320   5.5677420   4.7221030 113.0085290   6.2082440
   4.7456050 111.7339520   5.3916780  16.3153740 110.6809510   9.2706770
  15.6105910 111.0691220   8.7521880  16.5811660 111.3759800   9.8727700
   2.4978910 107.1502880   9.8340840   2.4997350 107.6675270   9.0286740
   1.6683220 106.6733060   9.8110770  12.2615670 110.6043140   5.4790680
  11.5571240 110.8928030   6.0593790  12.6227830 111.4143250   5.1190240
   2.1794240 108.8612840   7.8411290   2.5211050 109.7054890   7.5465160
   1.2410050 109.0096580   7.9576630  15.3302590 110.0497930   5.8699890
  14.3827500 110.0836910   6.0015320  15.6552580 110.8636880   6.2549250
   5.8622130 106.3495110   4.1655880   6.1697110 105.7942000   3.4491380
   4.9322830 106.4839570   3.9828870  11.7226740 112.1548780   8.8217060
  11.3097920 112.9802490   9.0757050  10.9902690 111.5693820   8.6293420
   3.8559530 114.9408680   3.6835730   3.4516530 114.2285930   3.1881630
   3.9422650 114.5961920   4.5723770   2.5688150 111.7151890   7.4634770
   3.1202740 111.8247230   6.6888020   3.0831660 112.0889490   8.1790000
  15.2483310 111.2065360  12.7039180  14.6327580 111.7145030  12.1754640
  14.9279730 110.3063690  12.6465120   3.0227820 107.1788730   4.5666050
   2.5795970 107.9598270   4.2350570   3.5812810 107.5018620   5.2736990
   7.3097630 110.0457250  10.1701370   6.8477000 110.2540270  10.9821310
   6.9075740 109.2316600   9.8672040  12.3102140 111.2666200  11.2998030
  11.4595730 110.9671950  11.6207100  12.1503930 111.5108210  10.3881850
   9.4051850 112.7667950  13.3996820   9.7305260 111.9331700  13.0599050
  10.1932180 113.2896470  13.5475150   5.0603720 107.7236060   6.4255650
   5.3576050 108.6298890   6.3447670   5.6089280 107.2354840   5.8115220
   2.8142040 112.3022300   2.2947300   2.5882960 112.0859470   3.1993920
   2.0334570 112.7350760   1.9493270   5.2541250 113.2007880  12.9607570
   5.1584850 112.2602610  12.8107970   6.0973230 113.4222950  12.5655640
   8.6504670 110.9449210   2.9241230   9.0434240 111.2621410   2.1109920
   9.0121520 110.0661090   3.0385750   6.9596840 109.6956520  14.1838090
   6.2695160 109.5028720  14.8184180   7.7029140 109.9791160  14.7162390
   9.2359810 113.5354960   7.0192010   8.5040930 114.0441770   7.3682110
   8.8384150 112.7184940   6.7180790   5.6737200 110.2109160   5.4244500
   5.6773260 109.7699110   4.5749040   6.5688320 110.5326490   5.5316320
   9.6985720 108.9888640   6.4314950   9.7158460 109.4397290   7.2756800
   9.4501300 108.0894280   6.6448390  13.1256470 106.4020820  12.2701330
  13.4502240 105.6710480  12.7959310  13.1612980 106.0834460  11.3682320
   5.9745170 114.2710940   7.1709910   6.3415300 113.7969510   7.9171250
   5.7850230 115.1452510   7.5118250   3.7644540 113.3119580   9.4894120
   3.4601610 114.1911560   9.7144480   4.7191000 113.3719370   9.5251560
   3.0221390 114.6106560  13.5205030   2.7221530 114.7563740  12.6232850
   3.7932630 114.0511850  13.4278420   9.8895620 110.1337870   9.0639030
  10.2576440 109.3133080   9.3918600   9.0293820 110.1939760   9.4794680
   6.8497610 112.7877460   9.2877000   7.3482860 113.2623280   9.9528850
   6.9920560 111.8640980   9.4947030   9.2557110 108.0931420   2.7280260
   9.1324890 108.1117550   1.7789770  10.2041670 108.1410360   2.8478660
  14.0564470 109.0045420  10.1305390  13.5538070 109.7450820  10.4699200
  14.8721130 109.3929420   9.8142180  12.3486480 114.2478600   3.5766750
  11.4076620 114.2628830   3.7514440  12.6630550 113.4614560   4.0227050
   2.5214570 111.9059880  11.9184330   1.9911030 111.4150830  11.2907670
   3.1902640 112.3344080  11.3842260  11.8914800 113.7125500  13.6864670
  12.4735570 112.9577820  13.5985150  12.0676570 114.2432940  12.9096150
   3.0086870 108.8722250  11.9981620   2.9143740 108.2543000  11.2732490
   2.4284260 109.5988540  11.7711530   5.7748310 107.4295490   9.0309010
   5.3265610 107.4519750   8.1854560   5.1413510 107.0314510   9.6279310
   8.5171760 114.0566000  11.0359290   8.6367970 113.4607140  11.7754130
   9.3765760 114.0935690  10.6160590   5.2840530 110.5987350  12.2935110
   5.8740220 110.2903200  12.9812930   4.4660770 110.1267100  12.4495010
  10.1033960 110.2153160  12.5268130   9.4149480 109.5534700  12.4618120
  10.8239980 109.7691430  12.9716590  14.4499210 113.4256400  10.9803770
  14.2185300 113.1969150  10.0801720  14.7103760 114.3455950  10.9348660
  12.8887280 108.6512830  13.7583470  13.7657460 108.6596230  14.1417470
  12.9008120 107.9143670  13.1475820  14.3350550 112.5042370   4.6471490
  14.8588030 112.0105020   4.0161660  14.9209970 112.6392730   5.3919060
  14.5140270 112.5882240   8.1691040  13.5642980 112.5545780   8.2836030
  14.6953280 113.4982350   7.9340810  15.2537680 110.3976670   3.1201580
  15.1436960 110.2432710   4.0583850  16.0145270 109.8697610   2.8776990
  13.6003400 106.3370800   9.5784580  14.2375620 106.9504940   9.9443770
  13.7478290 106.3731460   8.6333810   6.9707880 107.4896990  12.4859680
   6.9096770 108.0818820  13.2355090   7.9108260 107.3822950  12.3409940
   9.6082440 107.1467050  12.1251970  10.2222850 107.4646340  11.4633050
  10.1532000 106.6615640  12.7447830  10.3490480 105.7099190   8.4521260
   9.4750320 106.0434300   8.2494190  10.2401230 105.2372370   9.2773130
  11.2562460 107.9170060   9.8362980  10.9275820 107.1021820   9.4564710
  12.2044760 107.8739870   9.7128670   8.0965300 106.6269030   7.3914170
   7.3137090 107.1014530   7.6710930   7.8028230 105.7223860   7.2827350
  12.6486370 107.3292130   5.4363260  13.0894460 107.2737230   4.5884860
  12.3793960 108.2450140   5.5073440  14.5124940 106.9607370   3.4472080
  14.4513340 106.0168590   3.3003100  15.2916970 107.0687460   3.9925540
   5.9819520 109.0455780   2.9030200   5.1694030 108.6712670   2.5626080
   6.4861160 108.2900860   3.2051390  10.4844500 105.7098230   4.1413270
  11.0873870 106.2818440   4.6161790   9.7437490 106.2737670   3.9187170
   4.1324260 106.4739680  13.9427740   3.8508530 106.9773280  13.1788560
   4.5143960 105.6761430  13.5769870  10.7339720 105.8893260  14.5208210
  10.6205170 106.2087870  15.4159730  11.5509460 106.2905770  14.2245490
   9.6397870  95.1342240  97.5303890   9.5591920  94.2196850  97.2595600
   9.2262290  95.6309310  96.8243600   7.7715910  96.9121260  99.4113160
   6.9958010  96.4321700  99.7011730   8.4228840  96.2326910  99.2369320
  11.7923340 101.3181450  98.1912290  11.3304870 100.5468690  98.5199460
  12.6048890 101.3447520  98.6964740   1.7683000 101.2581160 100.4846940
   2.0711040 100.3678900 100.3057160   2.5126590 101.8151380 100.2569190
   8.0186650 103.6039460  97.8116280   7.3998090 104.0596960  97.2410720
   8.8738430 103.7590920  97.4105980   7.2124900  99.5878450  99.4183320
   7.1433180  98.6468390  99.2572450   7.9744760  99.6779860  99.9905890
   8.2430070  92.3948830  99.6452250   8.6194890  91.5220710  99.5325920
   8.1449580  92.7307530  98.7542690   2.3735080  90.7674460  95.1069690
   2.4801830  91.6678190  95.4138450   1.4627440  90.7192430  94.8164340
  12.0254190  89.8899270  96.5780590  12.8463810  89.3995840  96.6206070
  12.0588270  90.4796930  97.3312430   4.2142810  93.7360830  99.4394870
   4.7221030  94.2341800 100.0799890   4.7456050  92.9596030  99.2634230
   8.8850000  98.4878700  95.2048190   8.2667270  98.9528150  94.6410910
   9.3973250  99.1806180  95.6217700   3.7481760  98.0154570 101.8831790
   3.4151140  98.6423490 102.5252860   3.9248440  98.5416450 101.1033460
  12.2615670  91.8299650  99.3508130  11.5571240  92.1184540  99.9311240
  12.6227830  92.6399760  98.9907690   2.1794240  90.0869350 101.7128740
   2.5211050  90.9311400 101.4182610   1.2410050  90.2353090 101.8294080
  13.8778450 101.4474780 101.6135610  13.1941970 102.1173890 101.6052280
  14.4172740 101.6455430 100.8480470  15.3302590  91.2754440  99.7417340
  14.3827500  91.3093420  99.8732770  15.6552580  92.0893390 100.1266700
   5.8622130  87.5751620  98.0373330   6.1697110  87.0198510  97.3208830
   4.9322830  87.7096080  97.8546320  11.4137190 103.2918910 100.3280790
  11.4264350 102.8881200  99.4603050  10.8612410 104.0666200 100.2242220
  12.7082610 100.0135130  95.4170960  12.5978940  99.0709460  95.5420380
  12.7050860 100.3750770  96.3033720  10.8122630  98.1948750 101.6563400
  11.2291420  97.9808860 100.8216860  11.5362450  98.4521540 102.2272020
   8.2502890  95.6400450  94.7733450   7.3232170  95.5737830  95.0021920
   8.4027710  96.5780580  94.6588690   8.2371970  91.9117450  91.7700610
   7.2975640  92.0731410  91.8553070   8.5555230  92.6303130  91.2236600
  14.7584730  96.5935970 101.7479640  13.9303360  96.6629060 101.2729770
  15.3535210  97.1790280 101.2795470  12.2800180  97.2020750  95.2768700
  11.6612600  96.8640300  94.6295000  12.2624630  96.5580510  95.9847890
   3.8559530  96.1665190  97.5553180   3.4516530  95.4542440  97.0599080
   3.9422650  95.8218430  98.4441220   4.3241230  99.8532750  99.7192390
   4.0269520  99.2478220  99.0400170   5.2741050  99.8910060  99.6081750
   2.5688150  92.9408400 101.3352220   3.1202740  93.0503740 100.5605470
   3.0831660  93.3146000 102.0507450  10.4564880  96.4407560  92.2841450
  10.8958160  95.6029990  92.1379270  11.1693300  97.0736960  92.3705590
   8.5660260 101.3803630  96.2522690   9.0056170 102.1227960  95.8378080
   8.5047150 101.6230200  97.1761650  14.0382020  87.6950370  90.5982490
  13.7254680  87.7877200  91.4981560  14.7994490  88.2731400  90.5479920
  11.2330440 104.3672750  93.6085700  11.0731580 104.0775690  94.5067530
  11.0677150 103.5912880  93.0730930   3.7118820 104.1471280  95.3857320
   3.5361300 103.2306820  95.1725120   2.8574560 104.5058570  95.6255120
  10.9356570 101.8760310  92.1683700  10.2421730 101.8737600  91.5085980
  11.6779430 101.4519630  91.7377870  10.5006500 103.5023020  96.2432190
  10.9563450 102.7212400  96.5570810  10.8399020 104.2129840  96.7873370
   3.0227820  88.4045240  98.4383500   2.5795970  89.1854780  98.1068020
   3.5812810  88.7275130  99.1454440   6.1386640  88.0255940  93.3189330
   5.5140820  88.0215810  94.0442640   6.0516760  87.1586900  92.9225300
   5.0603720  88.9492570 100.2973100   5.3576050  89.8555400 100.2165120
   5.6089280  88.4611350  99.6832670   2.8142040  93.5278810  96.1664750
   2.5882960  93.3115980  97.0711370   2.0334570  93.9607270  95.8210720
  10.0439800  93.5342180  94.7655400   9.4448690  94.2577980  94.5819020
  10.5919410  93.4718960  93.9831850   8.6504670  92.1705720  96.7958680
   9.0434240  92.4877920  95.9827370   9.0121520  91.2917600  96.9103200
   9.2359810  94.7611470 100.8909460   8.5040930  95.2698280 101.2399560
   8.8384150  93.9441450 100.5898240   5.6737200  91.4365670  99.2961950
   5.6773260  90.9955620  98.4466490   6.5688320  91.7583000  99.4033770
   5.7357350  92.4377750  92.2868710   5.8570170  92.3964230  93.2354530
   5.3505860  93.3001900  92.1315440   9.6985720  90.2145150 100.3032400
   9.7158460  90.6653800 101.1474250   9.4501300  89.3150790 100.5165840
   4.7478850  94.7478890  91.6852010   4.1795750  94.2997140  91.0587920
   5.4567850  95.1071670  91.1517160   5.9745170  95.4967450 101.0427360
   6.3415300  95.0226020 101.7888700   5.7850230  96.3709020 101.3835700
   2.2926330  98.7437080  93.9578420   1.5188590  98.2034700  93.7977140
   3.0220960  98.2243690  93.6196180  13.0514310  97.7402440  99.7504810
  13.7713430  98.2357730  99.3600920  12.8496130  97.0620330  99.1058680
   8.5124250  89.1340400  93.8934200   7.6988860  88.6353570  93.8179510
   8.3186200  89.9738650  93.4770550  11.2272640  93.5060050  92.1896360
  12.1152260  93.8177280  92.0147700  11.1977730  92.6332300  91.7976940
   2.3363730  98.4117460  97.5957230   2.8542400  97.6085720  97.5414120
   1.8847750  98.3496600  98.4374060   7.2233230  99.6783740  92.8684530
   7.5648930 100.4225970  92.3727850   6.3945940  99.9914860  93.2309360
  13.4986910  94.8171890  91.6576220  13.4150630  95.2486110  90.8072660
  14.2181100  95.2770240  92.0903040  14.5274160 101.6714150  94.3858350
  13.8850320 101.0169770  94.6602070  14.1404820 102.0769240  93.6099020
  10.1060640  98.9999580  98.2330040  10.4584460  98.4027710  97.5731410
   9.2222970  98.6743810  98.4038290   6.1923920  99.7597270  95.6400450
   6.8795050 100.3066480  96.0208040   5.4056340 100.3038000  95.6750060
   5.4951130  96.7643300  95.2525810   5.9513910  97.5748550  95.4786000
   5.1439340  96.4466440  96.0844300   9.0715820 100.2781990 101.1995560
   9.7138050  99.5775150 101.3127730   9.5965170 101.0580430 101.0192450
  12.9171540 100.5630610  90.9234700  12.6909120  99.8461050  91.5159340
  12.5267740 100.3143050  90.0856450  12.4987790  98.4802550  92.5848860
  12.2109490  98.9415240  93.3726740  13.2939960  98.0200320  92.8533080
   4.7156190 101.9728670  92.5152830   4.7066290 102.7058360  91.8997340
   3.7954550 101.7260250  92.6079790  13.2557650  90.3151320  93.7444040
  12.6270810  90.4196990  93.0302270  12.7609570  90.5348100  94.5337920
   7.7015790 102.0356910  91.1778020   7.8027770 101.8320900  90.2480000
   6.8017530 101.7815190  91.3825800   5.2241680  92.5937270  95.1601920
   4.5157830  93.0623610  95.6015530   5.5086160  91.9359280  95.7947110
   9.2557110  89.3187930  96.5997710   9.1324890  89.3374060  95.6507220
  10.2041670  89.3666870  96.7196110   6.3433900 104.5543230  95.8725690
   6.5975400 104.5164620  94.9505060   5.3946380 104.4276560  95.8653940
   3.4276700  90.9022350  92.5352630   4.2767230  91.3392500  92.4692820
   3.0607970  91.2142610  93.3624690  12.3486480  95.4735110  97.4484200
  11.4076620  95.4885340  97.6231890  12.6630550  94.6871070  97.8944500
   2.3268120  97.1554710  91.0088160   3.0931390  97.0436070  91.5713590
   2.4042810  96.4592680  90.3564930  14.3512060 102.6443960  99.1238460
  14.4759480 103.4675130  99.5962270  15.2177620 102.4334690  98.7762610
   1.8229590 104.7375170  98.7955590   2.5592070 104.1890630  99.0664160
   2.2070510 105.6031180  98.6561580   4.9331900 103.9105480  90.6181160
   5.7260510 104.1994310  90.1662950   4.4136250 103.4797650  89.9393640
  13.9862070 103.1375610  92.0417900  13.7003580 102.7240750  91.2272080
  13.7881620 104.0663320  91.9218420   5.4509300  99.1308890  90.4823510
   5.3459940  98.5161240  91.2084890   5.2833520  98.6074780  89.6986520
   8.6912030  98.1928920  91.0865500   8.1422130  98.6398220  91.7308240
   9.3131290  97.6878170  91.6103170   4.3587150  97.1519840  92.9830800
   4.7803570  96.9859710  93.8262190   4.4837990  96.3420070  92.4885940
   6.8714790  96.1757450  90.2307900   7.3920450  95.4606470  89.8649050
   7.5183190  96.8143320  90.5308410   3.2546050  93.2253070  89.9288960
   3.0535110  92.3620430  90.2902300   3.0838100  93.1386430  88.9910560
  10.7334360  88.0361300  92.4575840  11.0136650  87.1929200  92.8135260
   9.9600090  88.2684410  92.9714590   2.0528850  90.3253690  89.9166840
   2.3554750  90.3321120  89.0085990   2.7923440  89.9751550  90.4134500
   5.2713780  89.2688310  90.9023040   4.9235780  88.5912300  90.3225490
   5.4726550  88.8077820  91.7166430   7.4362820 104.2569060  92.5209640
   8.3313610 104.5954030  92.5428400   7.4680450 103.5348470  91.8933920
   2.8866700 100.7494150  95.8618870   2.5862240 100.6259120  96.7622780
   2.7804190  99.8902740  95.4534600  15.6558620 100.5290550  90.5645550
  14.8251580 100.5967200  91.0352780  15.8330450 101.4194670  90.2612410
  15.1115080  97.2738030  93.0679750  15.8733990  97.8434680  93.1739440
  15.1269450  96.7065230  93.8388060  16.1175050  98.1288130  97.9121680
  16.4883880  97.3455450  97.5057650  16.7576980  98.8177230  97.7338980
  15.1634250  97.5672400  90.2252270  15.4383090  98.4751280  90.0971490
  14.9744990  97.5034930  91.1614260  11.5609860  90.5917250  91.5205900
  11.9794740  90.4048230  90.6802560  11.2545920  89.7396300  91.8308830
  15.0599590  95.5041390  95.2181700  14.6843190  94.7369320  94.7862990
  14.3302710  95.8864090  95.7056630  14.3350550  93.7298880  98.5188940
  14.8588030  93.2361530  97.8879110  14.9209970  93.8649240  99.2636510
  14.5140270  93.8138750 102.0408490  13.5642980  93.7802290 102.1553480
  14.6953280  94.7238860 101.8058260  13.8250520  92.9872230  94.4581350
  14.3209640  92.7543100  95.2430230  13.6266590  92.1484070  94.0418990
  15.2537680  91.6233180  96.9919030  15.1436960  91.4689220  97.9301300
  16.0145270  91.0954120  96.7494440  16.1427950  89.4541100  90.2325170
  17.0677260  89.3222280  90.0243460  16.1203740  89.5333920  91.1861620
  16.2166440  90.2251760  92.8581880  15.4217940  90.1596880  93.3874790
  16.4209720  91.1602400  92.8467230  13.1584860 104.2643310  96.8520270
  13.7543930 103.9427880  96.1754690  13.4163010 103.7915130  97.6433540
   4.7653460 102.2520810 102.6020620   4.5244820 102.5195370 101.7151140
   5.7056100 102.4226540 102.6571480  13.7097070 104.9138610 100.6818000
  13.2500040 105.6654420 100.3076020  13.0809530 104.1945080 100.6232800
   4.1392790 103.2226850  99.8566130   4.6557810 102.6114210  99.3314390
   4.7890170 103.7255630 100.3477140   6.8788290 104.1135340 100.6835110
   7.1666100 103.8589640  99.8068120   7.3911510 103.5612700 101.2740680
   8.0965300  87.8525540 101.2631620   7.3137090  88.3271040 101.5428380
   7.8028230  86.9480370 101.1544800  12.6486370  88.5548640  99.3080710
  13.0894460  88.4993740  98.4602310  12.3793960  89.4706650  99.3790890
  14.5124940  88.1863880  97.3189530  14.4513340  87.2425100  97.1720550
  15.2916970  88.2943970  97.8642990   5.9819520  90.2712290  96.7747650
   5.1694030  89.8969180  96.4343530   6.4861160  89.5157370  97.0768840
  10.4844500  86.9354740  98.0130720  11.0873870  87.5074950  98.4879240
   9.7437490  87.4994180  97.7904620  13.6279100  87.3376300  93.2871000
  13.8229730  88.2359750  93.5538430  12.8408970  87.1063380  93.7803950
   1.8130860  88.6837070  92.3247310   2.3423620  87.8966870  92.1955260
   2.4459180  89.3628260  92.5582840   4.0068700  88.4212210  95.3792700
   3.3771440  87.7199520  95.5462830   3.4673840  89.1816340  95.1625860
  15.1805710 104.5777010  95.0477560  15.3557900 103.8914750  94.4038480
  14.4827280 105.1024060  94.6554230   3.0233360 104.9671850  92.6012870
   3.7552180 104.6831130  92.0536760   3.2827030 104.7285130  93.4912250
   2.1848150 101.0836580  92.6059200   1.5557030 101.5521680  93.1545030
   2.2995980 100.2385800  93.0405390   9.6397870  95.1342240  78.7560400
   9.5591920  94.2196850  78.4852110   9.2262290  95.6309310  78.0500110
   7.7715910  96.9121260  80.6369670   6.9958010  96.4321700  80.9268240
   8.4228840  96.2326910  80.4625830  11.7923340 101.3181450  79.4168800
  11.3304870 100.5468690  79.7455970  12.6048890 101.3447520  79.9221250
   1.7683000 101.2581160  81.7103450   2.0711040 100.3678900  81.5313670
   2.5126590 101.8151380  81.4825700   8.0186650 103.6039460  79.0372790
   7.3998090 104.0596960  78.4667230   8.8738430 103.7590920  78.6362490
   7.2124900  99.5878450  80.6439830   7.1433180  98.6468390  80.4828960
   7.9744760  99.6779860  81.2162400   8.2430070  92.3948830  80.8708760
   8.6194890  91.5220710  80.7582430   8.1449580  92.7307530  79.9799200
   2.3735080  90.7674460  76.3326200   2.4801830  91.6678190  76.6394960
   1.4627440  90.7192430  76.0420850  12.0254190  89.8899270  77.8037100
  12.8463810  89.3995840  77.8462580  12.0588270  90.4796930  78.5568940
   4.2142810  93.7360830  80.6651380   4.7221030  94.2341800  81.3056400
   4.7456050  92.9596030  80.4890740  16.3153740  91.9066020  84.3680730
  15.6105910  92.2947730  83.8495840  16.5811660  92.6016310  84.9701660
   2.4978910  88.3759390  84.9314800   2.4997350  88.8931780  84.1260700
   1.6683220  87.8989570  84.9084730   8.8850000  98.4878700  76.4304700
   8.2667270  98.9528150  75.8667420   9.3973250  99.1806180  76.8474210
   3.7481760  98.0154570  83.1088300   3.4151140  98.6423490  83.7509370
   3.9248440  98.5416450  82.3289970  12.2615670  91.8299650  80.5764640
  11.5571240  92.1184540  81.1567750  12.6227830  92.6399760  80.2164200
   2.1794240  90.0869350  82.9385250   2.5211050  90.9311400  82.6439120
   1.2410050  90.2353090  83.0550590   2.9600860  99.9835370  84.9237480
   3.5774860 100.6586450  84.6421930   2.0993980 100.3923350  84.8324980
  13.8778450 101.4474780  82.8392120  13.1941970 102.1173890  82.8308790
  14.4172740 101.6455430  82.0736980  15.3302590  91.2754440  80.9673850
  14.3827500  91.3093420  81.0989280  15.6552580  92.0893390  81.3523210
   5.8622130  87.5751620  79.2629840   6.1697110  87.0198510  78.5465340
   4.9322830  87.7096080  79.0802830  11.4137190 103.2918910  81.5537300
  11.4264350 102.8881200  80.6859560  10.8612410 104.0666200  81.4498730
  12.7082610 100.0135130  76.6427470  12.5978940  99.0709460  76.7676890
  12.7050860 100.3750770  77.5290230  10.8122630  98.1948750  82.8819910
  11.2291420  97.9808860  82.0473370  11.5362450  98.4521540  83.4528530
   8.2502890  95.6400450  75.9989960   7.3232170  95.5737830  76.2278430
   8.4027710  96.5780580  75.8845200   8.2371970  91.9117450  72.9957120
   7.2975640  92.0731410  73.0809580   8.5555230  92.6303130  72.4493110
  14.7584730  96.5935970  82.9736150  13.9303360  96.6629060  82.4986280
  15.3535210  97.1790280  82.5051980  12.2800180  97.2020750  76.5025210
  11.6612600  96.8640300  75.8551510  12.2624630  96.5580510  77.2104400
  11.7226740  93.3805290  83.9191020  11.3097920  94.2059000  84.1731010
  10.9902690  92.7950330  83.7267380   3.8559530  96.1665190  78.7809690
   3.4516530  95.4542440  78.2855590   3.9422650  95.8218430  79.6697730
   4.3241230  99.8532750  80.9448900   4.0269520  99.2478220  80.2656680
   5.2741050  99.8910060  80.8338260   2.5688150  92.9408400  82.5608730
   3.1202740  93.0503740  81.7861980   3.0831660  93.3146000  83.2763960
  12.4126840 103.4264620  84.6072000  11.9357400 104.2336810  84.4144610
  11.7288630 102.7742950  84.7598210   3.4159660  99.5914440  87.5956700
   2.5188190  99.8154410  87.8430100   3.4412530  99.7149380  86.6468100
  10.4564880  96.4407560  73.5097960  10.8958160  95.6029990  73.3635780
  11.1693300  97.0736960  73.5962100   2.2430880  96.4627760  86.1714070
   2.1038650  97.3350560  86.5401470   1.3612240  96.1200570  86.0262010
   8.5660260 101.3803630  77.4779200   9.0056170 102.1227960  77.0634590
   8.5047150 101.6230200  78.4018160   4.0411230 102.4049460  88.3799220
   4.0126660 102.8092410  87.5127650   3.8776200 101.4759820  88.2170820
  14.0382020  87.6950370  71.8239000  13.7254680  87.7877200  72.7238070
  14.7994490  88.2731400  71.7736430  15.9926050 103.1876560  89.6763390
  16.4685770 103.6659450  90.3552470  16.6133210 103.1194050  88.9508890
  15.3959300 100.3789410  86.8363400  15.5222360 100.1401290  85.9180580
  15.4380680  99.5473950  87.3085480   9.2576040 104.0817410  85.4058210
   9.7720710 103.9925420  86.2080640   8.4145120 104.4277110  85.6986120
  11.2330440 104.3672750  74.8342210  11.0731580 104.0775690  75.7324040
  11.0677150 103.5912880  74.2987440   3.7118820 104.1471280  76.6113830
   3.5361300 103.2306820  76.3981630   2.8574560 104.5058570  76.8511630
  10.9356570 101.8760310  73.3940210  10.2421730 101.8737600  72.7342490
  11.6779430 101.4519630  72.9634380  10.5006500 103.5023020  77.4688700
  10.9563450 102.7212400  77.7827320  10.8399020 104.2129840  78.0129880
  15.2483310  92.4321870  87.8013140  14.6327580  92.9401540  87.2728600
  14.9279730  91.5320200  87.7439080   3.0227820  88.4045240  79.6640010
   2.5795970  89.1854780  79.3324530   3.5812810  88.7275130  80.3710950
   7.3097630  91.2713760  85.2675330   6.8477000  91.4796780  86.0795270
   6.9075740  90.4573110  84.9646000  12.3102140  92.4922710  86.3971990
  11.4595730  92.1928460  86.7181060  12.1503930  92.7364720  85.4855810
   9.4051850  93.9924460  88.4970780   9.7305260  93.1588210  88.1573010
  10.1932180  94.5152980  88.6449110   6.1386640  88.0255940  74.5445840
   5.5140820  88.0215810  75.2699150   6.0516760  87.1586900  74.1481810
   5.0603720  88.9492570  81.5229610   5.3576050  89.8555400  81.4421630
   5.6089280  88.4611350  80.9089180   2.8142040  93.5278810  77.3921260
   2.5882960  93.3115980  78.2967880   2.0334570  93.9607270  77.0467230
  10.0439800  93.5342180  75.9911910   9.4448690  94.2577980  75.8075530
  10.5919410  93.4718960  75.2088360   5.2541250  94.4264390  88.0581530
   5.1584850  93.4859120  87.9081930   6.0973230  94.6479460  87.6629600
   8.6504670  92.1705720  78.0215190   9.0434240  92.4877920  77.2083880
   9.0121520  91.2917600  78.1359710   6.9596840  90.9213030  89.2812050
   6.2695160  90.7285230  89.9158140   7.7029140  91.2047670  89.8136350
   9.2359810  94.7611470  82.1165970   8.5040930  95.2698280  82.4656070
   8.8384150  93.9441450  81.8154750   5.6737200  91.4365670  80.5218460
   5.6773260  90.9955620  79.6723000   6.5688320  91.7583000  80.6290280
   5.7357350  92.4377750  73.5125220   5.8570170  92.3964230  74.4611040
   5.3505860  93.3001900  73.3571950   9.6985720  90.2145150  81.5288910
   9.7158460  90.6653800  82.3730760   9.4501300  89.3150790  81.7422350
   4.7478850  94.7478890  72.9108520   4.1795750  94.2997140  72.2844430
   5.4567850  95.1071670  72.3773670  13.1256470  87.6277330  87.3675290
  13.4502240  86.8966990  87.8933270  13.1612980  87.3090970  86.4656280
   5.9745170  95.4967450  82.2683870   6.3415300  95.0226020  83.0145210
   5.7850230  96.3709020  82.6092210   3.7644540  94.5376090  84.5868080
   3.4601610  95.4168070  84.8118440   4.7191000  94.5975880  84.6225520
   2.2926330  98.7437080  75.1834930   1.5188590  98.2034700  75.0233650
   3.0220960  98.2243690  74.8452690  13.0514310  97.7402440  80.9761320
  13.7713430  98.2357730  80.5857430  12.8496130  97.0620330  80.3315190
   8.5124250  89.1340400  75.1190710   7.6988860  88.6353570  75.0436020
   8.3186200  89.9738650  74.7027060   8.4333110  97.8111500  86.8630320
   8.3670420  96.8907170  86.6087910   7.8038250  97.9086940  87.5774960
  11.2272640  93.5060050  73.4152870  12.1152260  93.8177280  73.2404210
  11.1977730  92.6332300  73.0233450   2.3363730  98.4117460  78.8213740
   2.8542400  97.6085720  78.7670630   1.8847750  98.3496600  79.6630570
   7.2233230  99.6783740  74.0941040   7.5648930 100.4225970  73.5984360
   6.3945940  99.9914860  74.4565870   3.0221390  95.8363070  88.6178990
   2.7221530  95.9820250  87.7206810   3.7932630  95.2768360  88.5252380
   8.3649840 100.6332070  86.6134120   8.3794380  99.7013030  86.3953030
   7.6574940 100.7191830  87.2523890  13.4986910  94.8171890  72.8832730
  13.4150630  95.2486110  72.0329170  14.2181100  95.2770240  73.3159550
  14.5761050  97.2739410  85.9602700  13.8509240  97.8668190  85.7632090
  15.1036510  97.2662950  85.1616070  14.5274160 101.6714150  75.6114860
  13.8850320 101.0169770  75.8858580  14.1404820 102.0769240  74.8355530
  10.1060640  98.9999580  79.4586550  10.4584460  98.4027710  78.7987920
   9.2222970  98.6743810  79.6294800   6.1923920  99.7597270  76.8656960
   6.8795050 100.3066480  77.2464550   5.4056340 100.3038000  76.9006570
   5.4951130  96.7643300  76.4782320   5.9513910  97.5748550  76.7042510
   5.1439340  96.4466440  77.3100810   7.7983740 102.2749640  83.7074620
   8.4425960 102.4809020  84.3848040   8.1613180 101.5138040  83.2545470
   9.0715820 100.2781990  82.4252070   9.7138050  99.5775150  82.5384240
   9.5965170 101.0580430  82.2448960  12.9171540 100.5630610  72.1491210
  12.6909120  99.8461050  72.7415850  12.5267740 100.3143050  71.3112960
  10.8453440 101.0776890  85.6288130  11.1809680 101.6643580  86.3066050
   9.9253780 100.9469600  85.8585920  12.4987790  98.4802550  73.8105370
  12.2109490  98.9415240  74.5983250  13.2939960  98.0200320  74.0789590
   6.6742020 101.1268220  88.7976190   6.3538890 100.4077460  89.3421880
   6.0000380 101.8023290  88.8712250   4.7156190 101.9728670  73.7409340
   4.7066290 102.7058360  73.1253850   3.7954550 101.7260250  73.8336300
   9.8895620  91.3594380  84.1612990  10.2576440  90.5389590  84.4892560
   9.0293820  91.4196270  84.5768640  13.2557650  90.3151320  74.9700550
  12.6270810  90.4196990  74.2558780  12.7609570  90.5348100  75.7594430
   7.7015790 102.0356910  72.4034530   7.8027770 101.8320900  71.4736510
   6.8017530 101.7815190  72.6082310   5.2241680  92.5937270  76.3858430
   4.5157830  93.0623610  76.8272040   5.5086160  91.9359280  77.0203620
   6.8497610  94.0133970  84.3850960   7.3482860  94.4879790  85.0502810
   6.9920560  93.0897490  84.5920990   9.2557110  89.3187930  77.8254220
   9.1324890  89.3374060  76.8763730  10.2041670  89.3666870  77.9452620
   6.3433900 104.5543230  77.0982200   6.5975400 104.5164620  76.1761570
   5.3946380 104.4276560  77.0910450   3.4276700  90.9022350  73.7609140
   4.2767230  91.3392500  73.6949330   3.0607970  91.2142610  74.5881200
  14.0564470  90.2301930  85.2279350  13.5538070  90.9707330  85.5673160
  14.8721130  90.6185930  84.9116140  12.3486480  95.4735110  78.6740710
  11.4076620  95.4885340  78.8488400  12.6630550  94.6871070  79.1201010
   2.3268120  97.1554710  72.2344670   3.0931390  97.0436070  72.7970100
   2.4042810  96.4592680  71.5821440  14.3512060 102.6443960  80.3494970
  14.4759480 103.4675130  80.8218780  15.2177620 102.4334690  80.0019120
   1.8229590 104.7375170  80.0212100   2.5592070 104.1890630  80.2920670
   2.2070510 105.6031180  79.8818090   4.9331900 103.9105480  71.8437670
   5.7260510 104.1994310  71.3919460   4.4136250 103.4797650  71.1650150
   9.6652500 100.0301110  89.1573090   9.0590660 100.0532710  88.4168840
   9.3606610  99.2984150  89.6940340  11.0952870 103.7581400  87.7682500
  12.0474620 103.6739420  87.7182740  10.9481090 104.4223110  88.4416290
  13.9862070 103.1375610  73.2674410  13.7003580 102.7240750  72.4528590
  13.7881620 104.0663320  73.1474930   5.4509300  99.1308890  71.7080020
   5.3459940  98.5161240  72.4341400   5.2833520  98.6074780  70.9243030
   5.6023620  97.8165690  87.6869250   4.8369290  98.3850690  87.6023920
   5.7839580  97.5241900  86.7937480   8.6912030  98.1928920  72.3122010
   8.1422130  98.6398220  72.9564750   9.3131290  97.6878170  72.8359680
  12.7446970  99.5471020  88.2444270  13.4856440  99.8846780  87.7411730
  11.9819650  99.7163080  87.6914040   4.3587150  97.1519840  74.2087310
   4.7803570  96.9859710  75.0518700   4.4837990  96.3420070  73.7142450
   2.5214570  93.1316390  87.0158290   1.9911030  92.6407340  86.3881630
   3.1902640  93.5600590  86.4816220   6.8714790  96.1757450  71.4564410
   7.3920450  95.4606470  71.0905560   7.5183190  96.8143320  71.7564920
  11.4192630  97.5985850  86.7799480  11.8333650  97.7530930  87.6289900
  10.4843630  97.7241070  86.9425260  11.8914800  94.9382010  88.7838630
  12.4735570  94.1834330  88.6959110  12.0676570  95.4689450  88.0070110
   3.0086870  90.0978760  87.0955580   2.9143740  89.4799510  86.3706450
   2.4284260  90.8245050  86.8685490   5.7748310  88.6552000  84.1282970
   5.3265610  88.6776260  83.2828520   5.1413510  88.2571020  84.7253270
   6.1807860  97.5506330  84.7495410   6.5995970  98.3939060  84.5771650
   5.2616490  97.6878370  84.5202190   8.5171760  95.2822510  86.1333250
   8.6367970  94.6863650  86.8728090   9.3765760  95.3192200  85.7134550
  10.8559660  95.8359700  84.7095760  10.3294880  96.3602320  84.1060900
  11.1991000  96.4687090  85.3405490   3.2546050  93.2253070  71.1545470
   3.0535110  92.3620430  71.5158810   3.0838100  93.1386430  70.2167070
   4.0315280 103.8559340  85.8653140   3.4936370 104.5805400  85.5461840
   4.2849240 103.3789680  85.0750480   5.2840530  91.8243860  87.3909070
   5.8740220  91.5159710  88.0786890   4.4660770  91.3523610  87.5468970
  10.1033960  91.4409670  87.6242090   9.4149480  90.7791210  87.5592080
  10.8239980  90.9947940  88.0690550  10.7334360  88.0361300  73.6832350
  11.0136650  87.1929200  74.0391770   9.9600090  88.2684410  74.1971100
   2.0528850  90.3253690  71.1423350   2.3554750  90.3321120  70.2342500
   2.7923440  89.9751550  71.6391010   6.8877490 105.0910550  86.1239790
   6.8136190 105.9945690  86.4312160   5.9856330 104.7722450  86.0961860
   5.2713780  89.2688310  72.1279550   4.9235780  88.5912300  71.5482000
   5.4726550  88.8077820  72.9422940   7.4362820 104.2569060  73.7466150
   8.3313610 104.5954030  73.7684910   7.4680450 103.5348470  73.1190430
   2.8866700 100.7494150  77.0875380   2.5862240 100.6259120  77.9879290
   2.7804190  99.8902740  76.6791110  14.4157170 102.7872730  86.4532350
  13.8159160 102.8465290  85.7096270  14.5451070 101.8477710  86.5829200
  15.6558620 100.5290550  71.7902060  14.8251580 100.5967200  72.2609290
  15.8330450 101.4194670  71.4868920  15.1115080  97.2738030  74.2936260
  15.8733990  97.8434680  74.3995950  15.1269450  96.7065230  75.0644570
  16.1175050  98.1288130  79.1378190  16.4883880  97.3455450  78.7314160
  16.7576980  98.8177230  78.9595490  13.1008810  99.5124710  84.5508510
  12.2868650  99.9421870  84.8134300  13.5083010 100.1243120  83.9377560
  15.1634250  97.5672400  71.4508780  15.4383090  98.4751280  71.3228000
  14.9744990  97.5034930  72.3870770  11.5609860  90.5917250  72.7462410
  11.9794740  90.4048230  71.9059070  11.2545920  89.7396300  73.0565340
  15.0599590  95.5041390  76.4438210  14.6843190  94.7369320  76.0119500
  14.3302710  95.8864090  76.9313140  14.4499210  94.6512910  86.0777730
  14.2185300  94.4225660  85.1775680  14.7103760  95.5712460  86.0322620
  12.8887280  89.8769340  88.8557430  13.7657460  89.8852740  89.2391430
  12.9008120  89.1400180  88.2449780  14.3350550  93.7298880  79.7445450
  14.8588030  93.2361530  79.1135620  14.9209970  93.8649240  80.4893020
  14.5140270  93.8138750  83.2665000  13.5642980  93.7802290  83.3809990
  14.6953280  94.7238860  83.0314770  13.8250520  92.9872230  75.6837860
  14.3209640  92.7543100  76.4686740  13.6266590  92.1484070  75.2675500
  15.2537680  91.6233180  78.2175540  15.1436960  91.4689220  79.1557810
  16.0145270  91.0954120  77.9750950  13.6003400  87.5627310  84.6758540
  14.2375620  88.1761450  85.0417730  13.7478290  87.5987970  83.7307770
  16.1427950  89.4541100  71.4581680  17.0677260  89.3222280  71.2499970
  16.1203740  89.5333920  72.4118130  16.2166440  90.2251760  74.0838390
  15.4217940  90.1596880  74.6131300  16.4209720  91.1602400  74.0723740
  13.1584860 104.2643310  78.0776780  13.7543930 103.9427880  77.4011200
  13.4163010 103.7915130  78.8690050   4.7653460 102.2520810  83.8277130
   4.5244820 102.5195370  82.9407650   5.7056100 102.4226540  83.8827990
   6.9707880  88.7153500  87.5833640   6.9096770  89.3075330  88.3329050
   7.9108260  88.6079460  87.4383900   9.6082440  88.3723560  87.2225930
  10.2222850  88.6902850  86.5607010  10.1532000  87.8872150  87.8421790
  16.0257620 104.2715190  84.6287770  15.5315900 104.6684060  83.9114900
  15.4170910 103.6464400  85.0225050  10.3490480  86.9355700  83.5495220
   9.4750320  87.2690810  83.3468150  10.2401230  86.4628880  84.3747090
  11.2562460  89.1426570  84.9336940  10.9275820  88.3278330  84.5538670
  12.2044760  89.0996380  84.8102630  13.7097070 104.9138610  81.9074510
  13.2500040 105.6654420  81.5332530  13.0809530 104.1945080  81.8489310
   4.1392790 103.2226850  81.0822640   4.6557810 102.6114210  80.5570900
   4.7890170 103.7255630  81.5733650   6.8788290 104.1135340  81.9091620
   7.1666100 103.8589640  81.0324630   7.3911510 103.5612700  82.4997190
   8.0965300  87.8525540  82.4888130   7.3137090  88.3271040  82.7684890
   7.8028230  86.9480370  82.3801310  12.6486370  88.5548640  80.5337220
  13.0894460  88.4993740  79.6858820  12.3793960  89.4706650  80.6047400
  14.5124940  88.1863880  78.5446040  14.4513340  87.2425100  78.3977060
  15.2916970  88.2943970  79.0899500   5.9819520  90.2712290  78.0004160
   5.1694030  89.8969180  77.6600040   6.4861160  89.5157370  78.3025350
  10.4844500  86.9354740  79.2387230  11.0873870  87.5074950  79.7135750
   9.7437490  87.4994180  79.0161130  13.6279100  87.3376300  74.5127510
  13.8229730  88.2359750  74.7794940  12.8408970  87.1063380  75.0060460
   1.8130860  88.6837070  73.5503820   2.3423620  87.8966870  73.4211770
   2.4459180  89.3628260  73.7839350   4.0068700  88.4212210  76.6049210
   3.3771440  87.7199520  76.7719340   3.4673840  89.1816340  76.3882370
   6.9460650 105.0351440  89.2759820   7.8727960 104.7995710  89.3195780
   6.9311080 105.8623440  88.7945850  15.1805710 104.5777010  76.2734070
  15.3557900 103.8914750  75.6294990  14.4827280 105.1024060  75.8810740
   4.1324260  87.6996190  89.0401700   3.8508530  88.2029790  88.2762520
   4.5143960  86.9017940  88.6743830   3.0233360 104.9671850  73.8269380
   3.7552180 104.6831130  73.2793270   3.2827030 104.7285130  74.7168760
   2.1848150 101.0836580  73.8315710   1.5557030 101.5521680  74.3801540
   2.2995980 100.2385800  74.2661900  10.7339720  87.1149770  89.6182170
  10.6205170  87.4344380  90.5133690  11.5509460  87.5162280  89.3219450
  13.5138210 104.2621300  89.1000860  14.3063530 103.7670530  88.8926820
  13.8071360 104.9411440  89.7076470   9.6397870  95.1342240  59.9816910
   9.5591920  94.2196850  59.7108620   9.2262290  95.6309310  59.2756620
   7.7715910  96.9121260  61.8626180   6.9958010  96.4321700  62.1524750
   8.4228840  96.2326910  61.6882340  11.7923340 101.3181450  60.6425310
  11.3304870 100.5468690  60.9712480  12.6048890 101.3447520  61.1477760
   1.7683000 101.2581160  62.9359960   2.0711040 100.3678900  62.7570180
   2.5126590 101.8151380  62.7082210   8.0186650 103.6039460  60.2629300
   7.3998090 104.0596960  59.6923740   8.8738430 103.7590920  59.8619000
   7.2124900  99.5878450  61.8696340   7.1433180  98.6468390  61.7085470
   7.9744760  99.6779860  62.4418910   8.2430070  92.3948830  62.0965270
   8.6194890  91.5220710  61.9838940   8.1449580  92.7307530  61.2055710
   2.3735080  90.7674460  57.5582710   2.4801830  91.6678190  57.8651470
   1.4627440  90.7192430  57.2677360  12.0254190  89.8899270  59.0293610
  12.8463810  89.3995840  59.0719090  12.0588270  90.4796930  59.7825450
   4.2142810  93.7360830  61.8907890   4.7221030  94.2341800  62.5312910
   4.7456050  92.9596030  61.7147250  16.3153740  91.9066020  65.5937240
  15.6105910  92.2947730  65.0752350  16.5811660  92.6016310  66.1958170
   2.4978910  88.3759390  66.1571310   2.4997350  88.8931780  65.3517210
   1.6683220  87.8989570  66.1341240   8.8850000  98.4878700  57.6561210
   8.2667270  98.9528150  57.0923930   9.3973250  99.1806180  58.0730720
   3.7481760  98.0154570  64.3344810   3.4151140  98.6423490  64.9765880
   3.9248440  98.5416450  63.5546480  12.2615670  91.8299650  61.8021150
  11.5571240  92.1184540  62.3824260  12.6227830  92.6399760  61.4420710
   2.1794240  90.0869350  64.1641760   2.5211050  90.9311400  63.8695630
   1.2410050  90.2353090  64.2807100   2.9600860  99.9835370  66.1493990
   3.5774860 100.6586450  65.8678440   2.0993980 100.3923350  66.0581490
  13.8778450 101.4474780  64.0648630  13.1941970 102.1173890  64.0565300
  14.4172740 101.6455430  63.2993490  15.3302590  91.2754440  62.1930360
  14.3827500  91.3093420  62.3245790  15.6552580  92.0893390  62.5779720
   5.8622130  87.5751620  60.4886350   6.1697110  87.0198510  59.7721850
   4.9322830  87.7096080  60.3059340  11.4137190 103.2918910  62.7793810
  11.4264350 102.8881200  61.9116070  10.8612410 104.0666200  62.6755240
  12.7082610 100.0135130  57.8683980  12.5978940  99.0709460  57.9933400
  12.7050860 100.3750770  58.7546740  10.8122630  98.1948750  64.1076420
  11.2291420  97.9808860  63.2729880  11.5362450  98.4521540  64.6785040
   8.2502890  95.6400450  57.2246470   7.3232170  95.5737830  57.4534940
   8.4027710  96.5780580  57.1101710   8.2371970  91.9117450  54.2213630
   7.2975640  92.0731410  54.3066090   8.5555230  92.6303130  53.6749620
  14.7584730  96.5935970  64.1992660  13.9303360  96.6629060  63.7242790
  15.3535210  97.1790280  63.7308490  12.2800180  97.2020750  57.7281720
  11.6612600  96.8640300  57.0808020  12.2624630  96.5580510  58.4360910
  11.7226740  93.3805290  65.1447530  11.3097920  94.2059000  65.3987520
  10.9902690  92.7950330  64.9523890   3.8559530  96.1665190  60.0066200
   3.4516530  95.4542440  59.5112100   3.9422650  95.8218430  60.8954240
   4.3241230  99.8532750  62.1705410   4.0269520  99.2478220  61.4913190
   5.2741050  99.8910060  62.0594770   2.5688150  92.9408400  63.7865240
   3.1202740  93.0503740  63.0118490   3.0831660  93.3146000  64.5020470
  12.4126840 103.4264620  65.8328510  11.9357400 104.2336810  65.6401120
  11.7288630 102.7742950  65.9854720   3.4159660  99.5914440  68.8213210
   2.5188190  99.8154410  69.0686610   3.4412530  99.7149380  67.8724610
  10.4564880  96.4407560  54.7354470  10.8958160  95.6029990  54.5892290
  11.1693300  97.0736960  54.8218610   2.2430880  96.4627760  67.3970580
   2.1038650  97.3350560  67.7657980   1.3612240  96.1200570  67.2518520
   8.5660260 101.3803630  58.7035710   9.0056170 102.1227960  58.2891100
   8.5047150 101.6230200  59.6274670   4.0411230 102.4049460  69.6055730
   4.0126660 102.8092410  68.7384160   3.8776200 101.4759820  69.4427330
  14.0382020  87.6950370  53.0495510  13.7254680  87.7877200  53.9494580
  14.7994490  88.2731400  52.9992940  15.9926050 103.1876560  70.9019900
  16.4685770 103.6659450  71.5808980  16.6133210 103.1194050  70.1765400
  15.3959300 100.3789410  68.0619910  15.5222360 100.1401290  67.1437090
  15.4380680  99.5473950  68.5341990   9.2576040 104.0817410  66.6314720
   9.7720710 103.9925420  67.4337150   8.4145120 104.4277110  66.9242630
  11.2330440 104.3672750  56.0598720  11.0731580 104.0775690  56.9580550
  11.0677150 103.5912880  55.5243950   3.7118820 104.1471280  57.8370340
   3.5361300 103.2306820  57.6238140   2.8574560 104.5058570  58.0768140
  10.9356570 101.8760310  54.6196720  10.2421730 101.8737600  53.9599000
  11.6779430 101.4519630  54.1890890  10.5006500 103.5023020  58.6945210
  10.9563450 102.7212400  59.0083830  10.8399020 104.2129840  59.2386390
  15.2483310  92.4321870  69.0269650  14.6327580  92.9401540  68.4985110
  14.9279730  91.5320200  68.9695590   3.0227820  88.4045240  60.8896520
   2.5795970  89.1854780  60.5581040   3.5812810  88.7275130  61.5967460
   7.3097630  91.2713760  66.4931840   6.8477000  91.4796780  67.3051780
   6.9075740  90.4573110  66.1902510  12.3102140  92.4922710  67.6228500
  11.4595730  92.1928460  67.9437570  12.1503930  92.7364720  66.7112320
   9.4051850  93.9924460  69.7227290   9.7305260  93.1588210  69.3829520
  10.1932180  94.5152980  69.8705620   6.1386640  88.0255940  55.7702350
   5.5140820  88.0215810  56.4955660   6.0516760  87.1586900  55.3738320
   5.0603720  88.9492570  62.7486120   5.3576050  89.8555400  62.6678140
   5.6089280  88.4611350  62.1345690   2.8142040  93.5278810  58.6177770
   2.5882960  93.3115980  59.5224390   2.0334570  93.9607270  58.2723740
  10.0439800  93.5342180  57.2168420   9.4448690  94.2577980  57.0332040
  10.5919410  93.4718960  56.4344870   5.2541250  94.4264390  69.2838040
   5.1584850  93.4859120  69.1338440   6.0973230  94.6479460  68.8886110
   8.6504670  92.1705720  59.2471700   9.0434240  92.4877920  58.4340390
   9.0121520  91.2917600  59.3616220   6.9596840  90.9213030  70.5068560
   6.2695160  90.7285230  71.1414650   7.7029140  91.2047670  71.0392860
   9.2359810  94.7611470  63.3422480   8.5040930  95.2698280  63.6912580
   8.8384150  93.9441450  63.0411260   5.6737200  91.4365670  61.7474970
   5.6773260  90.9955620  60.8979510   6.5688320  91.7583000  61.8546790
   5.7357350  92.4377750  54.7381730   5.8570170  92.3964230  55.6867550
   5.3505860  93.3001900  54.5828460   9.6985720  90.2145150  62.7545420
   9.7158460  90.6653800  63.5987270   9.4501300  89.3150790  62.9678860
   4.7478850  94.7478890  54.1365030   4.1795750  94.2997140  53.5100940
   5.4567850  95.1071670  53.6030180  13.1256470  87.6277330  68.5931800
  13.4502240  86.8966990  69.1189780  13.1612980  87.3090970  67.6912790
   5.9745170  95.4967450  63.4940380   6.3415300  95.0226020  64.2401720
   5.7850230  96.3709020  63.8348720   3.7644540  94.5376090  65.8124590
   3.4601610  95.4168070  66.0374950   4.7191000  94.5975880  65.8482030
   2.2926330  98.7437080  56.4091440   1.5188590  98.2034700  56.2490160
   3.0220960  98.2243690  56.0709200  13.0514310  97.7402440  62.2017830
  13.7713430  98.2357730  61.8113940  12.8496130  97.0620330  61.5571700
   8.5124250  89.1340400  56.3447220   7.6988860  88.6353570  56.2692530
   8.3186200  89.9738650  55.9283570   8.4333110  97.8111500  68.0886830
   8.3670420  96.8907170  67.8344420   7.8038250  97.9086940  68.8031470
  11.2272640  93.5060050  54.6409380  12.1152260  93.8177280  54.4660720
  11.1977730  92.6332300  54.2489960   2.3363730  98.4117460  60.0470250
   2.8542400  97.6085720  59.9927140   1.8847750  98.3496600  60.8887080
   7.2233230  99.6783740  55.3197550   7.5648930 100.4225970  54.8240870
   6.3945940  99.9914860  55.6822380   3.0221390  95.8363070  69.8435500
   2.7221530  95.9820250  68.9463320   3.7932630  95.2768360  69.7508890
   8.3649840 100.6332070  67.8390630   8.3794380  99.7013030  67.6209540
   7.6574940 100.7191830  68.4780400  13.4986910  94.8171890  54.1089240
  13.4150630  95.2486110  53.2585680  14.2181100  95.2770240  54.5416060
  14.5761050  97.2739410  67.1859210  13.8509240  97.8668190  66.9888600
  15.1036510  97.2662950  66.3872580  14.5274160 101.6714150  56.8371370
  13.8850320 101.0169770  57.1115090  14.1404820 102.0769240  56.0612040
  10.1060640  98.9999580  60.6843060  10.4584460  98.4027710  60.0244430
   9.2222970  98.6743810  60.8551310   6.1923920  99.7597270  58.0913470
   6.8795050 100.3066480  58.4721060   5.4056340 100.3038000  58.1263080
   5.4951130  96.7643300  57.7038830   5.9513910  97.5748550  57.9299020
   5.1439340  96.4466440  58.5357320   7.7983740 102.2749640  64.9331130
   8.4425960 102.4809020  65.6104550   8.1613180 101.5138040  64.4801980
   9.0715820 100.2781990  63.6508580   9.7138050  99.5775150  63.7640750
   9.5965170 101.0580430  63.4705470  12.9171540 100.5630610  53.3747720
  12.6909120  99.8461050  53.9672360  12.5267740 100.3143050  52.5369470
  10.8453440 101.0776890  66.8544640  11.1809680 101.6643580  67.5322560
   9.9253780 100.9469600  67.0842430  12.4987790  98.4802550  55.0361880
  12.2109490  98.9415240  55.8239760  13.2939960  98.0200320  55.3046100
   6.6742020 101.1268220  70.0232700   6.3538890 100.4077460  70.5678390
   6.0000380 101.8023290  70.0968760   4.7156190 101.9728670  54.9665850
   4.7066290 102.7058360  54.3510360   3.7954550 101.7260250  55.0592810
   9.8895620  91.3594380  65.3869500  10.2576440  90.5389590  65.7149070
   9.0293820  91.4196270  65.8025150  13.2557650  90.3151320  56.1957060
  12.6270810  90.4196990  55.4815290  12.7609570  90.5348100  56.9850940
   7.7015790 102.0356910  53.6291040   7.8027770 101.8320900  52.6993020
   6.8017530 101.7815190  53.8338820   5.2241680  92.5937270  57.6114940
   4.5157830  93.0623610  58.0528550   5.5086160  91.9359280  58.2460130
   6.8497610  94.0133970  65.6107470   7.3482860  94.4879790  66.2759320
   6.9920560  93.0897490  65.8177500   9.2557110  89.3187930  59.0510730
   9.1324890  89.3374060  58.1020240  10.2041670  89.3666870  59.1709130
   6.3433900 104.5543230  58.3238710   6.5975400 104.5164620  57.4018080
   5.3946380 104.4276560  58.3166960   3.4276700  90.9022350  54.9865650
   4.2767230  91.3392500  54.9205840   3.0607970  91.2142610  55.8137710
  14.0564470  90.2301930  66.4535860  13.5538070  90.9707330  66.7929670
  14.8721130  90.6185930  66.1372650  12.3486480  95.4735110  59.8997220
  11.4076620  95.4885340  60.0744910  12.6630550  94.6871070  60.3457520
   2.3268120  97.1554710  53.4601180   3.0931390  97.0436070  54.0226610
   2.4042810  96.4592680  52.8077950  14.3512060 102.6443960  61.5751480
  14.4759480 103.4675130  62.0475290  15.2177620 102.4334690  61.2275630
   1.8229590 104.7375170  61.2468610   2.5592070 104.1890630  61.5177180
   2.2070510 105.6031180  61.1074600   4.9331900 103.9105480  53.0694180
   5.7260510 104.1994310  52.6175970   4.4136250 103.4797650  52.3906660
   9.6652500 100.0301110  70.3829600   9.0590660 100.0532710  69.6425350
   9.3606610  99.2984150  70.9196850  11.0952870 103.7581400  68.9939010
  12.0474620 103.6739420  68.9439250  10.9481090 104.4223110  69.6672800
  13.9862070 103.1375610  54.4930920  13.7003580 102.7240750  53.6785100
  13.7881620 104.0663320  54.3731440   5.4509300  99.1308890  52.9336530
   5.3459940  98.5161240  53.6597910   5.2833520  98.6074780  52.1499540
   5.6023620  97.8165690  68.9125760   4.8369290  98.3850690  68.8280430
   5.7839580  97.5241900  68.0193990   8.6912030  98.1928920  53.5378520
   8.1422130  98.6398220  54.1821260   9.3131290  97.6878170  54.0616190
  12.7446970  99.5471020  69.4700780  13.4856440  99.8846780  68.9668240
  11.9819650  99.7163080  68.9170550   4.3587150  97.1519840  55.4343820
   4.7803570  96.9859710  56.2775210   4.4837990  96.3420070  54.9398960
   2.5214570  93.1316390  68.2414800   1.9911030  92.6407340  67.6138140
   3.1902640  93.5600590  67.7072730   6.8714790  96.1757450  52.6820920
   7.3920450  95.4606470  52.3162070   7.5183190  96.8143320  52.9821430
  11.4192630  97.5985850  68.0055990  11.8333650  97.7530930  68.8546410
  10.4843630  97.7241070  68.1681770  11.8914800  94.9382010  70.0095140
  12.4735570  94.1834330  69.9215620  12.0676570  95.4689450  69.2326620
   3.0086870  90.0978760  68.3212090   2.9143740  89.4799510  67.5962960
   2.4284260  90.8245050  68.0942000   5.7748310  88.6552000  65.3539480
   5.3265610  88.6776260  64.5085030   5.1413510  88.2571020  65.9509780
   6.1807860  97.5506330  65.9751920   6.5995970  98.3939060  65.8028160
   5.2616490  97.6878370  65.7458700   8.5171760  95.2822510  67.3589760
   8.6367970  94.6863650  68.0984600   9.3765760  95.3192200  66.9391060
  10.8559660  95.8359700  65.9352270  10.3294880  96.3602320  65.3317410
  11.1991000  96.4687090  66.5662000   3.2546050  93.2253070  52.3801980
   3.0535110  92.3620430  52.7415320   3.0838100  93.1386430  51.4423580
   4.0315280 103.8559340  67.0909650   3.4936370 104.5805400  66.7718350
   4.2849240 103.3789680  66.3006990   5.2840530  91.8243860  68.6165580
   5.8740220  91.5159710  69.3043400   4.4660770  91.3523610  68.7725480
  10.1033960  91.4409670  68.8498600   9.4149480  90.7791210  68.7848590
  10.8239980  90.9947940  69.2947060  10.7334360  88.0361300  54.9088860
  11.0136650  87.1929200  55.2648280   9.9600090  88.2684410  55.4227610
   2.0528850  90.3253690  52.3679860   2.3554750  90.3321120  51.4599010
   2.7923440  89.9751550  52.8647520   6.8877490 105.0910550  67.3496300
   6.8136190 105.9945690  67.6568670   5.9856330 104.7722450  67.3218370
   5.2713780  89.2688310  53.3536060   4.9235780  88.5912300  52.7738510
   5.4726550  88.8077820  54.1679450   7.4362820 104.2569060  54.9722660
   8.3313610 104.5954030  54.9941420   7.4680450 103.5348470  54.3446940
   2.8866700 100.7494150  58.3131890   2.5862240 100.6259120  59.2135800
   2.7804190  99.8902740  57.9047620  14.4157170 102.7872730  67.6788860
  13.8159160 102.8465290  66.9352780  14.5451070 101.8477710  67.8085710
  15.6558620 100.5290550  53.0158570  14.8251580 100.5967200  53.4865800
  15.8330450 101.4194670  52.7125430  15.1115080  97.2738030  55.5192770
  15.8733990  97.8434680  55.6252460  15.1269450  96.7065230  56.2901080
  16.1175050  98.1288130  60.3634700  16.4883880  97.3455450  59.9570670
  16.7576980  98.8177230  60.1852000  13.1008810  99.5124710  65.7765020
  12.2868650  99.9421870  66.0390810  13.5083010 100.1243120  65.1634070
  15.1634250  97.5672400  52.6765290  15.4383090  98.4751280  52.5484510
  14.9744990  97.5034930  53.6127280  11.5609860  90.5917250  53.9718920
  11.9794740  90.4048230  53.1315580  11.2545920  89.7396300  54.2821850
  15.0599590  95.5041390  57.6694720  14.6843190  94.7369320  57.2376010
  14.3302710  95.8864090  58.1569650  14.4499210  94.6512910  67.3034240
  14.2185300  94.4225660  66.4032190  14.7103760  95.5712460  67.2579130
  12.8887280  89.8769340  70.0813940  13.7657460  89.8852740  70.4647940
  12.9008120  89.1400180  69.4706290  14.3350550  93.7298880  60.9701960
  14.8588030  93.2361530  60.3392130  14.9209970  93.8649240  61.7149530
  14.5140270  93.8138750  64.4921510  13.5642980  93.7802290  64.6066500
  14.6953280  94.7238860  64.2571280  13.8250520  92.9872230  56.9094370
  14.3209640  92.7543100  57.6943250  13.6266590  92.1484070  56.4932010
  15.2537680  91.6233180  59.4432050  15.1436960  91.4689220  60.3814320
  16.0145270  91.0954120  59.2007460  13.6003400  87.5627310  65.9015050
  14.2375620  88.1761450  66.2674240  13.7478290  87.5987970  64.9564280
  16.1427950  89.4541100  52.6838190  17.0677260  89.3222280  52.4756480
  16.1203740  89.5333920  53.6374640  16.2166440  90.2251760  55.3094900
  15.4217940  90.1596880  55.8387810  16.4209720  91.1602400  55.2980250
  13.1584860 104.2643310  59.3033290  13.7543930 103.9427880  58.6267710
  13.4163010 103.7915130  60.0946560   4.7653460 102.2520810  65.0533640
   4.5244820 102.5195370  64.1664160   5.7056100 102.4226540  65.1084500
   6.9707880  88.7153500  68.8090150   6.9096770  89.3075330  69.5585560
   7.9108260  88.6079460  68.6640410   9.6082440  88.3723560  68.4482440
  10.2222850  88.6902850  67.7863520  10.1532000  87.8872150  69.0678300
  16.0257620 104.2715190  65.8544280  15.5315900 104.6684060  65.1371410
  15.4170910 103.6464400  66.2481560  10.3490480  86.9355700  64.7751730
   9.4750320  87.2690810  64.5724660  10.2401230  86.4628880  65.6003600
  11.2562460  89.1426570  66.1593450  10.9275820  88.3278330  65.7795180
  12.2044760  89.0996380  66.0359140  13.7097070 104.9138610  63.1331020
  13.2500040 105.6654420  62.7589040  13.0809530 104.1945080  63.0745820
   4.1392790 103.2226850  62.3079150   4.6557810 102.6114210  61.7827410
   4.7890170 103.7255630  62.7990160   6.8788290 104.1135340  63.1348130
   7.1666100 103.8589640  62.2581140   7.3911510 103.5612700  63.7253700
   8.0965300  87.8525540  63.7144640   7.3137090  88.3271040  63.9941400
   7.8028230  86.9480370  63.6057820  12.6486370  88.5548640  61.7593730
  13.0894460  88.4993740  60.9115330  12.3793960  89.4706650  61.8303910
  14.5124940  88.1863880  59.7702550  14.4513340  87.2425100  59.6233570
  15.2916970  88.2943970  60.3156010   5.9819520  90.2712290  59.2260670
   5.1694030  89.8969180  58.8856550   6.4861160  89.5157370  59.5281860
  10.4844500  86.9354740  60.4643740  11.0873870  87.5074950  60.9392260
   9.7437490  87.4994180  60.2417640  13.6279100  87.3376300  55.7384020
  13.8229730  88.2359750  56.0051450  12.8408970  87.1063380  56.2316970
   1.8130860  88.6837070  54.7760330   2.3423620  87.8966870  54.6468280
   2.4459180  89.3628260  55.0095860   4.0068700  88.4212210  57.8305720
   3.3771440  87.7199520  57.9975850   3.4673840  89.1816340  57.6138880
   6.9460650 105.0351440  70.5016330   7.8727960 104.7995710  70.5452290
   6.9311080 105.8623440  70.0202360  15.1805710 104.5777010  57.4990580
  15.3557900 103.8914750  56.8551500  14.4827280 105.1024060  57.1067250
   4.1324260  87.6996190  70.2658210   3.8508530  88.2029790  69.5019030
   4.5143960  86.9017940  69.9000340   3.0233360 104.9671850  55.0525890
   3.7552180 104.6831130  54.5049780   3.2827030 104.7285130  55.9425270
   2.1848150 101.0836580  55.0572220   1.5557030 101.5521680  55.6058050
   2.2995980 100.2385800  55.4918410  10.7339720  87.1149770  70.8438680
  10.6205170  87.4344380  71.7390200  11.5509460  87.5162280  70.5475960
  13.5138210 104.2621300  70.3257370  14.3063530 103.7670530  70.1183330
  13.8071360 104.9411440  70.9332980   9.6397870  95.1342240  41.2073420
   9.5591920  94.2196850  40.9365130   9.2262290  95.6309310  40.5013130
   7.7715910  96.9121260  43.0882690   6.9958010  96.4321700  43.3781260
   8.4228840  96.2326910  42.9138850  11.7923340 101.3181450  41.8681820
  11.3304870 100.5468690  42.1968990  12.6048890 101.3447520  42.3734270
   1.7683000 101.2581160  44.1616470   2.0711040 100.3678900  43.9826690
   2.5126590 101.8151380  43.9338720   8.0186650 103.6039460  41.4885810
   7.3998090 104.0596960  40.9180250   8.8738430 103.7590920  41.0875510
   7.2124900  99.5878450  43.0952850   7.1433180  98.6468390  42.9341980
   7.9744760  99.6779860  43.6675420   8.2430070  92.3948830  43.3221780
   8.6194890  91.5220710  43.2095450   8.1449580  92.7307530  42.4312220
   2.3735080  90.7674460  38.7839220   2.4801830  91.6678190  39.0907980
   1.4627440  90.7192430  38.4933870  12.0254190  89.8899270  40.2550120
  12.8463810  89.3995840  40.2975600  12.0588270  90.4796930  41.0081960
   4.2142810  93.7360830  43.1164400   4.7221030  94.2341800  43.7569420
   4.7456050  92.9596030  42.9403760  16.3153740  91.9066020  46.8193750
  15.6105910  92.2947730  46.3008860  16.5811660  92.6016310  47.4214680
   2.4978910  88.3759390  47.3827820   2.4997350  88.8931780  46.5773720
   1.6683220  87.8989570  47.3597750   8.8850000  98.4878700  38.8817720
   8.2667270  98.9528150  38.3180440   9.3973250  99.1806180  39.2987230
   3.7481760  98.0154570  45.5601320   3.4151140  98.6423490  46.2022390
   3.9248440  98.5416450  44.7802990  12.2615670  91.8299650  43.0277660
  11.5571240  92.1184540  43.6080770  12.6227830  92.6399760  42.6677220
   2.1794240  90.0869350  45.3898270   2.5211050  90.9311400  45.0952140
   1.2410050  90.2353090  45.5063610   2.9600860  99.9835370  47.3750500
   3.5774860 100.6586450  47.0934950   2.0993980 100.3923350  47.2838000
  13.8778450 101.4474780  45.2905140  13.1941970 102.1173890  45.2821810
  14.4172740 101.6455430  44.5250000  15.3302590  91.2754440  43.4186870
  14.3827500  91.3093420  43.5502300  15.6552580  92.0893390  43.8036230
   5.8622130  87.5751620  41.7142860   6.1697110  87.0198510  40.9978360
   4.9322830  87.7096080  41.5315850  11.4137190 103.2918910  44.0050320
  11.4264350 102.8881200  43.1372580  10.8612410 104.0666200  43.9011750
  12.7082610 100.0135130  39.0940490  12.5978940  99.0709460  39.2189910
  12.7050860 100.3750770  39.9803250  10.8122630  98.1948750  45.3332930
  11.2291420  97.9808860  44.4986390  11.5362450  98.4521540  45.9041550
   8.2502890  95.6400450  38.4502980   7.3232170  95.5737830  38.6791450
   8.4027710  96.5780580  38.3358220   8.2371970  91.9117450  35.4470140
   7.2975640  92.0731410  35.5322600   8.5555230  92.6303130  34.9006130
  14.7584730  96.5935970  45.4249170  13.9303360  96.6629060  44.9499300
  15.3535210  97.1790280  44.9565000  12.2800180  97.2020750  38.9538230
  11.6612600  96.8640300  38.3064530  12.2624630  96.5580510  39.6617420
  11.7226740  93.3805290  46.3704040  11.3097920  94.2059000  46.6244030
  10.9902690  92.7950330  46.1780400   3.8559530  96.1665190  41.2322710
   3.4516530  95.4542440  40.7368610   3.9422650  95.8218430  42.1210750
   4.3241230  99.8532750  43.3961920   4.0269520  99.2478220  42.7169700
   5.2741050  99.8910060  43.2851280   2.5688150  92.9408400  45.0121750
   3.1202740  93.0503740  44.2375000   3.0831660  93.3146000  45.7276980
  12.4126840 103.4264620  47.0585020  11.9357400 104.2336810  46.8657630
  11.7288630 102.7742950  47.2111230   3.4159660  99.5914440  50.0469720
   2.5188190  99.8154410  50.2943120   3.4412530  99.7149380  49.0981120
  10.4564880  96.4407560  35.9610980  10.8958160  95.6029990  35.8148800
  11.1693300  97.0736960  36.0475120   2.2430880  96.4627760  48.6227090
   2.1038650  97.3350560  48.9914490   1.3612240  96.1200570  48.4775030
   8.5660260 101.3803630  39.9292220   9.0056170 102.1227960  39.5147610
   8.5047150 101.6230200  40.8531180   4.0411230 102.4049460  50.8312240
   4.0126660 102.8092410  49.9640670   3.8776200 101.4759820  50.6683840
  14.0382020  87.6950370  34.2752020  13.7254680  87.7877200  35.1751090
  14.7994490  88.2731400  34.2249450  15.9926050 103.1876560  52.1276410
  16.4685770 103.6659450  52.8065490  16.6133210 103.1194050  51.4021910
  15.3959300 100.3789410  49.2876420  15.5222360 100.1401290  48.3693600
  15.4380680  99.5473950  49.7598500   9.2576040 104.0817410  47.8571230
   9.7720710 103.9925420  48.6593660   8.4145120 104.4277110  48.1499140
  11.2330440 104.3672750  37.2855230  11.0731580 104.0775690  38.1837060
  11.0677150 103.5912880  36.7500460   3.7118820 104.1471280  39.0626850
   3.5361300 103.2306820  38.8494650   2.8574560 104.5058570  39.3024650
  10.9356570 101.8760310  35.8453230  10.2421730 101.8737600  35.1855510
  11.6779430 101.4519630  35.4147400  10.5006500 103.5023020  39.9201720
  10.9563450 102.7212400  40.2340340  10.8399020 104.2129840  40.4642900
  15.2483310  92.4321870  50.2526160  14.6327580  92.9401540  49.7241620
  14.9279730  91.5320200  50.1952100   3.0227820  88.4045240  42.1153030
   2.5795970  89.1854780  41.7837550   3.5812810  88.7275130  42.8223970
   7.3097630  91.2713760  47.7188350   6.8477000  91.4796780  48.5308290
   6.9075740  90.4573110  47.4159020  12.3102140  92.4922710  48.8485010
  11.4595730  92.1928460  49.1694080  12.1503930  92.7364720  47.9368830
   9.4051850  93.9924460  50.9483800   9.7305260  93.1588210  50.6086030
  10.1932180  94.5152980  51.0962130   6.1386640  88.0255940  36.9958860
   5.5140820  88.0215810  37.7212170   6.0516760  87.1586900  36.5994830
   5.0603720  88.9492570  43.9742630   5.3576050  89.8555400  43.8934650
   5.6089280  88.4611350  43.3602200   2.8142040  93.5278810  39.8434280
   2.5882960  93.3115980  40.7480900   2.0334570  93.9607270  39.4980250
  10.0439800  93.5342180  38.4424930   9.4448690  94.2577980  38.2588550
  10.5919410  93.4718960  37.6601380   5.2541250  94.4264390  50.5094550
   5.1584850  93.4859120  50.3594950   6.0973230  94.6479460  50.1142620
   8.6504670  92.1705720  40.4728210   9.0434240  92.4877920  39.6596900
   9.0121520  91.2917600  40.5872730   6.9596840  90.9213030  51.7325070
   6.2695160  90.7285230  52.3671160   7.7029140  91.2047670  52.2649370
   9.2359810  94.7611470  44.5678990   8.5040930  95.2698280  44.9169090
   8.8384150  93.9441450  44.2667770   5.6737200  91.4365670  42.9731480
   5.6773260  90.9955620  42.1236020   6.5688320  91.7583000  43.0803300
   5.7357350  92.4377750  35.9638240   5.8570170  92.3964230  36.9124060
   5.3505860  93.3001900  35.8084970   9.6985720  90.2145150  43.9801930
   9.7158460  90.6653800  44.8243780   9.4501300  89.3150790  44.1935370
   4.7478850  94.7478890  35.3621540   4.1795750  94.2997140  34.7357450
   5.4567850  95.1071670  34.8286690  13.1256470  87.6277330  49.8188310
  13.4502240  86.8966990  50.3446290  13.1612980  87.3090970  48.9169300
   5.9745170  95.4967450  44.7196890   6.3415300  95.0226020  45.4658230
   5.7850230  96.3709020  45.0605230   3.7644540  94.5376090  47.0381100
   3.4601610  95.4168070  47.2631460   4.7191000  94.5975880  47.0738540
   2.2926330  98.7437080  37.6347950   1.5188590  98.2034700  37.4746670
   3.0220960  98.2243690  37.2965710  13.0514310  97.7402440  43.4274340
  13.7713430  98.2357730  43.0370450  12.8496130  97.0620330  42.7828210
   8.5124250  89.1340400  37.5703730   7.6988860  88.6353570  37.4949040
   8.3186200  89.9738650  37.1540080   8.4333110  97.8111500  49.3143340
   8.3670420  96.8907170  49.0600930   7.8038250  97.9086940  50.0287980
  11.2272640  93.5060050  35.8665890  12.1152260  93.8177280  35.6917230
  11.1977730  92.6332300  35.4746470   2.3363730  98.4117460  41.2726760
   2.8542400  97.6085720  41.2183650   1.8847750  98.3496600  42.1143590
   7.2233230  99.6783740  36.5454060   7.5648930 100.4225970  36.0497380
   6.3945940  99.9914860  36.9078890   3.0221390  95.8363070  51.0692010
   2.7221530  95.9820250  50.1719830   3.7932630  95.2768360  50.9765400
   8.3649840 100.6332070  49.0647140   8.3794380  99.7013030  48.8466050
   7.6574940 100.7191830  49.7036910  13.4986910  94.8171890  35.3345750
  13.4150630  95.2486110  34.4842190  14.2181100  95.2770240  35.7672570
  14.5761050  97.2739410  48.4115720  13.8509240  97.8668190  48.2145110
  15.1036510  97.2662950  47.6129090  14.5274160 101.6714150  38.0627880
  13.8850320 101.0169770  38.3371600  14.1404820 102.0769240  37.2868550
  10.1060640  98.9999580  41.9099570  10.4584460  98.4027710  41.2500940
   9.2222970  98.6743810  42.0807820   6.1923920  99.7597270  39.3169980
   6.8795050 100.3066480  39.6977570   5.4056340 100.3038000  39.3519590
   5.4951130  96.7643300  38.9295340   5.9513910  97.5748550  39.1555530
   5.1439340  96.4466440  39.7613830   7.7983740 102.2749640  46.1587640
   8.4425960 102.4809020  46.8361060   8.1613180 101.5138040  45.7058490
   9.0715820 100.2781990  44.8765090   9.7138050  99.5775150  44.9897260
   9.5965170 101.0580430  44.6961980  12.9171540 100.5630610  34.6004230
  12.6909120  99.8461050  35.1928870  12.5267740 100.3143050  33.7625980
  10.8453440 101.0776890  48.0801150  11.1809680 101.6643580  48.7579070
   9.9253780 100.9469600  48.3098940  12.4987790  98.4802550  36.2618390
  12.2109490  98.9415240  37.0496270  13.2939960  98.0200320  36.5302610
   6.6742020 101.1268220  51.2489210   6.3538890 100.4077460  51.7934900
   6.0000380 101.8023290  51.3225270   4.7156190 101.9728670  36.1922360
   4.7066290 102.7058360  35.5766870   3.7954550 101.7260250  36.2849320
   9.8895620  91.3594380  46.6126010  10.2576440  90.5389590  46.9405580
   9.0293820  91.4196270  47.0281660  13.2557650  90.3151320  37.4213570
  12.6270810  90.4196990  36.7071800  12.7609570  90.5348100  38.2107450
   7.7015790 102.0356910  34.8547550   7.8027770 101.8320900  33.9249530
   6.8017530 101.7815190  35.0595330   5.2241680  92.5937270  38.8371450
   4.5157830  93.0623610  39.2785060   5.5086160  91.9359280  39.4716640
   6.8497610  94.0133970  46.8363980   7.3482860  94.4879790  47.5015830
   6.9920560  93.0897490  47.0434010   9.2557110  89.3187930  40.2767240
   9.1324890  89.3374060  39.3276750  10.2041670  89.3666870  40.3965640
   6.3433900 104.5543230  39.5495220   6.5975400 104.5164620  38.6274590
   5.3946380 104.4276560  39.5423470   3.4276700  90.9022350  36.2122160
   4.2767230  91.3392500  36.1462350   3.0607970  91.2142610  37.0394220
  14.0564470  90.2301930  47.6792370  13.5538070  90.9707330  48.0186180
  14.8721130  90.6185930  47.3629160  12.3486480  95.4735110  41.1253730
  11.4076620  95.4885340  41.3001420  12.6630550  94.6871070  41.5714030
   2.3268120  97.1554710  34.6857690   3.0931390  97.0436070  35.2483120
   2.4042810  96.4592680  34.0334460  14.3512060 102.6443960  42.8007990
  14.4759480 103.4675130  43.2731800  15.2177620 102.4334690  42.4532140
   1.8229590 104.7375170  42.4725120   2.5592070 104.1890630  42.7433690
   2.2070510 105.6031180  42.3331110   4.9331900 103.9105480  34.2950690
   5.7260510 104.1994310  33.8432480   4.4136250 103.4797650  33.6163170
   9.6652500 100.0301110  51.6086110   9.0590660 100.0532710  50.8681860
   9.3606610  99.2984150  52.1453360  11.0952870 103.7581400  50.2195520
  12.0474620 103.6739420  50.1695760  10.9481090 104.4223110  50.8929310
  13.9862070 103.1375610  35.7187430  13.7003580 102.7240750  34.9041610
  13.7881620 104.0663320  35.5987950   5.4509300  99.1308890  34.1593040
   5.3459940  98.5161240  34.8854420   5.2833520  98.6074780  33.3756050
   5.6023620  97.8165690  50.1382270   4.8369290  98.3850690  50.0536940
   5.7839580  97.5241900  49.2450500   8.6912030  98.1928920  34.7635030
   8.1422130  98.6398220  35.4077770   9.3131290  97.6878170  35.2872700
  12.7446970  99.5471020  50.6957290  13.4856440  99.8846780  50.1924750
  11.9819650  99.7163080  50.1427060   4.3587150  97.1519840  36.6600330
   4.7803570  96.9859710  37.5031720   4.4837990  96.3420070  36.1655470
   2.5214570  93.1316390  49.4671310   1.9911030  92.6407340  48.8394650
   3.1902640  93.5600590  48.9329240   6.8714790  96.1757450  33.9077430
   7.3920450  95.4606470  33.5418580   7.5183190  96.8143320  34.2077940
  11.4192630  97.5985850  49.2312500  11.8333650  97.7530930  50.0802920
  10.4843630  97.7241070  49.3938280  11.8914800  94.9382010  51.2351650
  12.4735570  94.1834330  51.1472130  12.0676570  95.4689450  50.4583130
   3.0086870  90.0978760  49.5468600   2.9143740  89.4799510  48.8219470
   2.4284260  90.8245050  49.3198510   5.7748310  88.6552000  46.5795990
   5.3265610  88.6776260  45.7341540   5.1413510  88.2571020  47.1766290
   6.1807860  97.5506330  47.2008430   6.5995970  98.3939060  47.0284670
   5.2616490  97.6878370  46.9715210   8.5171760  95.2822510  48.5846270
   8.6367970  94.6863650  49.3241110   9.3765760  95.3192200  48.1647570
  10.8559660  95.8359700  47.1608780  10.3294880  96.3602320  46.5573920
  11.1991000  96.4687090  47.7918510   3.2546050  93.2253070  33.6058490
   3.0535110  92.3620430  33.9671830   3.0838100  93.1386430  32.6680090
   4.0315280 103.8559340  48.3166160   3.4936370 104.5805400  47.9974860
   4.2849240 103.3789680  47.5263500   5.2840530  91.8243860  49.8422090
   5.8740220  91.5159710  50.5299910   4.4660770  91.3523610  49.9981990
  10.1033960  91.4409670  50.0755110   9.4149480  90.7791210  50.0105100
  10.8239980  90.9947940  50.5203570  10.7334360  88.0361300  36.1345370
  11.0136650  87.1929200  36.4904790   9.9600090  88.2684410  36.6484120
   2.0528850  90.3253690  33.5936370   2.3554750  90.3321120  32.6855520
   2.7923440  89.9751550  34.0904030   6.8877490 105.0910550  48.5752810
   6.8136190 105.9945690  48.8825180   5.9856330 104.7722450  48.5474880
   5.2713780  89.2688310  34.5792570   4.9235780  88.5912300  33.9995020
   5.4726550  88.8077820  35.3935960   7.4362820 104.2569060  36.1979170
   8.3313610 104.5954030  36.2197930   7.4680450 103.5348470  35.5703450
   2.8866700 100.7494150  39.5388400   2.5862240 100.6259120  40.4392310
   2.7804190  99.8902740  39.1304130  14.4157170 102.7872730  48.9045370
  13.8159160 102.8465290  48.1609290  14.5451070 101.8477710  49.0342220
  15.6558620 100.5290550  34.2415080  14.8251580 100.5967200  34.7122310
  15.8330450 101.4194670  33.9381940  15.1115080  97.2738030  36.7449280
  15.8733990  97.8434680  36.8508970  15.1269450  96.7065230  37.5157590
  16.1175050  98.1288130  41.5891210  16.4883880  97.3455450  41.1827180
  16.7576980  98.8177230  41.4108510  13.1008810  99.5124710  47.0021530
  12.2868650  99.9421870  47.2647320  13.5083010 100.1243120  46.3890580
  15.1634250  97.5672400  33.9021800  15.4383090  98.4751280  33.7741020
  14.9744990  97.5034930  34.8383790  11.5609860  90.5917250  35.1975430
  11.9794740  90.4048230  34.3572090  11.2545920  89.7396300  35.5078360
  15.0599590  95.5041390  38.8951230  14.6843190  94.7369320  38.4632520
  14.3302710  95.8864090  39.3826160  14.4499210  94.6512910  48.5290750
  14.2185300  94.4225660  47.6288700  14.7103760  95.5712460  48.4835640
  12.8887280  89.8769340  51.3070450  13.7657460  89.8852740  51.6904450
  12.9008120  89.1400180  50.6962800  14.3350550  93.7298880  42.1958470
  14.8588030  93.2361530  41.5648640  14.9209970  93.8649240  42.9406040
  14.5140270  93.8138750  45.7178020  13.5642980  93.7802290  45.8323010
  14.6953280  94.7238860  45.4827790  13.8250520  92.9872230  38.1350880
  14.3209640  92.7543100  38.9199760  13.6266590  92.1484070  37.7188520
  15.2537680  91.6233180  40.6688560  15.1436960  91.4689220  41.6070830
  16.0145270  91.0954120  40.4263970  13.6003400  87.5627310  47.1271560
  14.2375620  88.1761450  47.4930750  13.7478290  87.5987970  46.1820790
  16.1427950  89.4541100  33.9094700  17.0677260  89.3222280  33.7012990
  16.1203740  89.5333920  34.8631150  16.2166440  90.2251760  36.5351410
  15.4217940  90.1596880  37.0644320  16.4209720  91.1602400  36.5236760
  13.1584860 104.2643310  40.5289800  13.7543930 103.9427880  39.8524220
  13.4163010 103.7915130  41.3203070   4.7653460 102.2520810  46.2790150
   4.5244820 102.5195370  45.3920670   5.7056100 102.4226540  46.3341010
   6.9707880  88.7153500  50.0346660   6.9096770  89.3075330  50.7842070
   7.9108260  88.6079460  49.8896920   9.6082440  88.3723560  49.6738950
  10.2222850  88.6902850  49.0120030  10.1532000  87.8872150  50.2934810
  16.0257620 104.2715190  47.0800790  15.5315900 104.6684060  46.3627920
  15.4170910 103.6464400  47.4738070  10.3490480  86.9355700  46.0008240
   9.4750320  87.2690810  45.7981170  10.2401230  86.4628880  46.8260110
  11.2562460  89.1426570  47.3849960  10.9275820  88.3278330  47.0051690
  12.2044760  89.0996380  47.2615650  13.7097070 104.9138610  44.3587530
  13.2500040 105.6654420  43.9845550  13.0809530 104.1945080  44.3002330
   4.1392790 103.2226850  43.5335660   4.6557810 102.6114210  43.0083920
   4.7890170 103.7255630  44.0246670   6.8788290 104.1135340  44.3604640
   7.1666100 103.8589640  43.4837650   7.3911510 103.5612700  44.9510210
   8.0965300  87.8525540  44.9401150   7.3137090  88.3271040  45.2197910
   7.8028230  86.9480370  44.8314330  12.6486370  88.5548640  42.9850240
  13.0894460  88.4993740  42.1371840  12.3793960  89.4706650  43.0560420
  14.5124940  88.1863880  40.9959060  14.4513340  87.2425100  40.8490080
  15.2916970  88.2943970  41.5412520   5.9819520  90.2712290  40.4517180
   5.1694030  89.8969180  40.1113060   6.4861160  89.5157370  40.7538370
  10.4844500  86.9354740  41.6900250  11.0873870  87.5074950  42.1648770
   9.7437490  87.4994180  41.4674150  13.6279100  87.3376300  36.9640530
  13.8229730  88.2359750  37.2307960  12.8408970  87.1063380  37.4573480
   1.8130860  88.6837070  36.0016840   2.3423620  87.8966870  35.8724790
   2.4459180  89.3628260  36.2352370   4.0068700  88.4212210  39.0562230
   3.3771440  87.7199520  39.2232360   3.4673840  89.1816340  38.8395390
   6.9460650 105.0351440  51.7272840   7.8727960 104.7995710  51.7708800
   6.9311080 105.8623440  51.2458870  15.1805710 104.5777010  38.7247090
  15.3557900 103.8914750  38.0808010  14.4827280 105.1024060  38.3323760
   4.1324260  87.6996190  51.4914720   3.8508530  88.2029790  50.7275540
   4.5143960  86.9017940  51.1256850   3.0233360 104.9671850  36.2782400
   3.7552180 104.6831130  35.7306290   3.2827030 104.7285130  37.1681780
   2.1848150 101.0836580  36.2828730   1.5557030 101.5521680  36.8314560
   2.2995980 100.2385800  36.7174920  10.7339720  87.1149770  52.0695190
  10.6205170  87.4344380  52.9646710  11.5509460  87.5162280  51.7732470
  13.5138210 104.2621300  51.5513880  14.3063530 103.7670530  51.3439840
  13.8071360 104.9411440  52.1589490   9.6397870  95.1342240  22.4329930
   9.5591920  94.2196850  22.1621640   9.2262290  95.6309310  21.7269640
   7.7715910  96.9121260  24.3139200   6.9958010  96.4321700  24.6037770
   8.4228840  96.2326910  24.1395360  11.7923340 101.3181450  23.0938330
  11.3304870 100.5468690  23.4225500  12.6048890 101.3447520  23.5990780
   1.7683000 101.2581160  25.3872980   2.0711040 100.3678900  25.2083200
   2.5126590 101.8151380  25.1595230   8.0186650 103.6039460  22.7142320
   7.3998090 104.0596960  22.1436760   8.8738430 103.7590920  22.3132020
   7.2124900  99.5878450  24.3209360   7.1433180  98.6468390  24.1598490
   7.9744760  99.6779860  24.8931930   8.2430070  92.3948830  24.5478290
   8.6194890  91.5220710  24.4351960   8.1449580  92.7307530  23.6568730
   2.3735080  90.7674460  20.0095730   2.4801830  91.6678190  20.3164490
   1.4627440  90.7192430  19.7190380  12.0254190  89.8899270  21.4806630
  12.8463810  89.3995840  21.5232110  12.0588270  90.4796930  22.2338470
   4.2142810  93.7360830  24.3420910   4.7221030  94.2341800  24.9825930
   4.7456050  92.9596030  24.1660270  16.3153740  91.9066020  28.0450260
  15.6105910  92.2947730  27.5265370  16.5811660  92.6016310  28.6471190
   2.4978910  88.3759390  28.6084330   2.4997350  88.8931780  27.8030230
   1.6683220  87.8989570  28.5854260   8.8850000  98.4878700  20.1074230
   8.2667270  98.9528150  19.5436950   9.3973250  99.1806180  20.5243740
   3.7481760  98.0154570  26.7857830   3.4151140  98.6423490  27.4278900
   3.9248440  98.5416450  26.0059500  12.2615670  91.8299650  24.2534170
  11.5571240  92.1184540  24.8337280  12.6227830  92.6399760  23.8933730
   2.1794240  90.0869350  26.6154780   2.5211050  90.9311400  26.3208650
   1.2410050  90.2353090  26.7320120   2.9600860  99.9835370  28.6007010
   3.5774860 100.6586450  28.3191460   2.0993980 100.3923350  28.5094510
  13.8778450 101.4474780  26.5161650  13.1941970 102.1173890  26.5078320
  14.4172740 101.6455430  25.7506510  15.3302590  91.2754440  24.6443380
  14.3827500  91.3093420  24.7758810  15.6552580  92.0893390  25.0292740
   5.8622130  87.5751620  22.9399370   6.1697110  87.0198510  22.2234870
   4.9322830  87.7096080  22.7572360  11.4137190 103.2918910  25.2306830
  11.4264350 102.8881200  24.3629090  10.8612410 104.0666200  25.1268260
  12.7082610 100.0135130  20.3197000  12.5978940  99.0709460  20.4446420
  12.7050860 100.3750770  21.2059760  10.8122630  98.1948750  26.5589440
  11.2291420  97.9808860  25.7242900  11.5362450  98.4521540  27.1298060
   8.2502890  95.6400450  19.6759490   7.3232170  95.5737830  19.9047960
   8.4027710  96.5780580  19.5614730   8.2371970  91.9117450  16.6726650
   7.2975640  92.0731410  16.7579110   8.5555230  92.6303130  16.1262640
  14.7584730  96.5935970  26.6505680  13.9303360  96.6629060  26.1755810
  15.3535210  97.1790280  26.1821510  12.2800180  97.2020750  20.1794740
  11.6612600  96.8640300  19.5321040  12.2624630  96.5580510  20.8873930
  11.7226740  93.3805290  27.5960550  11.3097920  94.2059000  27.8500540
  10.9902690  92.7950330  27.4036910   3.8559530  96.1665190  22.4579220
   3.4516530  95.4542440  21.9625120   3.9422650  95.8218430  23.3467260
   4.3241230  99.8532750  24.6218430   4.0269520  99.2478220  23.9426210
   5.2741050  99.8910060  24.5107790   2.5688150  92.9408400  26.2378260
   3.1202740  93.0503740  25.4631510   3.0831660  93.3146000  26.9533490
  12.4126840 103.4264620  28.2841530  11.9357400 104.2336810  28.0914140
  11.7288630 102.7742950  28.4367740   3.4159660  99.5914440  31.2726230
   2.5188190  99.8154410  31.5199630   3.4412530  99.7149380  30.3237630
  10.4564880  96.4407560  17.1867490  10.8958160  95.6029990  17.0405310
  11.1693300  97.0736960  17.2731630   2.2430880  96.4627760  29.8483600
   2.1038650  97.3350560  30.2171000   1.3612240  96.1200570  29.7031540
   8.5660260 101.3803630  21.1548730   9.0056170 102.1227960  20.7404120
   8.5047150 101.6230200  22.0787690   4.0411230 102.4049460  32.0568750
   4.0126660 102.8092410  31.1897180   3.8776200 101.4759820  31.8940350
  14.0382020  87.6950370  15.5008530  13.7254680  87.7877200  16.4007600
  14.7994490  88.2731400  15.4505960  15.9926050 103.1876560  33.3532920
  16.4685770 103.6659450  34.0322000  16.6133210 103.1194050  32.6278420
  15.3959300 100.3789410  30.5132930  15.5222360 100.1401290  29.5950110
  15.4380680  99.5473950  30.9855010   9.2576040 104.0817410  29.0827740
   9.7720710 103.9925420  29.8850170   8.4145120 104.4277110  29.3755650
  11.2330440 104.3672750  18.5111740  11.0731580 104.0775690  19.4093570
  11.0677150 103.5912880  17.9756970   3.7118820 104.1471280  20.2883360
   3.5361300 103.2306820  20.0751160   2.8574560 104.5058570  20.5281160
  10.9356570 101.8760310  17.0709740  10.2421730 101.8737600  16.4112020
  11.6779430 101.4519630  16.6403910  10.5006500 103.5023020  21.1458230
  10.9563450 102.7212400  21.4596850  10.8399020 104.2129840  21.6899410
  15.2483310  92.4321870  31.4782670  14.6327580  92.9401540  30.9498130
  14.9279730  91.5320200  31.4208610   3.0227820  88.4045240  23.3409540
   2.5795970  89.1854780  23.0094060   3.5812810  88.7275130  24.0480480
   7.3097630  91.2713760  28.9444860   6.8477000  91.4796780  29.7564800
   6.9075740  90.4573110  28.6415530  12.3102140  92.4922710  30.0741520
  11.4595730  92.1928460  30.3950590  12.1503930  92.7364720  29.1625340
   9.4051850  93.9924460  32.1740310   9.7305260  93.1588210  31.8342540
  10.1932180  94.5152980  32.3218640   6.1386640  88.0255940  18.2215370
   5.5140820  88.0215810  18.9468680   6.0516760  87.1586900  17.8251340
   5.0603720  88.9492570  25.1999140   5.3576050  89.8555400  25.1191160
   5.6089280  88.4611350  24.5858710   2.8142040  93.5278810  21.0690790
   2.5882960  93.3115980  21.9737410   2.0334570  93.9607270  20.7236760
  10.0439800  93.5342180  19.6681440   9.4448690  94.2577980  19.4845060
  10.5919410  93.4718960  18.8857890   5.2541250  94.4264390  31.7351060
   5.1584850  93.4859120  31.5851460   6.0973230  94.6479460  31.3399130
   8.6504670  92.1705720  21.6984720   9.0434240  92.4877920  20.8853410
   9.0121520  91.2917600  21.8129240   6.9596840  90.9213030  32.9581580
   6.2695160  90.7285230  33.5927670   7.7029140  91.2047670  33.4905880
   9.2359810  94.7611470  25.7935500   8.5040930  95.2698280  26.1425600
   8.8384150  93.9441450  25.4924280   5.6737200  91.4365670  24.1987990
   5.6773260  90.9955620  23.3492530   6.5688320  91.7583000  24.3059810
   5.7357350  92.4377750  17.1894750   5.8570170  92.3964230  18.1380570
   5.3505860  93.3001900  17.0341480   9.6985720  90.2145150  25.2058440
   9.7158460  90.6653800  26.0500290   9.4501300  89.3150790  25.4191880
   4.7478850  94.7478890  16.5878050   4.1795750  94.2997140  15.9613960
   5.4567850  95.1071670  16.0543200  13.1256470  87.6277330  31.0444820
  13.4502240  86.8966990  31.5702800  13.1612980  87.3090970  30.1425810
   5.9745170  95.4967450  25.9453400   6.3415300  95.0226020  26.6914740
   5.7850230  96.3709020  26.2861740   3.7644540  94.5376090  28.2637610
   3.4601610  95.4168070  28.4887970   4.7191000  94.5975880  28.2995050
   2.2926330  98.7437080  18.8604460   1.5188590  98.2034700  18.7003180
   3.0220960  98.2243690  18.5222220  13.0514310  97.7402440  24.6530850
  13.7713430  98.2357730  24.2626960  12.8496130  97.0620330  24.0084720
   8.5124250  89.1340400  18.7960240   7.6988860  88.6353570  18.7205550
   8.3186200  89.9738650  18.3796590   8.4333110  97.8111500  30.5399850
   8.3670420  96.8907170  30.2857440   7.8038250  97.9086940  31.2544490
  11.2272640  93.5060050  17.0922400  12.1152260  93.8177280  16.9173740
  11.1977730  92.6332300  16.7002980   2.3363730  98.4117460  22.4983270
   2.8542400  97.6085720  22.4440160   1.8847750  98.3496600  23.3400100
   7.2233230  99.6783740  17.7710570   7.5648930 100.4225970  17.2753890
   6.3945940  99.9914860  18.1335400   3.0221390  95.8363070  32.2948520
   2.7221530  95.9820250  31.3976340   3.7932630  95.2768360  32.2021910
   8.3649840 100.6332070  30.2903650   8.3794380  99.7013030  30.0722560
   7.6574940 100.7191830  30.9293420  13.4986910  94.8171890  16.5602260
  13.4150630  95.2486110  15.7098700  14.2181100  95.2770240  16.9929080
  14.5761050  97.2739410  29.6372230  13.8509240  97.8668190  29.4401620
  15.1036510  97.2662950  28.8385600  14.5274160 101.6714150  19.2884390
  13.8850320 101.0169770  19.5628110  14.1404820 102.0769240  18.5125060
  10.1060640  98.9999580  23.1356080  10.4584460  98.4027710  22.4757450
   9.2222970  98.6743810  23.3064330   6.1923920  99.7597270  20.5426490
   6.8795050 100.3066480  20.9234080   5.4056340 100.3038000  20.5776100
   5.4951130  96.7643300  20.1551850   5.9513910  97.5748550  20.3812040
   5.1439340  96.4466440  20.9870340   7.7983740 102.2749640  27.3844150
   8.4425960 102.4809020  28.0617570   8.1613180 101.5138040  26.9315000
   9.0715820 100.2781990  26.1021600   9.7138050  99.5775150  26.2153770
   9.5965170 101.0580430  25.9218490  12.9171540 100.5630610  15.8260740
  12.6909120  99.8461050  16.4185380  12.5267740 100.3143050  14.9882490
  10.8453440 101.0776890  29.3057660  11.1809680 101.6643580  29.9835580
   9.9253780 100.9469600  29.5355450  12.4987790  98.4802550  17.4874900
  12.2109490  98.9415240  18.2752780  13.2939960  98.0200320  17.7559120
   6.6742020 101.1268220  32.4745720   6.3538890 100.4077460  33.0191410
   6.0000380 101.8023290  32.5481780   4.7156190 101.9728670  17.4178870
   4.7066290 102.7058360  16.8023380   3.7954550 101.7260250  17.5105830
   9.8895620  91.3594380  27.8382520  10.2576440  90.5389590  28.1662090
   9.0293820  91.4196270  28.2538170  13.2557650  90.3151320  18.6470080
  12.6270810  90.4196990  17.9328310  12.7609570  90.5348100  19.4363960
   7.7015790 102.0356910  16.0804060   7.8027770 101.8320900  15.1506040
   6.8017530 101.7815190  16.2851840   5.2241680  92.5937270  20.0627960
   4.5157830  93.0623610  20.5041570   5.5086160  91.9359280  20.6973150
   6.8497610  94.0133970  28.0620490   7.3482860  94.4879790  28.7272340
   6.9920560  93.0897490  28.2690520   9.2557110  89.3187930  21.5023750
   9.1324890  89.3374060  20.5533260  10.2041670  89.3666870  21.6222150
   6.3433900 104.5543230  20.7751730   6.5975400 104.5164620  19.8531100
   5.3946380 104.4276560  20.7679980   3.4276700  90.9022350  17.4378670
   4.2767230  91.3392500  17.3718860   3.0607970  91.2142610  18.2650730
  14.0564470  90.2301930  28.9048880  13.5538070  90.9707330  29.2442690
  14.8721130  90.6185930  28.5885670  12.3486480  95.4735110  22.3510240
  11.4076620  95.4885340  22.5257930  12.6630550  94.6871070  22.7970540
   2.3268120  97.1554710  15.9114200   3.0931390  97.0436070  16.4739630
   2.4042810  96.4592680  15.2590970  14.3512060 102.6443960  24.0264500
  14.4759480 103.4675130  24.4988310  15.2177620 102.4334690  23.6788650
   1.8229590 104.7375170  23.6981630   2.5592070 104.1890630  23.9690200
   2.2070510 105.6031180  23.5587620   4.9331900 103.9105480  15.5207200
   5.7260510 104.1994310  15.0688990   4.4136250 103.4797650  14.8419680
   9.6652500 100.0301110  32.8342620   9.0590660 100.0532710  32.0938370
   9.3606610  99.2984150  33.3709870  11.0952870 103.7581400  31.4452030
  12.0474620 103.6739420  31.3952270  10.9481090 104.4223110  32.1185820
  13.9862070 103.1375610  16.9443940  13.7003580 102.7240750  16.1298120
  13.7881620 104.0663320  16.8244460   5.4509300  99.1308890  15.3849550
   5.3459940  98.5161240  16.1110930   5.2833520  98.6074780  14.6012560
   5.6023620  97.8165690  31.3638780   4.8369290  98.3850690  31.2793450
   5.7839580  97.5241900  30.4707010   8.6912030  98.1928920  15.9891540
   8.1422130  98.6398220  16.6334280   9.3131290  97.6878170  16.5129210
  12.7446970  99.5471020  31.9213800  13.4856440  99.8846780  31.4181260
  11.9819650  99.7163080  31.3683570   4.3587150  97.1519840  17.8856840
   4.7803570  96.9859710  18.7288230   4.4837990  96.3420070  17.3911980
   2.5214570  93.1316390  30.6927820   1.9911030  92.6407340  30.0651160
   3.1902640  93.5600590  30.1585750   6.8714790  96.1757450  15.1333940
   7.3920450  95.4606470  14.7675090   7.5183190  96.8143320  15.4334450
  11.4192630  97.5985850  30.4569010  11.8333650  97.7530930  31.3059430
  10.4843630  97.7241070  30.6194790  11.8914800  94.9382010  32.4608160
  12.4735570  94.1834330  32.3728640  12.0676570  95.4689450  31.6839640
   3.0086870  90.0978760  30.7725110   2.9143740  89.4799510  30.0475980
   2.4284260  90.8245050  30.5455020   5.7748310  88.6552000  27.8052500
   5.3265610  88.6776260  26.9598050   5.1413510  88.2571020  28.4022800
   6.1807860  97.5506330  28.4264940   6.5995970  98.3939060  28.2541180
   5.2616490  97.6878370  28.1971720   8.5171760  95.2822510  29.8102780
   8.6367970  94.6863650  30.5497620   9.3765760  95.3192200  29.3904080
  10.8559660  95.8359700  28.3865290  10.3294880  96.3602320  27.7830430
  11.1991000  96.4687090  29.0175020   3.2546050  93.2253070  14.8315000
   3.0535110  92.3620430  15.1928340   3.0838100  93.1386430  13.8936600
   4.0315280 103.8559340  29.5422670   3.4936370 104.5805400  29.2231370
   4.2849240 103.3789680  28.7520010   5.2840530  91.8243860  31.0678600
   5.8740220  91.5159710  31.7556420   4.4660770  91.3523610  31.2238500
  10.1033960  91.4409670  31.3011620   9.4149480  90.7791210  31.2361610
  10.8239980  90.9947940  31.7460080  10.7334360  88.0361300  17.3601880
  11.0136650  87.1929200  17.7161300   9.9600090  88.2684410  17.8740630
   2.0528850  90.3253690  14.8192880   2.3554750  90.3321120  13.9112030
   2.7923440  89.9751550  15.3160540   6.8877490 105.0910550  29.8009320
   6.8136190 105.9945690  30.1081690   5.9856330 104.7722450  29.7731390
   5.2713780  89.2688310  15.8049080   4.9235780  88.5912300  15.2251530
   5.4726550  88.8077820  16.6192470   7.4362820 104.2569060  17.4235680
   8.3313610 104.5954030  17.4454440   7.4680450 103.5348470  16.7959960
   2.8866700 100.7494150  20.7644910   2.5862240 100.6259120  21.6648820
   2.7804190  99.8902740  20.3560640  14.4157170 102.7872730  30.1301880
  13.8159160 102.8465290  29.3865800  14.5451070 101.8477710  30.2598730
  15.6558620 100.5290550  15.4671590  14.8251580 100.5967200  15.9378820
  15.8330450 101.4194670  15.1638450  15.1115080  97.2738030  17.9705790
  15.8733990  97.8434680  18.0765480  15.1269450  96.7065230  18.7414100
  16.1175050  98.1288130  22.8147720  16.4883880  97.3455450  22.4083690
  16.7576980  98.8177230  22.6365020  13.1008810  99.5124710  28.2278040
  12.2868650  99.9421870  28.4903830  13.5083010 100.1243120  27.6147090
  15.1634250  97.5672400  15.1278310  15.4383090  98.4751280  14.9997530
  14.9744990  97.5034930  16.0640300  11.5609860  90.5917250  16.4231940
  11.9794740  90.4048230  15.5828600  11.2545920  89.7396300  16.7334870
  15.0599590  95.5041390  20.1207740  14.6843190  94.7369320  19.6889030
  14.3302710  95.8864090  20.6082670  14.4499210  94.6512910  29.7547260
  14.2185300  94.4225660  28.8545210  14.7103760  95.5712460  29.7092150
  12.8887280  89.8769340  32.5326960  13.7657460  89.8852740  32.9160960
  12.9008120  89.1400180  31.9219310  14.3350550  93.7298880  23.4214980
  14.8588030  93.2361530  22.7905150  14.9209970  93.8649240  24.1662550
  14.5140270  93.8138750  26.9434530  13.5642980  93.7802290  27.0579520
  14.6953280  94.7238860  26.7084300  13.8250520  92.9872230  19.3607390
  14.3209640  92.7543100  20.1456270  13.6266590  92.1484070  18.9445030
  15.2537680  91.6233180  21.8945070  15.1436960  91.4689220  22.8327340
  16.0145270  91.0954120  21.6520480  13.6003400  87.5627310  28.3528070
  14.2375620  88.1761450  28.7187260  13.7478290  87.5987970  27.4077300
  16.1427950  89.4541100  15.1351210  17.0677260  89.3222280  14.9269500
  16.1203740  89.5333920  16.0887660  16.2166440  90.2251760  17.7607920
  15.4217940  90.1596880  18.2900830  16.4209720  91.1602400  17.7493270
  13.1584860 104.2643310  21.7546310  13.7543930 103.9427880  21.0780730
  13.4163010 103.7915130  22.5459580   4.7653460 102.2520810  27.5046660
   4.5244820 102.5195370  26.6177180   5.7056100 102.4226540  27.5597520
   6.9707880  88.7153500  31.2603170   6.9096770  89.3075330  32.0098580
   7.9108260  88.6079460  31.1153430   9.6082440  88.3723560  30.8995460
  10.2222850  88.6902850  30.2376540  10.1532000  87.8872150  31.5191320
  16.0257620 104.2715190  28.3057300  15.5315900 104.6684060  27.5884430
  15.4170910 103.6464400  28.6994580  10.3490480  86.9355700  27.2264750
   9.4750320  87.2690810  27.0237680  10.2401230  86.4628880  28.0516620
  11.2562460  89.1426570  28.6106470  10.9275820  88.3278330  28.2308200
  12.2044760  89.0996380  28.4872160  13.7097070 104.9138610  25.5844040
  13.2500040 105.6654420  25.2102060  13.0809530 104.1945080  25.5258840
   4.1392790 103.2226850  24.7592170   4.6557810 102.6114210  24.2340430
   4.7890170 103.7255630  25.2503180   6.8788290 104.1135340  25.5861150
   7.1666100 103.8589640  24.7094160   7.3911510 103.5612700  26.1766720
   8.0965300  87.8525540  26.1657660   7.3137090  88.3271040  26.4454420
   7.8028230  86.9480370  26.0570840  12.6486370  88.5548640  24.2106750
  13.0894460  88.4993740  23.3628350  12.3793960  89.4706650  24.2816930
  14.5124940  88.1863880  22.2215570  14.4513340  87.2425100  22.0746590
  15.2916970  88.2943970  22.7669030   5.9819520  90.2712290  21.6773690
   5.1694030  89.8969180  21.3369570   6.4861160  89.5157370  21.9794880
  10.4844500  86.9354740  22.9156760  11.0873870  87.5074950  23.3905280
   9.7437490  87.4994180  22.6930660  13.6279100  87.3376300  18.1897040
  13.8229730  88.2359750  18.4564470  12.8408970  87.1063380  18.6829990
   1.8130860  88.6837070  17.2273350   2.3423620  87.8966870  17.0981300
   2.4459180  89.3628260  17.4608880   4.0068700  88.4212210  20.2818740
   3.3771440  87.7199520  20.4488870   3.4673840  89.1816340  20.0651900
   6.9460650 105.0351440  32.9529350   7.8727960 104.7995710  32.9965310
   6.9311080 105.8623440  32.4715380  15.1805710 104.5777010  19.9503600
  15.3557900 103.8914750  19.3064520  14.4827280 105.1024060  19.5580270
   4.1324260  87.6996190  32.7171230   3.8508530  88.2029790  31.9532050
   4.5143960  86.9017940  32.3513360   3.0233360 104.9671850  17.5038910
   3.7552180 104.6831130  16.9562800   3.2827030 104.7285130  18.3938290
   2.1848150 101.0836580  17.5085240   1.5557030 101.5521680  18.0571070
   2.2995980 100.2385800  17.9431430  10.7339720  87.1149770  33.2951700
  10.6205170  87.4344380  34.1903220  11.5509460  87.5162280  32.9988980
  13.5138210 104.2621300  32.7770390  14.3063530 103.7670530  32.5696350
  13.8071360 104.9411440  33.3846000   9.6397870  95.1342240   3.6586440
   9.5591920  94.2196850   3.3878150   9.2262290  95.6309310   2.9526150
   7.7715910  96.9121260   5.5395710   6.9958010  96.4321700   5.8294280
   8.4228840  96.2326910   5.3651870  11.7923340 101.3181450   4.3194840
  11.3304870 100.5468690   4.6482010  12.6048890 101.3447520   4.8247290
   1.7683000 101.2581160   6.6129490   2.0711040 100.3678900   6.4339710
   2.5126590 101.8151380   6.3851740   8.0186650 103.6039460   3.9398830
   7.3998090 104.0596960   3.3693270   8.8738430 103.7590920   3.5388530
   7.2124900  99.5878450   5.5465870   7.1433180  98.6468390   5.3855000
   7.9744760  99.6779860   6.1188440   8.2430070  92.3948830   5.7734800
   8.6194890  91.5220710   5.6608470   8.1449580  92.7307530   4.8825240
  12.0254190  89.8899270   2.7063140  12.8463810  89.3995840   2.7488620
  12.0588270  90.4796930   3.4594980   4.2142810  93.7360830   5.5677420
   4.7221030  94.2341800   6.2082440   4.7456050  92.9596030   5.3916780
  16.3153740  91.9066020   9.2706770  15.6105910  92.2947730   8.7521880
  16.5811660  92.6016310   9.8727700   2.4978910  88.3759390   9.8340840
   2.4997350  88.8931780   9.0286740   1.6683220  87.8989570   9.8110770
   3.7481760  98.0154570   8.0114340   3.4151140  98.6423490   8.6535410
   3.9248440  98.5416450   7.2316010  12.2615670  91.8299650   5.4790680
  11.5571240  92.1184540   6.0593790  12.6227830  92.6399760   5.1190240
   2.1794240  90.0869350   7.8411290   2.5211050  90.9311400   7.5465160
   1.2410050  90.2353090   7.9576630   2.9600860  99.9835370   9.8263520
   3.5774860 100.6586450   9.5447970   2.0993980 100.3923350   9.7351020
  13.8778450 101.4474780   7.7418160  13.1941970 102.1173890   7.7334830
  14.4172740 101.6455430   6.9763020  15.3302590  91.2754440   5.8699890
  14.3827500  91.3093420   6.0015320  15.6552580  92.0893390   6.2549250
   5.8622130  87.5751620   4.1655880   6.1697110  87.0198510   3.4491380
   4.9322830  87.7096080   3.9828870  11.4137190 103.2918910   6.4563340
  11.4264350 102.8881200   5.5885600  10.8612410 104.0666200   6.3524770
  10.8122630  98.1948750   7.7845950  11.2291420  97.9808860   6.9499410
  11.5362450  98.4521540   8.3554570  14.7584730  96.5935970   7.8762190
  13.9303360  96.6629060   7.4012320  15.3535210  97.1790280   7.4078020
  11.7226740  93.3805290   8.8217060  11.3097920  94.2059000   9.0757050
  10.9902690  92.7950330   8.6293420   3.8559530  96.1665190   3.6835730
   3.4516530  95.4542440   3.1881630   3.9422650  95.8218430   4.5723770
   4.3241230  99.8532750   5.8474940   4.0269520  99.2478220   5.1682720
   5.2741050  99.8910060   5.7364300   2.5688150  92.9408400   7.4634770
   3.1202740  93.0503740   6.6888020   3.0831660  93.3146000   8.1790000
  12.4126840 103.4264620   9.5098040  11.9357400 104.2336810   9.3170650
  11.7288630 102.7742950   9.6624250   3.4159660  99.5914440  12.4982740
   2.5188190  99.8154410  12.7456140   3.4412530  99.7149380  11.5494140
   2.2430880  96.4627760  11.0740110   2.1038650  97.3350560  11.4427510
   1.3612240  96.1200570  10.9288050   8.5660260 101.3803630   2.3805240
   9.0056170 102.1227960   1.9660630   8.5047150 101.6230200   3.3044200
   4.0411230 102.4049460  13.2825260   4.0126660 102.8092410  12.4153690
   3.8776200 101.4759820  13.1196860  15.9926050 103.1876560  14.5789430
  16.4685770 103.6659450  15.2578510  16.6133210 103.1194050  13.8534930
  15.3959300 100.3789410  11.7389440  15.5222360 100.1401290  10.8206620
  15.4380680  99.5473950  12.2111520   9.2576040 104.0817410  10.3084250
   9.7720710 103.9925420  11.1106680   8.4145120 104.4277110  10.6012160
  10.5006500 103.5023020   2.3714740  10.9563450 102.7212400   2.6853360
  10.8399020 104.2129840   2.9155920  15.2483310  92.4321870  12.7039180
  14.6327580  92.9401540  12.1754640  14.9279730  91.5320200  12.6465120
   3.0227820  88.4045240   4.5666050   2.5795970  89.1854780   4.2350570
   3.5812810  88.7275130   5.2736990   7.3097630  91.2713760  10.1701370
   6.8477000  91.4796780  10.9821310   6.9075740  90.4573110   9.8672040
  12.3102140  92.4922710  11.2998030  11.4595730  92.1928460  11.6207100
  12.1503930  92.7364720  10.3881850   9.4051850  93.9924460  13.3996820
   9.7305260  93.1588210  13.0599050  10.1932180  94.5152980  13.5475150
   5.0603720  88.9492570   6.4255650   5.3576050  89.8555400   6.3447670
   5.6089280  88.4611350   5.8115220   2.8142040  93.5278810   2.2947300
   2.5882960  93.3115980   3.1993920   2.0334570  93.9607270   1.9493270
   5.2541250  94.4264390  12.9607570   5.1584850  93.4859120  12.8107970
   6.0973230  94.6479460  12.5655640   8.6504670  92.1705720   2.9241230
   9.0434240  92.4877920   2.1109920   9.0121520  91.2917600   3.0385750
   6.9596840  90.9213030  14.1838090   6.2695160  90.7285230  14.8184180
   7.7029140  91.2047670  14.7162390   9.2359810  94.7611470   7.0192010
   8.5040930  95.2698280   7.3682110   8.8384150  93.9441450   6.7180790
   5.6737200  91.4365670   5.4244500   5.6773260  90.9955620   4.5749040
   6.5688320  91.7583000   5.5316320   9.6985720  90.2145150   6.4314950
   9.7158460  90.6653800   7.2756800   9.4501300  89.3150790   6.6448390
  13.1256470  87.6277330  12.2701330  13.4502240  86.8966990  12.7959310
  13.1612980  87.3090970  11.3682320   5.9745170  95.4967450   7.1709910
   6.3415300  95.0226020   7.9171250   5.7850230  96.3709020   7.5118250
   3.7644540  94.5376090   9.4894120   3.4601610  95.4168070   9.7144480
   4.7191000  94.5975880   9.5251560  13.0514310  97.7402440   5.8787360
  13.7713430  98.2357730   5.4883470  12.8496130  97.0620330   5.2341230
   8.4333110  97.8111500  11.7656360   8.3670420  96.8907170  11.5113950
   7.8038250  97.9086940  12.4801000   2.3363730  98.4117460   3.7239780
   2.8542400  97.6085720   3.6696670   1.8847750  98.3496600   4.5656610
   3.0221390  95.8363070  13.5205030   2.7221530  95.9820250  12.6232850
   3.7932630  95.2768360  13.4278420   8.3649840 100.6332070  11.5160160
   8.3794380  99.7013030  11.2979070   7.6574940 100.7191830  12.1549930
  14.5761050  97.2739410  10.8628740  13.8509240  97.8668190  10.6658130
  15.1036510  97.2662950  10.0642110  10.1060640  98.9999580   4.3612590
  10.4584460  98.4027710   3.7013960   9.2222970  98.6743810   4.5320840
   6.1923920  99.7597270   1.7683000   6.8795050 100.3066480   2.1490590
   5.4056340 100.3038000   1.8032610   7.7983740 102.2749640   8.6100660
   8.4425960 102.4809020   9.2874080   8.1613180 101.5138040   8.1571510
   9.0715820 100.2781990   7.3278110   9.7138050  99.5775150   7.4410280
   9.5965170 101.0580430   7.1475000  10.8453440 101.0776890  10.5314170
  11.1809680 101.6643580  11.2092090   9.9253780 100.9469600  10.7611960
   6.6742020 101.1268220  13.7002230   6.3538890 100.4077460  14.2447920
   6.0000380 101.8023290  13.7738290   9.8895620  91.3594380   9.0639030
  10.2576440  90.5389590   9.3918600   9.0293820  91.4196270   9.4794680
   6.8497610  94.0133970   9.2877000   7.3482860  94.4879790   9.9528850
   6.9920560  93.0897490   9.4947030   9.2557110  89.3187930   2.7280260
   9.1324890  89.3374060   1.7789770  10.2041670  89.3666870   2.8478660
  14.0564470  90.2301930  10.1305390  13.5538070  90.9707330  10.4699200
  14.8721130  90.6185930   9.8142180  12.3486480  95.4735110   3.5766750
  11.4076620  95.4885340   3.7514440  12.6630550  94.6871070   4.0227050
  14.3512060 102.6443960   5.2521010  14.4759480 103.4675130   5.7244820
  15.2177620 102.4334690   4.9045160   1.8229590 104.7375170   4.9238140
   2.5592070 104.1890630   5.1946710   2.2070510 105.6031180   4.7844130
   9.6652500 100.0301110  14.0599130   9.0590660 100.0532710  13.3194880
   9.3606610  99.2984150  14.5966380  11.0952870 103.7581400  12.6708540
  12.0474620 103.6739420  12.6208780  10.9481090 104.4223110  13.3442330
   5.6023620  97.8165690  12.5895290   4.8369290  98.3850690  12.5049960
   5.7839580  97.5241900  11.6963520  12.7446970  99.5471020  13.1470310
  13.4856440  99.8846780  12.6437770  11.9819650  99.7163080  12.5940080
   2.5214570  93.1316390  11.9184330   1.9911030  92.6407340  11.2907670
   3.1902640  93.5600590  11.3842260  11.4192630  97.5985850  11.6825520
  11.8333650  97.7530930  12.5315940  10.4843630  97.7241070  11.8451300
  11.8914800  94.9382010  13.6864670  12.4735570  94.1834330  13.5985150
  12.0676570  95.4689450  12.9096150   3.0086870  90.0978760  11.9981620
   2.9143740  89.4799510  11.2732490   2.4284260  90.8245050  11.7711530
   5.7748310  88.6552000   9.0309010   5.3265610  88.6776260   8.1854560
   5.1413510  88.2571020   9.6279310   6.1807860  97.5506330   9.6521450
   6.5995970  98.3939060   9.4797690   5.2616490  97.6878370   9.4228230
   8.5171760  95.2822510  11.0359290   8.6367970  94.6863650  11.7754130
   9.3765760  95.3192200  10.6160590  10.8559660  95.8359700   9.6121800
  10.3294880  96.3602320   9.0086940  11.1991000  96.4687090  10.2431530
   4.0315280 103.8559340  10.7679180   3.4936370 104.5805400  10.4487880
   4.2849240 103.3789680   9.9776520   5.2840530  91.8243860  12.2935110
   5.8740220  91.5159710  12.9812930   4.4660770  91.3523610  12.4495010
  10.1033960  91.4409670  12.5268130   9.4149480  90.7791210  12.4618120
  10.8239980  90.9947940  12.9716590   6.8877490 105.0910550  11.0265830
   6.8136190 105.9945690  11.3338200   5.9856330 104.7722450  10.9987900
  14.4157170 102.7872730  11.3558390  13.8159160 102.8465290  10.6122310
  14.5451070 101.8477710  11.4855240  16.1175050  98.1288130   4.0404230
  16.4883880  97.3455450   3.6340200  16.7576980  98.8177230   3.8621530
  13.1008810  99.5124710   9.4534550  12.2868650  99.9421870   9.7160340
  13.5083010 100.1243120   8.8403600  14.4499210  94.6512910  10.9803770
  14.2185300  94.4225660  10.0801720  14.7103760  95.5712460  10.9348660
  12.8887280  89.8769340  13.7583470  13.7657460  89.8852740  14.1417470
  12.9008120  89.1400180  13.1475820  14.3350550  93.7298880   4.6471490
  14.8588030  93.2361530   4.0161660  14.9209970  93.8649240   5.3919060
  14.5140270  93.8138750   8.1691040  13.5642980  93.7802290   8.2836030
  14.6953280  94.7238860   7.9340810  15.2537680  91.6233180   3.1201580
  15.1436960  91.4689220   4.0583850  16.0145270  91.0954120   2.8776990
  13.6003400  87.5627310   9.5784580  14.2375620  88.1761450   9.9443770
  13.7478290  87.5987970   8.6333810  13.1584860 104.2643310   2.9802820
  13.7543930 103.9427880   2.3037240  13.4163010 103.7915130   3.7716090
   4.7653460 102.2520810   8.7303170   4.5244820 102.5195370   7.8433690
   5.7056100 102.4226540   8.7854030   6.9707880  88.7153500  12.4859680
   6.9096770  89.3075330  13.2355090   7.9108260  88.6079460  12.3409940
   9.6082440  88.3723560  12.1251970  10.2222850  88.6902850  11.4633050
  10.1532000  87.8872150  12.7447830  16.0257620 104.2715190   9.5313810
  15.5315900 104.6684060   8.8140940  15.4170910 103.6464400   9.9251090
  10.3490480  86.9355700   8.4521260   9.4750320  87.2690810   8.2494190
  10.2401230  86.4628880   9.2773130  11.2562460  89.1426570   9.8362980
  10.9275820  88.3278330   9.4564710  12.2044760  89.0996380   9.7128670
  13.7097070 104.9138610   6.8100550  13.2500040 105.6654420   6.4358570
  13.0809530 104.1945080   6.7515350   4.1392790 103.2226850   5.9848680
   4.6557810 102.6114210   5.4596940   4.7890170 103.7255630   6.4759690
   6.8788290 104.1135340   6.8117660   7.1666100 103.8589640   5.9350670
   7.3911510 103.5612700   7.4023230   8.0965300  87.8525540   7.3914170
   7.3137090  88.3271040   7.6710930   7.8028230  86.9480370   7.2827350
  12.6486370  88.5548640   5.4363260  13.0894460  88.4993740   4.5884860
  12.3793960  89.4706650   5.5073440  14.5124940  88.1863880   3.4472080
  14.4513340  87.2425100   3.3003100  15.2916970  88.2943970   3.9925540
   5.9819520  90.2712290   2.9030200   5.1694030  89.8969180   2.5626080
   6.4861160  89.5157370   3.2051390  10.4844500  86.9354740   4.1413270
  11.0873870  87.5074950   4.6161790   9.7437490  87.4994180   3.9187170
   6.9460650 105.0351440  14.1785860   7.8727960 104.7995710  14.2221820
   6.9311080 105.8623440  13.6971890   4.1324260  87.6996190  13.9427740
   3.8508530  88.2029790  13.1788560   4.5143960  86.9017940  13.5769870
  10.7339720  87.1149770  14.5208210  10.6205170  87.4344380  15.4159730
  11.5509460  87.5162280  14.2245490  13.5138210 104.2621300  14.0026900
  14.3063530 103.7670530  13.7952860  13.8071360 104.9411440  14.6102510
   9.6397870  76.3598750  97.5303890   9.5591920  75.4453360  97.2595600
   9.2262290  76.8565820  96.8243600   7.7715910  78.1377770  99.4113160
   6.9958010  77.6578210  99.7011730   8.4228840  77.4583420  99.2369320
  11.7923340  82.5437960  98.1912290  11.3304870  81.7725200  98.5199460
  12.6048890  82.5704030  98.6964740   1.7683000  82.4837670 100.4846940
   2.0711040  81.5935410 100.3057160   2.5126590  83.0407890 100.2569190
   8.0186650  84.8295970  97.8116280   7.3998090  85.2853470  97.2410720
   8.8738430  84.9847430  97.4105980   7.2124900  80.8134960  99.4183320
   7.1433180  79.8724900  99.2572450   7.9744760  80.9036370  99.9905890
   8.2430070  73.6205340  99.6452250   8.6194890  72.7477220  99.5325920
   8.1449580  73.9564040  98.7542690   2.3735080  71.9930970  95.1069690
   2.4801830  72.8934700  95.4138450   1.4627440  71.9448940  94.8164340
  12.0254190  71.1155780  96.5780590  12.8463810  70.6252350  96.6206070
  12.0588270  71.7053440  97.3312430   4.2142810  74.9617340  99.4394870
   4.7221030  75.4598310 100.0799890   4.7456050  74.1852540  99.2634230
   8.8850000  79.7135210  95.2048190   8.2667270  80.1784660  94.6410910
   9.3973250  80.4062690  95.6217700   3.7481760  79.2411080 101.8831790
   3.4151140  79.8680000 102.5252860   3.9248440  79.7672960 101.1033460
  12.2615670  73.0556160  99.3508130  11.5571240  73.3441050  99.9311240
  12.6227830  73.8656270  98.9907690   2.1794240  71.3125860 101.7128740
   2.5211050  72.1567910 101.4182610   1.2410050  71.4609600 101.8294080
  13.8778450  82.6731290 101.6135610  13.1941970  83.3430400 101.6052280
  14.4172740  82.8711940 100.8480470  15.3302590  72.5010950  99.7417340
  14.3827500  72.5349930  99.8732770  15.6552580  73.3149900 100.1266700
   5.8622130  68.8008130  98.0373330   6.1697110  68.2455020  97.3208830
   4.9322830  68.9352590  97.8546320  11.4137190  84.5175420 100.3280790
  11.4264350  84.1137710  99.4603050  10.8612410  85.2922710 100.2242220
  12.7082610  81.2391640  95.4170960  12.5978940  80.2965970  95.5420380
  12.7050860  81.6007280  96.3033720  10.8122630  79.4205260 101.6563400
  11.2291420  79.2065370 100.8216860  11.5362450  79.6778050 102.2272020
   8.2502890  76.8656960  94.7733450   7.3232170  76.7994340  95.0021920
   8.4027710  77.8037090  94.6588690   8.2371970  73.1373960  91.7700610
   7.2975640  73.2987920  91.8553070   8.5555230  73.8559640  91.2236600
  14.7584730  77.8192480 101.7479640  13.9303360  77.8885570 101.2729770
  15.3535210  78.4046790 101.2795470  12.2800180  78.4277260  95.2768700
  11.6612600  78.0896810  94.6295000  12.2624630  77.7837020  95.9847890
   3.8559530  77.3921700  97.5553180   3.4516530  76.6798950  97.0599080
   3.9422650  77.0474940  98.4441220   4.3241230  81.0789260  99.7192390
   4.0269520  80.4734730  99.0400170   5.2741050  81.1166570  99.6081750
   2.5688150  74.1664910 101.3352220   3.1202740  74.2760250 100.5605470
   3.0831660  74.5402510 102.0507450  10.4564880  77.6664070  92.2841450
  10.8958160  76.8286500  92.1379270  11.1693300  78.2993470  92.3705590
   8.5660260  82.6060140  96.2522690   9.0056170  83.3484470  95.8378080
   8.5047150  82.8486710  97.1761650  14.0382020  68.9206880  90.5982490
  13.7254680  69.0133710  91.4981560  14.7994490  69.4987910  90.5479920
  11.2330440  85.5929260  93.6085700  11.0731580  85.3032200  94.5067530
  11.0677150  84.8169390  93.0730930   3.7118820  85.3727790  95.3857320
   3.5361300  84.4563330  95.1725120   2.8574560  85.7315080  95.6255120
  10.9356570  83.1016820  92.1683700  10.2421730  83.0994110  91.5085980
  11.6779430  82.6776140  91.7377870  10.5006500  84.7279530  96.2432190
  10.9563450  83.9468910  96.5570810  10.8399020  85.4386350  96.7873370
   3.0227820  69.6301750  98.4383500   2.5795970  70.4111290  98.1068020
   3.5812810  69.9531640  99.1454440   6.1386640  69.2512450  93.3189330
   5.5140820  69.2472320  94.0442640   6.0516760  68.3843410  92.9225300
   5.0603720  70.1749080 100.2973100   5.3576050  71.0811910 100.2165120
   5.6089280  69.6867860  99.6832670   2.8142040  74.7535320  96.1664750
   2.5882960  74.5372490  97.0711370   2.0334570  75.1863780  95.8210720
  10.0439800  74.7598690  94.7655400   9.4448690  75.4834490  94.5819020
  10.5919410  74.6975470  93.9831850   8.6504670  73.3962230  96.7958680
   9.0434240  73.7134430  95.9827370   9.0121520  72.5174110  96.9103200
   9.2359810  75.9867980 100.8909460   8.5040930  76.4954790 101.2399560
   8.8384150  75.1697960 100.5898240   5.6737200  72.6622180  99.2961950
   5.6773260  72.2212130  98.4466490   6.5688320  72.9839510  99.4033770
   5.7357350  73.6634260  92.2868710   5.8570170  73.6220740  93.2354530
   5.3505860  74.5258410  92.1315440   9.6985720  71.4401660 100.3032400
   9.7158460  71.8910310 101.1474250   9.4501300  70.5407300 100.5165840
   4.7478850  75.9735400  91.6852010   4.1795750  75.5253650  91.0587920
   5.4567850  76.3328180  91.1517160   5.9745170  76.7223960 101.0427360
   6.3415300  76.2482530 101.7888700   5.7850230  77.5965530 101.3835700
   2.2926330  79.9693590  93.9578420   1.5188590  79.4291210  93.7977140
   3.0220960  79.4500200  93.6196180  13.0514310  78.9658950  99.7504810
  13.7713430  79.4614240  99.3600920  12.8496130  78.2876840  99.1058680
   8.5124250  70.3596910  93.8934200   7.6988860  69.8610080  93.8179510
   8.3186200  71.1995160  93.4770550  11.2272640  74.7316560  92.1896360
  12.1152260  75.0433790  92.0147700  11.1977730  73.8588810  91.7976940
   2.3363730  79.6373970  97.5957230   2.8542400  78.8342230  97.5414120
   1.8847750  79.5753110  98.4374060   7.2233230  80.9040250  92.8684530
   7.5648930  81.6482480  92.3727850   6.3945940  81.2171370  93.2309360
  13.4986910  76.0428400  91.6576220  13.4150630  76.4742620  90.8072660
  14.2181100  76.5026750  92.0903040  14.5274160  82.8970660  94.3858350
  13.8850320  82.2426280  94.6602070  14.1404820  83.3025750  93.6099020
  10.1060640  80.2256090  98.2330040  10.4584460  79.6284220  97.5731410
   9.2222970  79.9000320  98.4038290   6.1923920  80.9853780  95.6400450
   6.8795050  81.5322990  96.0208040   5.4056340  81.5294510  95.6750060
   5.4951130  77.9899810  95.2525810   5.9513910  78.8005060  95.4786000
   5.1439340  77.6722950  96.0844300   9.0715820  81.5038500 101.1995560
   9.7138050  80.8031660 101.3127730   9.5965170  82.2836940 101.0192450
  12.9171540  81.7887120  90.9234700  12.6909120  81.0717560  91.5159340
  12.5267740  81.5399560  90.0856450  12.4987790  79.7059060  92.5848860
  12.2109490  80.1671750  93.3726740  13.2939960  79.2456830  92.8533080
   4.7156190  83.1985180  92.5152830   4.7066290  83.9314870  91.8997340
   3.7954550  82.9516760  92.6079790  13.2557650  71.5407830  93.7444040
  12.6270810  71.6453500  93.0302270  12.7609570  71.7604610  94.5337920
   7.7015790  83.2613420  91.1778020   7.8027770  83.0577410  90.2480000
   6.8017530  83.0071700  91.3825800   5.2241680  73.8193780  95.1601920
   4.5157830  74.2880120  95.6015530   5.5086160  73.1615790  95.7947110
   9.2557110  70.5444440  96.5997710   9.1324890  70.5630570  95.6507220
  10.2041670  70.5923380  96.7196110   6.3433900  85.7799740  95.8725690
   6.5975400  85.7421130  94.9505060   5.3946380  85.6533070  95.8653940
   3.4276700  72.1278860  92.5352630   4.2767230  72.5649010  92.4692820
   3.0607970  72.4399120  93.3624690  12.3486480  76.6991620  97.4484200
  11.4076620  76.7141850  97.6231890  12.6630550  75.9127580  97.8944500
   2.3268120  78.3811220  91.0088160   3.0931390  78.2692580  91.5713590
   2.4042810  77.6849190  90.3564930  14.3512060  83.8700470  99.1238460
  14.4759480  84.6931640  99.5962270  15.2177620  83.6591200  98.7762610
   1.8229590  85.9631680  98.7955590   2.5592070  85.4147140  99.0664160
   2.2070510  86.8287690  98.6561580   4.9331900  85.1361990  90.6181160
   5.7260510  85.4250820  90.1662950   4.4136250  84.7054160  89.9393640
  13.9862070  84.3632120  92.0417900  13.7003580  83.9497260  91.2272080
  13.7881620  85.2919830  91.9218420   5.4509300  80.3565400  90.4823510
   5.3459940  79.7417750  91.2084890   5.2833520  79.8331290  89.6986520
   8.6912030  79.4185430  91.0865500   8.1422130  79.8654730  91.7308240
   9.3131290  78.9134680  91.6103170   4.3587150  78.3776350  92.9830800
   4.7803570  78.2116220  93.8262190   4.4837990  77.5676580  92.4885940
   6.8714790  77.4013960  90.2307900   7.3920450  76.6862980  89.8649050
   7.5183190  78.0399830  90.5308410   3.2546050  74.4509580  89.9288960
   3.0535110  73.5876940  90.2902300   3.0838100  74.3642940  88.9910560
  10.7334360  69.2617810  92.4575840  11.0136650  68.4185710  92.8135260
   9.9600090  69.4940920  92.9714590   2.0528850  71.5510200  89.9166840
   2.3554750  71.5577630  89.0085990   2.7923440  71.2008060  90.4134500
   5.2713780  70.4944820  90.9023040   4.9235780  69.8168810  90.3225490
   5.4726550  70.0334330  91.7166430   7.4362820  85.4825570  92.5209640
   8.3313610  85.8210540  92.5428400   7.4680450  84.7604980  91.8933920
   2.8866700  81.9750660  95.8618870   2.5862240  81.8515630  96.7622780
   2.7804190  81.1159250  95.4534600  15.6558620  81.7547060  90.5645550
  14.8251580  81.8223710  91.0352780  15.8330450  82.6451180  90.2612410
  15.1115080  78.4994540  93.0679750  15.8733990  79.0691190  93.1739440
  15.1269450  77.9321740  93.8388060  16.1175050  79.3544640  97.9121680
  16.4883880  78.5711960  97.5057650  16.7576980  80.0433740  97.7338980
  15.1634250  78.7928910  90.2252270  15.4383090  79.7007790  90.0971490
  14.9744990  78.7291440  91.1614260  11.5609860  71.8173760  91.5205900
  11.9794740  71.6304740  90.6802560  11.2545920  70.9652810  91.8308830
  15.0599590  76.7297900  95.2181700  14.6843190  75.9625830  94.7862990
  14.3302710  77.1120600  95.7056630  14.3350550  74.9555390  98.5188940
  14.8588030  74.4618040  97.8879110  14.9209970  75.0905750  99.2636510
  14.5140270  75.0395260 102.0408490  13.5642980  75.0058800 102.1553480
  14.6953280  75.9495370 101.8058260  13.8250520  74.2128740  94.4581350
  14.3209640  73.9799610  95.2430230  13.6266590  73.3740580  94.0418990
  15.2537680  72.8489690  96.9919030  15.1436960  72.6945730  97.9301300
  16.0145270  72.3210630  96.7494440  16.1427950  70.6797610  90.2325170
  17.0677260  70.5478790  90.0243460  16.1203740  70.7590430  91.1861620
  16.2166440  71.4508270  92.8581880  15.4217940  71.3853390  93.3874790
  16.4209720  72.3858910  92.8467230  13.1584860  85.4899820  96.8520270
  13.7543930  85.1684390  96.1754690  13.4163010  85.0171640  97.6433540
   4.7653460  83.4777320 102.6020620   4.5244820  83.7451880 101.7151140
   5.7056100  83.6483050 102.6571480  13.7097070  86.1395120 100.6818000
  13.2500040  86.8910930 100.3076020  13.0809530  85.4201590 100.6232800
   4.1392790  84.4483360  99.8566130   4.6557810  83.8370720  99.3314390
   4.7890170  84.9512140 100.3477140   6.8788290  85.3391850 100.6835110
   7.1666100  85.0846150  99.8068120   7.3911510  84.7869210 101.2740680
   8.0965300  69.0782050 101.2631620   7.3137090  69.5527550 101.5428380
   7.8028230  68.1736880 101.1544800  12.6486370  69.7805150  99.3080710
  13.0894460  69.7250250  98.4602310  12.3793960  70.6963160  99.3790890
  14.5124940  69.4120390  97.3189530  14.4513340  68.4681610  97.1720550
  15.2916970  69.5200480  97.8642990   5.9819520  71.4968800  96.7747650
   5.1694030  71.1225690  96.4343530   6.4861160  70.7413880  97.0768840
  10.4844500  68.1611250  98.0130720  11.0873870  68.7331460  98.4879240
   9.7437490  68.7250690  97.7904620  13.6279100  68.5632810  93.2871000
  13.8229730  69.4616260  93.5538430  12.8408970  68.3319890  93.7803950
   1.8130860  69.9093580  92.3247310   2.3423620  69.1223380  92.1955260
   2.4459180  70.5884770  92.5582840   4.0068700  69.6468720  95.3792700
   3.3771440  68.9456030  95.5462830   3.4673840  70.4072850  95.1625860
  15.1805710  85.8033520  95.0477560  15.3557900  85.1171260  94.4038480
  14.4827280  86.3280570  94.6554230   3.0233360  86.1928360  92.6012870
   3.7552180  85.9087640  92.0536760   3.2827030  85.9541640  93.4912250
   2.1848150  82.3093090  92.6059200   1.5557030  82.7778190  93.1545030
   2.2995980  81.4642310  93.0405390   9.6397870  76.3598750  78.7560400
   9.5591920  75.4453360  78.4852110   9.2262290  76.8565820  78.0500110
   7.7715910  78.1377770  80.6369670   6.9958010  77.6578210  80.9268240
   8.4228840  77.4583420  80.4625830  11.7923340  82.5437960  79.4168800
  11.3304870  81.7725200  79.7455970  12.6048890  82.5704030  79.9221250
   1.7683000  82.4837670  81.7103450   2.0711040  81.5935410  81.5313670
   2.5126590  83.0407890  81.4825700   8.0186650  84.8295970  79.0372790
   7.3998090  85.2853470  78.4667230   8.8738430  84.9847430  78.6362490
   7.2124900  80.8134960  80.6439830   7.1433180  79.8724900  80.4828960
   7.9744760  80.9036370  81.2162400   8.2430070  73.6205340  80.8708760
   8.6194890  72.7477220  80.7582430   8.1449580  73.9564040  79.9799200
   2.3735080  71.9930970  76.3326200   2.4801830  72.8934700  76.6394960
   1.4627440  71.9448940  76.0420850  12.0254190  71.1155780  77.8037100
  12.8463810  70.6252350  77.8462580  12.0588270  71.7053440  78.5568940
   4.2142810  74.9617340  80.6651380   4.7221030  75.4598310  81.3056400
   4.7456050  74.1852540  80.4890740  16.3153740  73.1322530  84.3680730
  15.6105910  73.5204240  83.8495840  16.5811660  73.8272820  84.9701660
   2.4978910  69.6015900  84.9314800   2.4997350  70.1188290  84.1260700
   1.6683220  69.1246080  84.9084730   8.8850000  79.7135210  76.4304700
   8.2667270  80.1784660  75.8667420   9.3973250  80.4062690  76.8474210
   3.7481760  79.2411080  83.1088300   3.4151140  79.8680000  83.7509370
   3.9248440  79.7672960  82.3289970  12.2615670  73.0556160  80.5764640
  11.5571240  73.3441050  81.1567750  12.6227830  73.8656270  80.2164200
   2.1794240  71.3125860  82.9385250   2.5211050  72.1567910  82.6439120
   1.2410050  71.4609600  83.0550590   2.9600860  81.2091880  84.9237480
   3.5774860  81.8842960  84.6421930   2.0993980  81.6179860  84.8324980
  13.8778450  82.6731290  82.8392120  13.1941970  83.3430400  82.8308790
  14.4172740  82.8711940  82.0736980  15.3302590  72.5010950  80.9673850
  14.3827500  72.5349930  81.0989280  15.6552580  73.3149900  81.3523210
   5.8622130  68.8008130  79.2629840   6.1697110  68.2455020  78.5465340
   4.9322830  68.9352590  79.0802830  11.4137190  84.5175420  81.5537300
  11.4264350  84.1137710  80.6859560  10.8612410  85.2922710  81.4498730
  12.7082610  81.2391640  76.6427470  12.5978940  80.2965970  76.7676890
  12.7050860  81.6007280  77.5290230  10.8122630  79.4205260  82.8819910
  11.2291420  79.2065370  82.0473370  11.5362450  79.6778050  83.4528530
   8.2502890  76.8656960  75.9989960   7.3232170  76.7994340  76.2278430
   8.4027710  77.8037090  75.8845200   8.2371970  73.1373960  72.9957120
   7.2975640  73.2987920  73.0809580   8.5555230  73.8559640  72.4493110
  14.7584730  77.8192480  82.9736150  13.9303360  77.8885570  82.4986280
  15.3535210  78.4046790  82.5051980  12.2800180  78.4277260  76.5025210
  11.6612600  78.0896810  75.8551510  12.2624630  77.7837020  77.2104400
  11.7226740  74.6061800  83.9191020  11.3097920  75.4315510  84.1731010
  10.9902690  74.0206840  83.7267380   3.8559530  77.3921700  78.7809690
   3.4516530  76.6798950  78.2855590   3.9422650  77.0474940  79.6697730
   4.3241230  81.0789260  80.9448900   4.0269520  80.4734730  80.2656680
   5.2741050  81.1166570  80.8338260   2.5688150  74.1664910  82.5608730
   3.1202740  74.2760250  81.7861980   3.0831660  74.5402510  83.2763960
  12.4126840  84.6521130  84.6072000  11.9357400  85.4593320  84.4144610
  11.7288630  83.9999460  84.7598210   3.4159660  80.8170950  87.5956700
   2.5188190  81.0410920  87.8430100   3.4412530  80.9405890  86.6468100
  10.4564880  77.6664070  73.5097960  10.8958160  76.8286500  73.3635780
  11.1693300  78.2993470  73.5962100   2.2430880  77.6884270  86.1714070
   2.1038650  78.5607070  86.5401470   1.3612240  77.3457080  86.0262010
   8.5660260  82.6060140  77.4779200   9.0056170  83.3484470  77.0634590
   8.5047150  82.8486710  78.4018160   4.0411230  83.6305970  88.3799220
   4.0126660  84.0348920  87.5127650   3.8776200  82.7016330  88.2170820
  14.0382020  68.9206880  71.8239000  13.7254680  69.0133710  72.7238070
  14.7994490  69.4987910  71.7736430  15.9926050  84.4133070  89.6763390
  16.4685770  84.8915960  90.3552470  16.6133210  84.3450560  88.9508890
  15.3959300  81.6045920  86.8363400  15.5222360  81.3657800  85.9180580
  15.4380680  80.7730460  87.3085480   9.2576040  85.3073920  85.4058210
   9.7720710  85.2181930  86.2080640   8.4145120  85.6533620  85.6986120
  11.2330440  85.5929260  74.8342210  11.0731580  85.3032200  75.7324040
  11.0677150  84.8169390  74.2987440   3.7118820  85.3727790  76.6113830
   3.5361300  84.4563330  76.3981630   2.8574560  85.7315080  76.8511630
  10.9356570  83.1016820  73.3940210  10.2421730  83.0994110  72.7342490
  11.6779430  82.6776140  72.9634380  10.5006500  84.7279530  77.4688700
  10.9563450  83.9468910  77.7827320  10.8399020  85.4386350  78.0129880
  15.2483310  73.6578380  87.8013140  14.6327580  74.1658050  87.2728600
  14.9279730  72.7576710  87.7439080   3.0227820  69.6301750  79.6640010
   2.5795970  70.4111290  79.3324530   3.5812810  69.9531640  80.3710950
   7.3097630  72.4970270  85.2675330   6.8477000  72.7053290  86.0795270
   6.9075740  71.6829620  84.9646000  12.3102140  73.7179220  86.3971990
  11.4595730  73.4184970  86.7181060  12.1503930  73.9621230  85.4855810
   9.4051850  75.2180970  88.4970780   9.7305260  74.3844720  88.1573010
  10.1932180  75.7409490  88.6449110   6.1386640  69.2512450  74.5445840
   5.5140820  69.2472320  75.2699150   6.0516760  68.3843410  74.1481810
   5.0603720  70.1749080  81.5229610   5.3576050  71.0811910  81.4421630
   5.6089280  69.6867860  80.9089180   2.8142040  74.7535320  77.3921260
   2.5882960  74.5372490  78.2967880   2.0334570  75.1863780  77.0467230
  10.0439800  74.7598690  75.9911910   9.4448690  75.4834490  75.8075530
  10.5919410  74.6975470  75.2088360   5.2541250  75.6520900  88.0581530
   5.1584850  74.7115630  87.9081930   6.0973230  75.8735970  87.6629600
   8.6504670  73.3962230  78.0215190   9.0434240  73.7134430  77.2083880
   9.0121520  72.5174110  78.1359710   6.9596840  72.1469540  89.2812050
   6.2695160  71.9541740  89.9158140   7.7029140  72.4304180  89.8136350
   9.2359810  75.9867980  82.1165970   8.5040930  76.4954790  82.4656070
   8.8384150  75.1697960  81.8154750   5.6737200  72.6622180  80.5218460
   5.6773260  72.2212130  79.6723000   6.5688320  72.9839510  80.6290280
   5.7357350  73.6634260  73.5125220   5.8570170  73.6220740  74.4611040
   5.3505860  74.5258410  73.3571950   9.6985720  71.4401660  81.5288910
   9.7158460  71.8910310  82.3730760   9.4501300  70.5407300  81.7422350
   4.7478850  75.9735400  72.9108520   4.1795750  75.5253650  72.2844430
   5.4567850  76.3328180  72.3773670  13.1256470  68.8533840  87.3675290
  13.4502240  68.1223500  87.8933270  13.1612980  68.5347480  86.4656280
   5.9745170  76.7223960  82.2683870   6.3415300  76.2482530  83.0145210
   5.7850230  77.5965530  82.6092210   3.7644540  75.7632600  84.5868080
   3.4601610  76.6424580  84.8118440   4.7191000  75.8232390  84.6225520
   2.2926330  79.9693590  75.1834930   1.5188590  79.4291210  75.0233650
   3.0220960  79.4500200  74.8452690  13.0514310  78.9658950  80.9761320
  13.7713430  79.4614240  80.5857430  12.8496130  78.2876840  80.3315190
   8.5124250  70.3596910  75.1190710   7.6988860  69.8610080  75.0436020
   8.3186200  71.1995160  74.7027060   8.4333110  79.0368010  86.8630320
   8.3670420  78.1163680  86.6087910   7.8038250  79.1343450  87.5774960
  11.2272640  74.7316560  73.4152870  12.1152260  75.0433790  73.2404210
  11.1977730  73.8588810  73.0233450   2.3363730  79.6373970  78.8213740
   2.8542400  78.8342230  78.7670630   1.8847750  79.5753110  79.6630570
   7.2233230  80.9040250  74.0941040   7.5648930  81.6482480  73.5984360
   6.3945940  81.2171370  74.4565870   3.0221390  77.0619580  88.6178990
   2.7221530  77.2076760  87.7206810   3.7932630  76.5024870  88.5252380
   8.3649840  81.8588580  86.6134120   8.3794380  80.9269540  86.3953030
   7.6574940  81.9448340  87.2523890  13.4986910  76.0428400  72.8832730
  13.4150630  76.4742620  72.0329170  14.2181100  76.5026750  73.3159550
  14.5761050  78.4995920  85.9602700  13.8509240  79.0924700  85.7632090
  15.1036510  78.4919460  85.1616070  14.5274160  82.8970660  75.6114860
  13.8850320  82.2426280  75.8858580  14.1404820  83.3025750  74.8355530
  10.1060640  80.2256090  79.4586550  10.4584460  79.6284220  78.7987920
   9.2222970  79.9000320  79.6294800   6.1923920  80.9853780  76.8656960
   6.8795050  81.5322990  77.2464550   5.4056340  81.5294510  76.9006570
   5.4951130  77.9899810  76.4782320   5.9513910  78.8005060  76.7042510
   5.1439340  77.6722950  77.3100810   7.7983740  83.5006150  83.7074620
   8.4425960  83.7065530  84.3848040   8.1613180  82.7394550  83.2545470
   9.0715820  81.5038500  82.4252070   9.7138050  80.8031660  82.5384240
   9.5965170  82.2836940  82.2448960  12.9171540  81.7887120  72.1491210
  12.6909120  81.0717560  72.7415850  12.5267740  81.5399560  71.3112960
  10.8453440  82.3033400  85.6288130  11.1809680  82.8900090  86.3066050
   9.9253780  82.1726110  85.8585920  12.4987790  79.7059060  73.8105370
  12.2109490  80.1671750  74.5983250  13.2939960  79.2456830  74.0789590
   6.6742020  82.3524730  88.7976190   6.3538890  81.6333970  89.3421880
   6.0000380  83.0279800  88.8712250   4.7156190  83.1985180  73.7409340
   4.7066290  83.9314870  73.1253850   3.7954550  82.9516760  73.8336300
   9.8895620  72.5850890  84.1612990  10.2576440  71.7646100  84.4892560
   9.0293820  72.6452780  84.5768640  13.2557650  71.5407830  74.9700550
  12.6270810  71.6453500  74.2558780  12.7609570  71.7604610  75.7594430
   7.7015790  83.2613420  72.4034530   7.8027770  83.0577410  71.4736510
   6.8017530  83.0071700  72.6082310   5.2241680  73.8193780  76.3858430
   4.5157830  74.2880120  76.8272040   5.5086160  73.1615790  77.0203620
   6.8497610  75.2390480  84.3850960   7.3482860  75.7136300  85.0502810
   6.9920560  74.3154000  84.5920990   9.2557110  70.5444440  77.8254220
   9.1324890  70.5630570  76.8763730  10.2041670  70.5923380  77.9452620
   6.3433900  85.7799740  77.0982200   6.5975400  85.7421130  76.1761570
   5.3946380  85.6533070  77.0910450   3.4276700  72.1278860  73.7609140
   4.2767230  72.5649010  73.6949330   3.0607970  72.4399120  74.5881200
  14.0564470  71.4558440  85.2279350  13.5538070  72.1963840  85.5673160
  14.8721130  71.8442440  84.9116140  12.3486480  76.6991620  78.6740710
  11.4076620  76.7141850  78.8488400  12.6630550  75.9127580  79.1201010
   2.3268120  78.3811220  72.2344670   3.0931390  78.2692580  72.7970100
   2.4042810  77.6849190  71.5821440  14.3512060  83.8700470  80.3494970
  14.4759480  84.6931640  80.8218780  15.2177620  83.6591200  80.0019120
   1.8229590  85.9631680  80.0212100   2.5592070  85.4147140  80.2920670
   2.2070510  86.8287690  79.8818090   4.9331900  85.1361990  71.8437670
   5.7260510  85.4250820  71.3919460   4.4136250  84.7054160  71.1650150
   9.6652500  81.2557620  89.1573090   9.0590660  81.2789220  88.4168840
   9.3606610  80.5240660  89.6940340  11.0952870  84.9837910  87.7682500
  12.0474620  84.8995930  87.7182740  10.9481090  85.6479620  88.4416290
  13.9862070  84.3632120  73.2674410  13.7003580  83.9497260  72.4528590
  13.7881620  85.2919830  73.1474930   5.4509300  80.3565400  71.7080020
   5.3459940  79.7417750  72.4341400   5.2833520  79.8331290  70.9243030
   5.6023620  79.0422200  87.6869250   4.8369290  79.6107200  87.6023920
   5.7839580  78.7498410  86.7937480   8.6912030  79.4185430  72.3122010
   8.1422130  79.8654730  72.9564750   9.3131290  78.9134680  72.8359680
  12.7446970  80.7727530  88.2444270  13.4856440  81.1103290  87.7411730
  11.9819650  80.9419590  87.6914040   4.3587150  78.3776350  74.2087310
   4.7803570  78.2116220  75.0518700   4.4837990  77.5676580  73.7142450
   2.5214570  74.3572900  87.0158290   1.9911030  73.8663850  86.3881630
   3.1902640  74.7857100  86.4816220   6.8714790  77.4013960  71.4564410
   7.3920450  76.6862980  71.0905560   7.5183190  78.0399830  71.7564920
  11.4192630  78.8242360  86.7799480  11.8333650  78.9787440  87.6289900
  10.4843630  78.9497580  86.9425260  11.8914800  76.1638520  88.7838630
  12.4735570  75.4090840  88.6959110  12.0676570  76.6945960  88.0070110
   3.0086870  71.3235270  87.0955580   2.9143740  70.7056020  86.3706450
   2.4284260  72.0501560  86.8685490   5.7748310  69.8808510  84.1282970
   5.3265610  69.9032770  83.2828520   5.1413510  69.4827530  84.7253270
   6.1807860  78.7762840  84.7495410   6.5995970  79.6195570  84.5771650
   5.2616490  78.9134880  84.5202190   8.5171760  76.5079020  86.1333250
   8.6367970  75.9120160  86.8728090   9.3765760  76.5448710  85.7134550
  10.8559660  77.0616210  84.7095760  10.3294880  77.5858830  84.1060900
  11.1991000  77.6943600  85.3405490   3.2546050  74.4509580  71.1545470
   3.0535110  73.5876940  71.5158810   3.0838100  74.3642940  70.2167070
   4.0315280  85.0815850  85.8653140   3.4936370  85.8061910  85.5461840
   4.2849240  84.6046190  85.0750480   5.2840530  73.0500370  87.3909070
   5.8740220  72.7416220  88.0786890   4.4660770  72.5780120  87.5468970
  10.1033960  72.6666180  87.6242090   9.4149480  72.0047720  87.5592080
  10.8239980  72.2204450  88.0690550  10.7334360  69.2617810  73.6832350
  11.0136650  68.4185710  74.0391770   9.9600090  69.4940920  74.1971100
   2.0528850  71.5510200  71.1423350   2.3554750  71.5577630  70.2342500
   2.7923440  71.2008060  71.6391010   6.8877490  86.3167060  86.1239790
   6.8136190  87.2202200  86.4312160   5.9856330  85.9978960  86.0961860
   5.2713780  70.4944820  72.1279550   4.9235780  69.8168810  71.5482000
   5.4726550  70.0334330  72.9422940   7.4362820  85.4825570  73.7466150
   8.3313610  85.8210540  73.7684910   7.4680450  84.7604980  73.1190430
   2.8866700  81.9750660  77.0875380   2.5862240  81.8515630  77.9879290
   2.7804190  81.1159250  76.6791110  14.4157170  84.0129240  86.4532350
  13.8159160  84.0721800  85.7096270  14.5451070  83.0734220  86.5829200
  15.6558620  81.7547060  71.7902060  14.8251580  81.8223710  72.2609290
  15.8330450  82.6451180  71.4868920  15.1115080  78.4994540  74.2936260
  15.8733990  79.0691190  74.3995950  15.1269450  77.9321740  75.0644570
  16.1175050  79.3544640  79.1378190  16.4883880  78.5711960  78.7314160
  16.7576980  80.0433740  78.9595490  13.1008810  80.7381220  84.5508510
  12.2868650  81.1678380  84.8134300  13.5083010  81.3499630  83.9377560
  15.1634250  78.7928910  71.4508780  15.4383090  79.7007790  71.3228000
  14.9744990  78.7291440  72.3870770  11.5609860  71.8173760  72.7462410
  11.9794740  71.6304740  71.9059070  11.2545920  70.9652810  73.0565340
  15.0599590  76.7297900  76.4438210  14.6843190  75.9625830  76.0119500
  14.3302710  77.1120600  76.9313140  14.4499210  75.8769420  86.0777730
  14.2185300  75.6482170  85.1775680  14.7103760  76.7968970  86.0322620
  12.8887280  71.1025850  88.8557430  13.7657460  71.1109250  89.2391430
  12.9008120  70.3656690  88.2449780  14.3350550  74.9555390  79.7445450
  14.8588030  74.4618040  79.1135620  14.9209970  75.0905750  80.4893020
  14.5140270  75.0395260  83.2665000  13.5642980  75.0058800  83.3809990
  14.6953280  75.9495370  83.0314770  13.8250520  74.2128740  75.6837860
  14.3209640  73.9799610  76.4686740  13.6266590  73.3740580  75.2675500
  15.2537680  72.8489690  78.2175540  15.1436960  72.6945730  79.1557810
  16.0145270  72.3210630  77.9750950  13.6003400  68.7883820  84.6758540
  14.2375620  69.4017960  85.0417730  13.7478290  68.8244480  83.7307770
  16.1427950  70.6797610  71.4581680  17.0677260  70.5478790  71.2499970
  16.1203740  70.7590430  72.4118130  16.2166440  71.4508270  74.0838390
  15.4217940  71.3853390  74.6131300  16.4209720  72.3858910  74.0723740
  13.1584860  85.4899820  78.0776780  13.7543930  85.1684390  77.4011200
  13.4163010  85.0171640  78.8690050   4.7653460  83.4777320  83.8277130
   4.5244820  83.7451880  82.9407650   5.7056100  83.6483050  83.8827990
   6.9707880  69.9410010  87.5833640   6.9096770  70.5331840  88.3329050
   7.9108260  69.8335970  87.4383900   9.6082440  69.5980070  87.2225930
  10.2222850  69.9159360  86.5607010  10.1532000  69.1128660  87.8421790
  16.0257620  85.4971700  84.6287770  15.5315900  85.8940570  83.9114900
  15.4170910  84.8720910  85.0225050  10.3490480  68.1612210  83.5495220
   9.4750320  68.4947320  83.3468150  10.2401230  67.6885390  84.3747090
  11.2562460  70.3683080  84.9336940  10.9275820  69.5534840  84.5538670
  12.2044760  70.3252890  84.8102630  13.7097070  86.1395120  81.9074510
  13.2500040  86.8910930  81.5332530  13.0809530  85.4201590  81.8489310
   4.1392790  84.4483360  81.0822640   4.6557810  83.8370720  80.5570900
   4.7890170  84.9512140  81.5733650   6.8788290  85.3391850  81.9091620
   7.1666100  85.0846150  81.0324630   7.3911510  84.7869210  82.4997190
   8.0965300  69.0782050  82.4888130   7.3137090  69.5527550  82.7684890
   7.8028230  68.1736880  82.3801310  12.6486370  69.7805150  80.5337220
  13.0894460  69.7250250  79.6858820  12.3793960  70.6963160  80.6047400
  14.5124940  69.4120390  78.5446040  14.4513340  68.4681610  78.3977060
  15.2916970  69.5200480  79.0899500   5.9819520  71.4968800  78.0004160
   5.1694030  71.1225690  77.6600040   6.4861160  70.7413880  78.3025350
  10.4844500  68.1611250  79.2387230  11.0873870  68.7331460  79.7135750
   9.7437490  68.7250690  79.0161130  13.6279100  68.5632810  74.5127510
  13.8229730  69.4616260  74.7794940  12.8408970  68.3319890  75.0060460
   1.8130860  69.9093580  73.5503820   2.3423620  69.1223380  73.4211770
   2.4459180  70.5884770  73.7839350   4.0068700  69.6468720  76.6049210
   3.3771440  68.9456030  76.7719340   3.4673840  70.4072850  76.3882370
   6.9460650  86.2607950  89.2759820   7.8727960  86.0252220  89.3195780
   6.9311080  87.0879950  88.7945850  15.1805710  85.8033520  76.2734070
  15.3557900  85.1171260  75.6294990  14.4827280  86.3280570  75.8810740
   4.1324260  68.9252700  89.0401700   3.8508530  69.4286300  88.2762520
   4.5143960  68.1274450  88.6743830   3.0233360  86.1928360  73.8269380
   3.7552180  85.9087640  73.2793270   3.2827030  85.9541640  74.7168760
   2.1848150  82.3093090  73.8315710   1.5557030  82.7778190  74.3801540
   2.2995980  81.4642310  74.2661900  10.7339720  68.3406280  89.6182170
  10.6205170  68.6600890  90.5133690  11.5509460  68.7418790  89.3219450
  13.5138210  85.4877810  89.1000860  14.3063530  84.9927040  88.8926820
  13.8071360  86.1667950  89.7076470   9.6397870  76.3598750  59.9816910
   9.5591920  75.4453360  59.7108620   9.2262290  76.8565820  59.2756620
   7.7715910  78.1377770  61.8626180   6.9958010  77.6578210  62.1524750
   8.4228840  77.4583420  61.6882340  11.7923340  82.5437960  60.6425310
  11.3304870  81.7725200  60.9712480  12.6048890  82.5704030  61.1477760
   1.7683000  82.4837670  62.9359960   2.0711040  81.5935410  62.7570180
   2.5126590  83.0407890  62.7082210   8.0186650  84.8295970  60.2629300
   7.3998090  85.2853470  59.6923740   8.8738430  84.9847430  59.8619000
   7.2124900  80.8134960  61.8696340   7.1433180  79.8724900  61.7085470
   7.9744760  80.9036370  62.4418910   8.2430070  73.6205340  62.0965270
   8.6194890  72.7477220  61.9838940   8.1449580  73.9564040  61.2055710
   2.3735080  71.9930970  57.5582710   2.4801830  72.8934700  57.8651470
   1.4627440  71.9448940  57.2677360  12.0254190  71.1155780  59.0293610
  12.8463810  70.6252350  59.0719090  12.0588270  71.7053440  59.7825450
   4.2142810  74.9617340  61.8907890   4.7221030  75.4598310  62.5312910
   4.7456050  74.1852540  61.7147250  16.3153740  73.1322530  65.5937240
  15.6105910  73.5204240  65.0752350  16.5811660  73.8272820  66.1958170
   2.4978910  69.6015900  66.1571310   2.4997350  70.1188290  65.3517210
   1.6683220  69.1246080  66.1341240   8.8850000  79.7135210  57.6561210
   8.2667270  80.1784660  57.0923930   9.3973250  80.4062690  58.0730720
   3.7481760  79.2411080  64.3344810   3.4151140  79.8680000  64.9765880
   3.9248440  79.7672960  63.5546480  12.2615670  73.0556160  61.8021150
  11.5571240  73.3441050  62.3824260  12.6227830  73.8656270  61.4420710
   2.1794240  71.3125860  64.1641760   2.5211050  72.1567910  63.8695630
   1.2410050  71.4609600  64.2807100   2.9600860  81.2091880  66.1493990
   3.5774860  81.8842960  65.8678440   2.0993980  81.6179860  66.0581490
  13.8778450  82.6731290  64.0648630  13.1941970  83.3430400  64.0565300
  14.4172740  82.8711940  63.2993490  15.3302590  72.5010950  62.1930360
  14.3827500  72.5349930  62.3245790  15.6552580  73.3149900  62.5779720
   5.8622130  68.8008130  60.4886350   6.1697110  68.2455020  59.7721850
   4.9322830  68.9352590  60.3059340  11.4137190  84.5175420  62.7793810
  11.4264350  84.1137710  61.9116070  10.8612410  85.2922710  62.6755240
  12.7082610  81.2391640  57.8683980  12.5978940  80.2965970  57.9933400
  12.7050860  81.6007280  58.7546740  10.8122630  79.4205260  64.1076420
  11.2291420  79.2065370  63.2729880  11.5362450  79.6778050  64.6785040
   8.2502890  76.8656960  57.2246470   7.3232170  76.7994340  57.4534940
   8.4027710  77.8037090  57.1101710   8.2371970  73.1373960  54.2213630
   7.2975640  73.2987920  54.3066090   8.5555230  73.8559640  53.6749620
  14.7584730  77.8192480  64.1992660  13.9303360  77.8885570  63.7242790
  15.3535210  78.4046790  63.7308490  12.2800180  78.4277260  57.7281720
  11.6612600  78.0896810  57.0808020  12.2624630  77.7837020  58.4360910
  11.7226740  74.6061800  65.1447530  11.3097920  75.4315510  65.3987520
  10.9902690  74.0206840  64.9523890   3.8559530  77.3921700  60.0066200
   3.4516530  76.6798950  59.5112100   3.9422650  77.0474940  60.8954240
   4.3241230  81.0789260  62.1705410   4.0269520  80.4734730  61.4913190
   5.2741050  81.1166570  62.0594770   2.5688150  74.1664910  63.7865240
   3.1202740  74.2760250  63.0118490   3.0831660  74.5402510  64.5020470
  12.4126840  84.6521130  65.8328510  11.9357400  85.4593320  65.6401120
  11.7288630  83.9999460  65.9854720   3.4159660  80.8170950  68.8213210
   2.5188190  81.0410920  69.0686610   3.4412530  80.9405890  67.8724610
  10.4564880  77.6664070  54.7354470  10.8958160  76.8286500  54.5892290
  11.1693300  78.2993470  54.8218610   2.2430880  77.6884270  67.3970580
   2.1038650  78.5607070  67.7657980   1.3612240  77.3457080  67.2518520
   8.5660260  82.6060140  58.7035710   9.0056170  83.3484470  58.2891100
   8.5047150  82.8486710  59.6274670   4.0411230  83.6305970  69.6055730
   4.0126660  84.0348920  68.7384160   3.8776200  82.7016330  69.4427330
  14.0382020  68.9206880  53.0495510  13.7254680  69.0133710  53.9494580
  14.7994490  69.4987910  52.9992940  15.9926050  84.4133070  70.9019900
  16.4685770  84.8915960  71.5808980  16.6133210  84.3450560  70.1765400
  15.3959300  81.6045920  68.0619910  15.5222360  81.3657800  67.1437090
  15.4380680  80.7730460  68.5341990   9.2576040  85.3073920  66.6314720
   9.7720710  85.2181930  67.4337150   8.4145120  85.6533620  66.9242630
  11.2330440  85.5929260  56.0598720  11.0731580  85.3032200  56.9580550
  11.0677150  84.8169390  55.5243950   3.7118820  85.3727790  57.8370340
   3.5361300  84.4563330  57.6238140   2.8574560  85.7315080  58.0768140
  10.9356570  83.1016820  54.6196720  10.2421730  83.0994110  53.9599000
  11.6779430  82.6776140  54.1890890  10.5006500  84.7279530  58.6945210
  10.9563450  83.9468910  59.0083830  10.8399020  85.4386350  59.2386390
  15.2483310  73.6578380  69.0269650  14.6327580  74.1658050  68.4985110
  14.9279730  72.7576710  68.9695590   3.0227820  69.6301750  60.8896520
   2.5795970  70.4111290  60.5581040   3.5812810  69.9531640  61.5967460
   7.3097630  72.4970270  66.4931840   6.8477000  72.7053290  67.3051780
   6.9075740  71.6829620  66.1902510  12.3102140  73.7179220  67.6228500
  11.4595730  73.4184970  67.9437570  12.1503930  73.9621230  66.7112320
   9.4051850  75.2180970  69.7227290   9.7305260  74.3844720  69.3829520
  10.1932180  75.7409490  69.8705620   6.1386640  69.2512450  55.7702350
   5.5140820  69.2472320  56.4955660   6.0516760  68.3843410  55.3738320
   5.0603720  70.1749080  62.7486120   5.3576050  71.0811910  62.6678140
   5.6089280  69.6867860  62.1345690   2.8142040  74.7535320  58.6177770
   2.5882960  74.5372490  59.5224390   2.0334570  75.1863780  58.2723740
  10.0439800  74.7598690  57.2168420   9.4448690  75.4834490  57.0332040
  10.5919410  74.6975470  56.4344870   5.2541250  75.6520900  69.2838040
   5.1584850  74.7115630  69.1338440   6.0973230  75.8735970  68.8886110
   8.6504670  73.3962230  59.2471700   9.0434240  73.7134430  58.4340390
   9.0121520  72.5174110  59.3616220   6.9596840  72.1469540  70.5068560
   6.2695160  71.9541740  71.1414650   7.7029140  72.4304180  71.0392860
   9.2359810  75.9867980  63.3422480   8.5040930  76.4954790  63.6912580
   8.8384150  75.1697960  63.0411260   5.6737200  72.6622180  61.7474970
   5.6773260  72.2212130  60.8979510   6.5688320  72.9839510  61.8546790
   5.7357350  73.6634260  54.7381730   5.8570170  73.6220740  55.6867550
   5.3505860  74.5258410  54.5828460   9.6985720  71.4401660  62.7545420
   9.7158460  71.8910310  63.5987270   9.4501300  70.5407300  62.9678860
   4.7478850  75.9735400  54.1365030   4.1795750  75.5253650  53.5100940
   5.4567850  76.3328180  53.6030180  13.1256470  68.8533840  68.5931800
  13.4502240  68.1223500  69.1189780  13.1612980  68.5347480  67.6912790
   5.9745170  76.7223960  63.4940380   6.3415300  76.2482530  64.2401720
   5.7850230  77.5965530  63.8348720   3.7644540  75.7632600  65.8124590
   3.4601610  76.6424580  66.0374950   4.7191000  75.8232390  65.8482030
   2.2926330  79.9693590  56.4091440   1.5188590  79.4291210  56.2490160
   3.0220960  79.4500200  56.0709200  13.0514310  78.9658950  62.2017830
  13.7713430  79.4614240  61.8113940  12.8496130  78.2876840  61.5571700
   8.5124250  70.3596910  56.3447220   7.6988860  69.8610080  56.2692530
   8.3186200  71.1995160  55.9283570   8.4333110  79.0368010  68.0886830
   8.3670420  78.1163680  67.8344420   7.8038250  79.1343450  68.8031470
  11.2272640  74.7316560  54.6409380  12.1152260  75.0433790  54.4660720
  11.1977730  73.8588810  54.2489960   2.3363730  79.6373970  60.0470250
   2.8542400  78.8342230  59.9927140   1.8847750  79.5753110  60.8887080
   7.2233230  80.9040250  55.3197550   7.5648930  81.6482480  54.8240870
   6.3945940  81.2171370  55.6822380   3.0221390  77.0619580  69.8435500
   2.7221530  77.2076760  68.9463320   3.7932630  76.5024870  69.7508890
   8.3649840  81.8588580  67.8390630   8.3794380  80.9269540  67.6209540
   7.6574940  81.9448340  68.4780400  13.4986910  76.0428400  54.1089240
  13.4150630  76.4742620  53.2585680  14.2181100  76.5026750  54.5416060
  14.5761050  78.4995920  67.1859210  13.8509240  79.0924700  66.9888600
  15.1036510  78.4919460  66.3872580  14.5274160  82.8970660  56.8371370
  13.8850320  82.2426280  57.1115090  14.1404820  83.3025750  56.0612040
  10.1060640  80.2256090  60.6843060  10.4584460  79.6284220  60.0244430
   9.2222970  79.9000320  60.8551310   6.1923920  80.9853780  58.0913470
   6.8795050  81.5322990  58.4721060   5.4056340  81.5294510  58.1263080
   5.4951130  77.9899810  57.7038830   5.9513910  78.8005060  57.9299020
   5.1439340  77.6722950  58.5357320   7.7983740  83.5006150  64.9331130
   8.4425960  83.7065530  65.6104550   8.1613180  82.7394550  64.4801980
   9.0715820  81.5038500  63.6508580   9.7138050  80.8031660  63.7640750
   9.5965170  82.2836940  63.4705470  12.9171540  81.7887120  53.3747720
  12.6909120  81.0717560  53.9672360  12.5267740  81.5399560  52.5369470
  10.8453440  82.3033400  66.8544640  11.1809680  82.8900090  67.5322560
   9.9253780  82.1726110  67.0842430  12.4987790  79.7059060  55.0361880
  12.2109490  80.1671750  55.8239760  13.2939960  79.2456830  55.3046100
   6.6742020  82.3524730  70.0232700   6.3538890  81.6333970  70.5678390
   6.0000380  83.0279800  70.0968760   4.7156190  83.1985180  54.9665850
   4.7066290  83.9314870  54.3510360   3.7954550  82.9516760  55.0592810
   9.8895620  72.5850890  65.3869500  10.2576440  71.7646100  65.7149070
   9.0293820  72.6452780  65.8025150  13.2557650  71.5407830  56.1957060
  12.6270810  71.6453500  55.4815290  12.7609570  71.7604610  56.9850940
   7.7015790  83.2613420  53.6291040   7.8027770  83.0577410  52.6993020
   6.8017530  83.0071700  53.8338820   5.2241680  73.8193780  57.6114940
   4.5157830  74.2880120  58.0528550   5.5086160  73.1615790  58.2460130
   6.8497610  75.2390480  65.6107470   7.3482860  75.7136300  66.2759320
   6.9920560  74.3154000  65.8177500   9.2557110  70.5444440  59.0510730
   9.1324890  70.5630570  58.1020240  10.2041670  70.5923380  59.1709130
   6.3433900  85.7799740  58.3238710   6.5975400  85.7421130  57.4018080
   5.3946380  85.6533070  58.3166960   3.4276700  72.1278860  54.9865650
   4.2767230  72.5649010  54.9205840   3.0607970  72.4399120  55.8137710
  14.0564470  71.4558440  66.4535860  13.5538070  72.1963840  66.7929670
  14.8721130  71.8442440  66.1372650  12.3486480  76.6991620  59.8997220
  11.4076620  76.7141850  60.0744910  12.6630550  75.9127580  60.3457520
   2.3268120  78.3811220  53.4601180   3.0931390  78.2692580  54.0226610
   2.4042810  77.6849190  52.8077950  14.3512060  83.8700470  61.5751480
  14.4759480  84.6931640  62.0475290  15.2177620  83.6591200  61.2275630
   1.8229590  85.9631680  61.2468610   2.5592070  85.4147140  61.5177180
   2.2070510  86.8287690  61.1074600   4.9331900  85.1361990  53.0694180
   5.7260510  85.4250820  52.6175970   4.4136250  84.7054160  52.3906660
   9.6652500  81.2557620  70.3829600   9.0590660  81.2789220  69.6425350
   9.3606610  80.5240660  70.9196850  11.0952870  84.9837910  68.9939010
  12.0474620  84.8995930  68.9439250  10.9481090  85.6479620  69.6672800
  13.9862070  84.3632120  54.4930920  13.7003580  83.9497260  53.6785100
  13.7881620  85.2919830  54.3731440   5.4509300  80.3565400  52.9336530
   5.3459940  79.7417750  53.6597910   5.2833520  79.8331290  52.1499540
   5.6023620  79.0422200  68.9125760   4.8369290  79.6107200  68.8280430
   5.7839580  78.7498410  68.0193990   8.6912030  79.4185430  53.5378520
   8.1422130  79.8654730  54.1821260   9.3131290  78.9134680  54.0616190
  12.7446970  80.7727530  69.4700780  13.4856440  81.1103290  68.9668240
  11.9819650  80.9419590  68.9170550   4.3587150  78.3776350  55.4343820
   4.7803570  78.2116220  56.2775210   4.4837990  77.5676580  54.9398960
   2.5214570  74.3572900  68.2414800   1.9911030  73.8663850  67.6138140
   3.1902640  74.7857100  67.7072730   6.8714790  77.4013960  52.6820920
   7.3920450  76.6862980  52.3162070   7.5183190  78.0399830  52.9821430
  11.4192630  78.8242360  68.0055990  11.8333650  78.9787440  68.8546410
  10.4843630  78.9497580  68.1681770  11.8914800  76.1638520  70.0095140
  12.4735570  75.4090840  69.9215620  12.0676570  76.6945960  69.2326620
   3.0086870  71.3235270  68.3212090   2.9143740  70.7056020  67.5962960
   2.4284260  72.0501560  68.0942000   5.7748310  69.8808510  65.3539480
   5.3265610  69.9032770  64.5085030   5.1413510  69.4827530  65.9509780
   6.1807860  78.7762840  65.9751920   6.5995970  79.6195570  65.8028160
   5.2616490  78.9134880  65.7458700   8.5171760  76.5079020  67.3589760
   8.6367970  75.9120160  68.0984600   9.3765760  76.5448710  66.9391060
  10.8559660  77.0616210  65.9352270  10.3294880  77.5858830  65.3317410
  11.1991000  77.6943600  66.5662000   3.2546050  74.4509580  52.3801980
   3.0535110  73.5876940  52.7415320   3.0838100  74.3642940  51.4423580
   4.0315280  85.0815850  67.0909650   3.4936370  85.8061910  66.7718350
   4.2849240  84.6046190  66.3006990   5.2840530  73.0500370  68.6165580
   5.8740220  72.7416220  69.3043400   4.4660770  72.5780120  68.7725480
  10.1033960  72.6666180  68.8498600   9.4149480  72.0047720  68.7848590
  10.8239980  72.2204450  69.2947060  10.7334360  69.2617810  54.9088860
  11.0136650  68.4185710  55.2648280   9.9600090  69.4940920  55.4227610
   2.0528850  71.5510200  52.3679860   2.3554750  71.5577630  51.4599010
   2.7923440  71.2008060  52.8647520   6.8877490  86.3167060  67.3496300
   6.8136190  87.2202200  67.6568670   5.9856330  85.9978960  67.3218370
   5.2713780  70.4944820  53.3536060   4.9235780  69.8168810  52.7738510
   5.4726550  70.0334330  54.1679450   7.4362820  85.4825570  54.9722660
   8.3313610  85.8210540  54.9941420   7.4680450  84.7604980  54.3446940
   2.8866700  81.9750660  58.3131890   2.5862240  81.8515630  59.2135800
   2.7804190  81.1159250  57.9047620  14.4157170  84.0129240  67.6788860
  13.8159160  84.0721800  66.9352780  14.5451070  83.0734220  67.8085710
  15.6558620  81.7547060  53.0158570  14.8251580  81.8223710  53.4865800
  15.8330450  82.6451180  52.7125430  15.1115080  78.4994540  55.5192770
  15.8733990  79.0691190  55.6252460  15.1269450  77.9321740  56.2901080
  16.1175050  79.3544640  60.3634700  16.4883880  78.5711960  59.9570670
  16.7576980  80.0433740  60.1852000  13.1008810  80.7381220  65.7765020
  12.2868650  81.1678380  66.0390810  13.5083010  81.3499630  65.1634070
  15.1634250  78.7928910  52.6765290  15.4383090  79.7007790  52.5484510
  14.9744990  78.7291440  53.6127280  11.5609860  71.8173760  53.9718920
  11.9794740  71.6304740  53.1315580  11.2545920  70.9652810  54.2821850
  15.0599590  76.7297900  57.6694720  14.6843190  75.9625830  57.2376010
  14.3302710  77.1120600  58.1569650  14.4499210  75.8769420  67.3034240
  14.2185300  75.6482170  66.4032190  14.7103760  76.7968970  67.2579130
  12.8887280  71.1025850  70.0813940  13.7657460  71.1109250  70.4647940
  12.9008120  70.3656690  69.4706290  14.3350550  74.9555390  60.9701960
  14.8588030  74.4618040  60.3392130  14.9209970  75.0905750  61.7149530
  14.5140270  75.0395260  64.4921510  13.5642980  75.0058800  64.6066500
  14.6953280  75.9495370  64.2571280  13.8250520  74.2128740  56.9094370
  14.3209640  73.9799610  57.6943250  13.6266590  73.3740580  56.4932010
  15.2537680  72.8489690  59.4432050  15.1436960  72.6945730  60.3814320
  16.0145270  72.3210630  59.2007460  13.6003400  68.7883820  65.9015050
  14.2375620  69.4017960  66.2674240  13.7478290  68.8244480  64.9564280
  16.1427950  70.6797610  52.6838190  17.0677260  70.5478790  52.4756480
  16.1203740  70.7590430  53.6374640  16.2166440  71.4508270  55.3094900
  15.4217940  71.3853390  55.8387810  16.4209720  72.3858910  55.2980250
  13.1584860  85.4899820  59.3033290  13.7543930  85.1684390  58.6267710
  13.4163010  85.0171640  60.0946560   4.7653460  83.4777320  65.0533640
   4.5244820  83.7451880  64.1664160   5.7056100  83.6483050  65.1084500
   6.9707880  69.9410010  68.8090150   6.9096770  70.5331840  69.5585560
   7.9108260  69.8335970  68.6640410   9.6082440  69.5980070  68.4482440
  10.2222850  69.9159360  67.7863520  10.1532000  69.1128660  69.0678300
  16.0257620  85.4971700  65.8544280  15.5315900  85.8940570  65.1371410
  15.4170910  84.8720910  66.2481560  10.3490480  68.1612210  64.7751730
   9.4750320  68.4947320  64.5724660  10.2401230  67.6885390  65.6003600
  11.2562460  70.3683080  66.1593450  10.9275820  69.5534840  65.7795180
  12.2044760  70.3252890  66.0359140  13.7097070  86.1395120  63.1331020
  13.2500040  86.8910930  62.7589040  13.0809530  85.4201590  63.0745820
   4.1392790  84.4483360  62.3079150   4.6557810  83.8370720  61.7827410
   4.7890170  84.9512140  62.7990160   6.8788290  85.3391850  63.1348130
   7.1666100  85.0846150  62.2581140   7.3911510  84.7869210  63.7253700
   8.0965300  69.0782050  63.7144640   7.3137090  69.5527550  63.9941400
   7.8028230  68.1736880  63.6057820  12.6486370  69.7805150  61.7593730
  13.0894460  69.7250250  60.9115330  12.3793960  70.6963160  61.8303910
  14.5124940  69.4120390  59.7702550  14.4513340  68.4681610  59.6233570
  15.2916970  69.5200480  60.3156010   5.9819520  71.4968800  59.2260670
   5.1694030  71.1225690  58.8856550   6.4861160  70.7413880  59.5281860
  10.4844500  68.1611250  60.4643740  11.0873870  68.7331460  60.9392260
   9.7437490  68.7250690  60.2417640  13.6279100  68.5632810  55.7384020
  13.8229730  69.4616260  56.0051450  12.8408970  68.3319890  56.2316970
   1.8130860  69.9093580  54.7760330   2.3423620  69.1223380  54.6468280
   2.4459180  70.5884770  55.0095860   4.0068700  69.6468720  57.8305720
   3.3771440  68.9456030  57.9975850   3.4673840  70.4072850  57.6138880
   6.9460650  86.2607950  70.5016330   7.8727960  86.0252220  70.5452290
   6.9311080  87.0879950  70.0202360  15.1805710  85.8033520  57.4990580
  15.3557900  85.1171260  56.8551500  14.4827280  86.3280570  57.1067250
   4.1324260  68.9252700  70.2658210   3.8508530  69.4286300  69.5019030
   4.5143960  68.1274450  69.9000340   3.0233360  86.1928360  55.0525890
   3.7552180  85.9087640  54.5049780   3.2827030  85.9541640  55.9425270
   2.1848150  82.3093090  55.0572220   1.5557030  82.7778190  55.6058050
   2.2995980  81.4642310  55.4918410  10.7339720  68.3406280  70.8438680
  10.6205170  68.6600890  71.7390200  11.5509460  68.7418790  70.5475960
  13.5138210  85.4877810  70.3257370  14.3063530  84.9927040  70.1183330
  13.8071360  86.1667950  70.9332980   9.6397870  76.3598750  41.2073420
   9.5591920  75.4453360  40.9365130   9.2262290  76.8565820  40.5013130
   7.7715910  78.1377770  43.0882690   6.9958010  77.6578210  43.3781260
   8.4228840  77.4583420  42.9138850  11.7923340  82.5437960  41.8681820
  11.3304870  81.7725200  42.1968990  12.6048890  82.5704030  42.3734270
   1.7683000  82.4837670  44.1616470   2.0711040  81.5935410  43.9826690
   2.5126590  83.0407890  43.9338720   8.0186650  84.8295970  41.4885810
   7.3998090  85.2853470  40.9180250   8.8738430  84.9847430  41.0875510
   7.2124900  80.8134960  43.0952850   7.1433180  79.8724900  42.9341980
   7.9744760  80.9036370  43.6675420   8.2430070  73.6205340  43.3221780
   8.6194890  72.7477220  43.2095450   8.1449580  73.9564040  42.4312220
   2.3735080  71.9930970  38.7839220   2.4801830  72.8934700  39.0907980
   1.4627440  71.9448940  38.4933870  12.0254190  71.1155780  40.2550120
  12.8463810  70.6252350  40.2975600  12.0588270  71.7053440  41.0081960
   4.2142810  74.9617340  43.1164400   4.7221030  75.4598310  43.7569420
   4.7456050  74.1852540  42.9403760  16.3153740  73.1322530  46.8193750
  15.6105910  73.5204240  46.3008860  16.5811660  73.8272820  47.4214680
   2.4978910  69.6015900  47.3827820   2.4997350  70.1188290  46.5773720
   1.6683220  69.1246080  47.3597750   8.8850000  79.7135210  38.8817720
   8.2667270  80.1784660  38.3180440   9.3973250  80.4062690  39.2987230
   3.7481760  79.2411080  45.5601320   3.4151140  79.8680000  46.2022390
   3.9248440  79.7672960  44.7802990  12.2615670  73.0556160  43.0277660
  11.5571240  73.3441050  43.6080770  12.6227830  73.8656270  42.6677220
   2.1794240  71.3125860  45.3898270   2.5211050  72.1567910  45.0952140
   1.2410050  71.4609600  45.5063610   2.9600860  81.2091880  47.3750500
   3.5774860  81.8842960  47.0934950   2.0993980  81.6179860  47.2838000
  13.8778450  82.6731290  45.2905140  13.1941970  83.3430400  45.2821810
  14.4172740  82.8711940  44.5250000  15.3302590  72.5010950  43.4186870
  14.3827500  72.5349930  43.5502300  15.6552580  73.3149900  43.8036230
   5.8622130  68.8008130  41.7142860   6.1697110  68.2455020  40.9978360
   4.9322830  68.9352590  41.5315850  11.4137190  84.5175420  44.0050320
  11.4264350  84.1137710  43.1372580  10.8612410  85.2922710  43.9011750
  12.7082610  81.2391640  39.0940490  12.5978940  80.2965970  39.2189910
  12.7050860  81.6007280  39.9803250  10.8122630  79.4205260  45.3332930
  11.2291420  79.2065370  44.4986390  11.5362450  79.6778050  45.9041550
   8.2502890  76.8656960  38.4502980   7.3232170  76.7994340  38.6791450
   8.4027710  77.8037090  38.3358220   8.2371970  73.1373960  35.4470140
   7.2975640  73.2987920  35.5322600   8.5555230  73.8559640  34.9006130
  14.7584730  77.8192480  45.4249170  13.9303360  77.8885570  44.9499300
  15.3535210  78.4046790  44.9565000  12.2800180  78.4277260  38.9538230
  11.6612600  78.0896810  38.3064530  12.2624630  77.7837020  39.6617420
  11.7226740  74.6061800  46.3704040  11.3097920  75.4315510  46.6244030
  10.9902690  74.0206840  46.1780400   3.8559530  77.3921700  41.2322710
   3.4516530  76.6798950  40.7368610   3.9422650  77.0474940  42.1210750
   4.3241230  81.0789260  43.3961920   4.0269520  80.4734730  42.7169700
   5.2741050  81.1166570  43.2851280   2.5688150  74.1664910  45.0121750
   3.1202740  74.2760250  44.2375000   3.0831660  74.5402510  45.7276980
  12.4126840  84.6521130  47.0585020  11.9357400  85.4593320  46.8657630
  11.7288630  83.9999460  47.2111230   3.4159660  80.8170950  50.0469720
   2.5188190  81.0410920  50.2943120   3.4412530  80.9405890  49.0981120
  10.4564880  77.6664070  35.9610980  10.8958160  76.8286500  35.8148800
  11.1693300  78.2993470  36.0475120   2.2430880  77.6884270  48.6227090
   2.1038650  78.5607070  48.9914490   1.3612240  77.3457080  48.4775030
   8.5660260  82.6060140  39.9292220   9.0056170  83.3484470  39.5147610
   8.5047150  82.8486710  40.8531180   4.0411230  83.6305970  50.8312240
   4.0126660  84.0348920  49.9640670   3.8776200  82.7016330  50.6683840
  14.0382020  68.9206880  34.2752020  13.7254680  69.0133710  35.1751090
  14.7994490  69.4987910  34.2249450  15.9926050  84.4133070  52.1276410
  16.4685770  84.8915960  52.8065490  16.6133210  84.3450560  51.4021910
  15.3959300  81.6045920  49.2876420  15.5222360  81.3657800  48.3693600
  15.4380680  80.7730460  49.7598500   9.2576040  85.3073920  47.8571230
   9.7720710  85.2181930  48.6593660   8.4145120  85.6533620  48.1499140
  11.2330440  85.5929260  37.2855230  11.0731580  85.3032200  38.1837060
  11.0677150  84.8169390  36.7500460   3.7118820  85.3727790  39.0626850
   3.5361300  84.4563330  38.8494650   2.8574560  85.7315080  39.3024650
  10.9356570  83.1016820  35.8453230  10.2421730  83.0994110  35.1855510
  11.6779430  82.6776140  35.4147400  10.5006500  84.7279530  39.9201720
  10.9563450  83.9468910  40.2340340  10.8399020  85.4386350  40.4642900
  15.2483310  73.6578380  50.2526160  14.6327580  74.1658050  49.7241620
  14.9279730  72.7576710  50.1952100   3.0227820  69.6301750  42.1153030
   2.5795970  70.4111290  41.7837550   3.5812810  69.9531640  42.8223970
   7.3097630  72.4970270  47.7188350   6.8477000  72.7053290  48.5308290
   6.9075740  71.6829620  47.4159020  12.3102140  73.7179220  48.8485010
  11.4595730  73.4184970  49.1694080  12.1503930  73.9621230  47.9368830
   9.4051850  75.2180970  50.9483800   9.7305260  74.3844720  50.6086030
  10.1932180  75.7409490  51.0962130   6.1386640  69.2512450  36.9958860
   5.5140820  69.2472320  37.7212170   6.0516760  68.3843410  36.5994830
   5.0603720  70.1749080  43.9742630   5.3576050  71.0811910  43.8934650
   5.6089280  69.6867860  43.3602200   2.8142040  74.7535320  39.8434280
   2.5882960  74.5372490  40.7480900   2.0334570  75.1863780  39.4980250
  10.0439800  74.7598690  38.4424930   9.4448690  75.4834490  38.2588550
  10.5919410  74.6975470  37.6601380   5.2541250  75.6520900  50.5094550
   5.1584850  74.7115630  50.3594950   6.0973230  75.8735970  50.1142620
   8.6504670  73.3962230  40.4728210   9.0434240  73.7134430  39.6596900
   9.0121520  72.5174110  40.5872730   6.9596840  72.1469540  51.7325070
   6.2695160  71.9541740  52.3671160   7.7029140  72.4304180  52.2649370
   9.2359810  75.9867980  44.5678990   8.5040930  76.4954790  44.9169090
   8.8384150  75.1697960  44.2667770   5.6737200  72.6622180  42.9731480
   5.6773260  72.2212130  42.1236020   6.5688320  72.9839510  43.0803300
   5.7357350  73.6634260  35.9638240   5.8570170  73.6220740  36.9124060
   5.3505860  74.5258410  35.8084970   9.6985720  71.4401660  43.9801930
   9.7158460  71.8910310  44.8243780   9.4501300  70.5407300  44.1935370
   4.7478850  75.9735400  35.3621540   4.1795750  75.5253650  34.7357450
   5.4567850  76.3328180  34.8286690  13.1256470  68.8533840  49.8188310
  13.4502240  68.1223500  50.3446290  13.1612980  68.5347480  48.9169300
   5.9745170  76.7223960  44.7196890   6.3415300  76.2482530  45.4658230
   5.7850230  77.5965530  45.0605230   3.7644540  75.7632600  47.0381100
   3.4601610  76.6424580  47.2631460   4.7191000  75.8232390  47.0738540
   2.2926330  79.9693590  37.6347950   1.5188590  79.4291210  37.4746670
   3.0220960  79.4500200  37.2965710  13.0514310  78.9658950  43.4274340
  13.7713430  79.4614240  43.0370450  12.8496130  78.2876840  42.7828210
   8.5124250  70.3596910  37.5703730   7.6988860  69.8610080  37.4949040
   8.3186200  71.1995160  37.1540080   8.4333110  79.0368010  49.3143340
   8.3670420  78.1163680  49.0600930   7.8038250  79.1343450  50.0287980
  11.2272640  74.7316560  35.8665890  12.1152260  75.0433790  35.6917230
  11.1977730  73.8588810  35.4746470   2.3363730  79.6373970  41.2726760
   2.8542400  78.8342230  41.2183650   1.8847750  79.5753110  42.1143590
   7.2233230  80.9040250  36.5454060   7.5648930  81.6482480  36.0497380
   6.3945940  81.2171370  36.9078890   3.0221390  77.0619580  51.0692010
   2.7221530  77.2076760  50.1719830   3.7932630  76.5024870  50.9765400
   8.3649840  81.8588580  49.0647140   8.3794380  80.9269540  48.8466050
   7.6574940  81.9448340  49.7036910  13.4986910  76.0428400  35.3345750
  13.4150630  76.4742620  34.4842190  14.2181100  76.5026750  35.7672570
  14.5761050  78.4995920  48.4115720  13.8509240  79.0924700  48.2145110
  15.1036510  78.4919460  47.6129090  14.5274160  82.8970660  38.0627880
  13.8850320  82.2426280  38.3371600  14.1404820  83.3025750  37.2868550
  10.1060640  80.2256090  41.9099570  10.4584460  79.6284220  41.2500940
   9.2222970  79.9000320  42.0807820   6.1923920  80.9853780  39.3169980
   6.8795050  81.5322990  39.6977570   5.4056340  81.5294510  39.3519590
   5.4951130  77.9899810  38.9295340   5.9513910  78.8005060  39.1555530
   5.1439340  77.6722950  39.7613830   7.7983740  83.5006150  46.1587640
   8.4425960  83.7065530  46.8361060   8.1613180  82.7394550  45.7058490
   9.0715820  81.5038500  44.8765090   9.7138050  80.8031660  44.9897260
   9.5965170  82.2836940  44.6961980  12.9171540  81.7887120  34.6004230
  12.6909120  81.0717560  35.1928870  12.5267740  81.5399560  33.7625980
  10.8453440  82.3033400  48.0801150  11.1809680  82.8900090  48.7579070
   9.9253780  82.1726110  48.3098940  12.4987790  79.7059060  36.2618390
  12.2109490  80.1671750  37.0496270  13.2939960  79.2456830  36.5302610
   6.6742020  82.3524730  51.2489210   6.3538890  81.6333970  51.7934900
   6.0000380  83.0279800  51.3225270   4.7156190  83.1985180  36.1922360
   4.7066290  83.9314870  35.5766870   3.7954550  82.9516760  36.2849320
   9.8895620  72.5850890  46.6126010  10.2576440  71.7646100  46.9405580
   9.0293820  72.6452780  47.0281660  13.2557650  71.5407830  37.4213570
  12.6270810  71.6453500  36.7071800  12.7609570  71.7604610  38.2107450
   7.7015790  83.2613420  34.8547550   7.8027770  83.0577410  33.9249530
   6.8017530  83.0071700  35.0595330   5.2241680  73.8193780  38.8371450
   4.5157830  74.2880120  39.2785060   5.5086160  73.1615790  39.4716640
   6.8497610  75.2390480  46.8363980   7.3482860  75.7136300  47.5015830
   6.9920560  74.3154000  47.0434010   9.2557110  70.5444440  40.2767240
   9.1324890  70.5630570  39.3276750  10.2041670  70.5923380  40.3965640
   6.3433900  85.7799740  39.5495220   6.5975400  85.7421130  38.6274590
   5.3946380  85.6533070  39.5423470   3.4276700  72.1278860  36.2122160
   4.2767230  72.5649010  36.1462350   3.0607970  72.4399120  37.0394220
  14.0564470  71.4558440  47.6792370  13.5538070  72.1963840  48.0186180
  14.8721130  71.8442440  47.3629160  12.3486480  76.6991620  41.1253730
  11.4076620  76.7141850  41.3001420  12.6630550  75.9127580  41.5714030
   2.3268120  78.3811220  34.6857690   3.0931390  78.2692580  35.2483120
   2.4042810  77.6849190  34.0334460  14.3512060  83.8700470  42.8007990
  14.4759480  84.6931640  43.2731800  15.2177620  83.6591200  42.4532140
   1.8229590  85.9631680  42.4725120   2.5592070  85.4147140  42.7433690
   2.2070510  86.8287690  42.3331110   4.9331900  85.1361990  34.2950690
   5.7260510  85.4250820  33.8432480   4.4136250  84.7054160  33.6163170
   9.6652500  81.2557620  51.6086110   9.0590660  81.2789220  50.8681860
   9.3606610  80.5240660  52.1453360  11.0952870  84.9837910  50.2195520
  12.0474620  84.8995930  50.1695760  10.9481090  85.6479620  50.8929310
  13.9862070  84.3632120  35.7187430  13.7003580  83.9497260  34.9041610
  13.7881620  85.2919830  35.5987950   5.4509300  80.3565400  34.1593040
   5.3459940  79.7417750  34.8854420   5.2833520  79.8331290  33.3756050
   5.6023620  79.0422200  50.1382270   4.8369290  79.6107200  50.0536940
   5.7839580  78.7498410  49.2450500   8.6912030  79.4185430  34.7635030
   8.1422130  79.8654730  35.4077770   9.3131290  78.9134680  35.2872700
  12.7446970  80.7727530  50.6957290  13.4856440  81.1103290  50.1924750
  11.9819650  80.9419590  50.1427060   4.3587150  78.3776350  36.6600330
   4.7803570  78.2116220  37.5031720   4.4837990  77.5676580  36.1655470
   2.5214570  74.3572900  49.4671310   1.9911030  73.8663850  48.8394650
   3.1902640  74.7857100  48.9329240   6.8714790  77.4013960  33.9077430
   7.3920450  76.6862980  33.5418580   7.5183190  78.0399830  34.2077940
  11.4192630  78.8242360  49.2312500  11.8333650  78.9787440  50.0802920
  10.4843630  78.9497580  49.3938280  11.8914800  76.1638520  51.2351650
  12.4735570  75.4090840  51.1472130  12.0676570  76.6945960  50.4583130
   3.0086870  71.3235270  49.5468600   2.9143740  70.7056020  48.8219470
   2.4284260  72.0501560  49.3198510   5.7748310  69.8808510  46.5795990
   5.3265610  69.9032770  45.7341540   5.1413510  69.4827530  47.1766290
   6.1807860  78.7762840  47.2008430   6.5995970  79.6195570  47.0284670
   5.2616490  78.9134880  46.9715210   8.5171760  76.5079020  48.5846270
   8.6367970  75.9120160  49.3241110   9.3765760  76.5448710  48.1647570
  10.8559660  77.0616210  47.1608780  10.3294880  77.5858830  46.5573920
  11.1991000  77.6943600  47.7918510   3.2546050  74.4509580  33.6058490
   3.0535110  73.5876940  33.9671830   3.0838100  74.3642940  32.6680090
   4.0315280  85.0815850  48.3166160   3.4936370  85.8061910  47.9974860
   4.2849240  84.6046190  47.5263500   5.2840530  73.0500370  49.8422090
   5.8740220  72.7416220  50.5299910   4.4660770  72.5780120  49.9981990
  10.1033960  72.6666180  50.0755110   9.4149480  72.0047720  50.0105100
  10.8239980  72.2204450  50.5203570  10.7334360  69.2617810  36.1345370
  11.0136650  68.4185710  36.4904790   9.9600090  69.4940920  36.6484120
   2.0528850  71.5510200  33.5936370   2.3554750  71.5577630  32.6855520
   2.7923440  71.2008060  34.0904030   6.8877490  86.3167060  48.5752810
   6.8136190  87.2202200  48.8825180   5.9856330  85.9978960  48.5474880
   5.2713780  70.4944820  34.5792570   4.9235780  69.8168810  33.9995020
   5.4726550  70.0334330  35.3935960   7.4362820  85.4825570  36.1979170
   8.3313610  85.8210540  36.2197930   7.4680450  84.7604980  35.5703450
   2.8866700  81.9750660  39.5388400   2.5862240  81.8515630  40.4392310
   2.7804190  81.1159250  39.1304130  14.4157170  84.0129240  48.9045370
  13.8159160  84.0721800  48.1609290  14.5451070  83.0734220  49.0342220
  15.6558620  81.7547060  34.2415080  14.8251580  81.8223710  34.7122310
  15.8330450  82.6451180  33.9381940  15.1115080  78.4994540  36.7449280
  15.8733990  79.0691190  36.8508970  15.1269450  77.9321740  37.5157590
  16.1175050  79.3544640  41.5891210  16.4883880  78.5711960  41.1827180
  16.7576980  80.0433740  41.4108510  13.1008810  80.7381220  47.0021530
  12.2868650  81.1678380  47.2647320  13.5083010  81.3499630  46.3890580
  15.1634250  78.7928910  33.9021800  15.4383090  79.7007790  33.7741020
  14.9744990  78.7291440  34.8383790  11.5609860  71.8173760  35.1975430
  11.9794740  71.6304740  34.3572090  11.2545920  70.9652810  35.5078360
  15.0599590  76.7297900  38.8951230  14.6843190  75.9625830  38.4632520
  14.3302710  77.1120600  39.3826160  14.4499210  75.8769420  48.5290750
  14.2185300  75.6482170  47.6288700  14.7103760  76.7968970  48.4835640
  12.8887280  71.1025850  51.3070450  13.7657460  71.1109250  51.6904450
  12.9008120  70.3656690  50.6962800  14.3350550  74.9555390  42.1958470
  14.8588030  74.4618040  41.5648640  14.9209970  75.0905750  42.9406040
  14.5140270  75.0395260  45.7178020  13.5642980  75.0058800  45.8323010
  14.6953280  75.9495370  45.4827790  13.8250520  74.2128740  38.1350880
  14.3209640  73.9799610  38.9199760  13.6266590  73.3740580  37.7188520
  15.2537680  72.8489690  40.6688560  15.1436960  72.6945730  41.6070830
  16.0145270  72.3210630  40.4263970  13.6003400  68.7883820  47.1271560
  14.2375620  69.4017960  47.4930750  13.7478290  68.8244480  46.1820790
  16.1427950  70.6797610  33.9094700  17.0677260  70.5478790  33.7012990
  16.1203740  70.7590430  34.8631150  16.2166440  71.4508270  36.5351410
  15.4217940  71.3853390  37.0644320  16.4209720  72.3858910  36.5236760
  13.1584860  85.4899820  40.5289800  13.7543930  85.1684390  39.8524220
  13.4163010  85.0171640  41.3203070   4.7653460  83.4777320  46.2790150
   4.5244820  83.7451880  45.3920670   5.7056100  83.6483050  46.3341010
   6.9707880  69.9410010  50.0346660   6.9096770  70.5331840  50.7842070
   7.9108260  69.8335970  49.8896920   9.6082440  69.5980070  49.6738950
  10.2222850  69.9159360  49.0120030  10.1532000  69.1128660  50.2934810
  10.3490480  68.1612210  46.0008240   9.4750320  68.4947320  45.7981170
  10.2401230  67.6885390  46.8260110  11.2562460  70.3683080  47.3849960
  10.9275820  69.5534840  47.0051690  12.2044760  70.3252890  47.2615650
  13.7097070  86.1395120  44.3587530  13.2500040  86.8910930  43.9845550
  13.0809530  85.4201590  44.3002330   4.1392790  84.4483360  43.5335660
   4.6557810  83.8370720  43.0083920   4.7890170  84.9512140  44.0246670
   6.8788290  85.3391850  44.3604640   7.1666100  85.0846150  43.4837650
   7.3911510  84.7869210  44.9510210   8.0965300  69.0782050  44.9401150
   7.3137090  69.5527550  45.2197910   7.8028230  68.1736880  44.8314330
  12.6486370  69.7805150  42.9850240  13.0894460  69.7250250  42.1371840
  12.3793960  70.6963160  43.0560420  14.5124940  69.4120390  40.9959060
  14.4513340  68.4681610  40.8490080  15.2916970  69.5200480  41.5412520
   5.9819520  71.4968800  40.4517180   5.1694030  71.1225690  40.1113060
   6.4861160  70.7413880  40.7538370  10.4844500  68.1611250  41.6900250
  11.0873870  68.7331460  42.1648770   9.7437490  68.7250690  41.4674150
  13.6279100  68.5632810  36.9640530  13.8229730  69.4616260  37.2307960
  12.8408970  68.3319890  37.4573480   1.8130860  69.9093580  36.0016840
   2.3423620  69.1223380  35.8724790   2.4459180  70.5884770  36.2352370
   4.0068700  69.6468720  39.0562230   3.3771440  68.9456030  39.2232360
   3.4673840  70.4072850  38.8395390   6.9460650  86.2607950  51.7272840
   7.8727960  86.0252220  51.7708800   6.9311080  87.0879950  51.2458870
  15.1805710  85.8033520  38.7247090  15.3557900  85.1171260  38.0808010
  14.4827280  86.3280570  38.3323760   4.1324260  68.9252700  51.4914720
   3.8508530  69.4286300  50.7275540   4.5143960  68.1274450  51.1256850
   3.0233360  86.1928360  36.2782400   3.7552180  85.9087640  35.7306290
   3.2827030  85.9541640  37.1681780   2.1848150  82.3093090  36.2828730
   1.5557030  82.7778190  36.8314560   2.2995980  81.4642310  36.7174920
  10.7339720  68.3406280  52.0695190  10.6205170  68.6600890  52.9646710
  11.5509460  68.7418790  51.7732470  13.5138210  85.4877810  51.5513880
  14.3063530  84.9927040  51.3439840  13.8071360  86.1667950  52.1589490
   9.6397870  76.3598750  22.4329930   9.5591920  75.4453360  22.1621640
   9.2262290  76.8565820  21.7269640   7.7715910  78.1377770  24.3139200
   6.9958010  77.6578210  24.6037770   8.4228840  77.4583420  24.1395360
  11.7923340  82.5437960  23.0938330  11.3304870  81.7725200  23.4225500
  12.6048890  82.5704030  23.5990780   1.7683000  82.4837670  25.3872980
   2.0711040  81.5935410  25.2083200   2.5126590  83.0407890  25.1595230
   8.0186650  84.8295970  22.7142320   7.3998090  85.2853470  22.1436760
   8.8738430  84.9847430  22.3132020   7.2124900  80.8134960  24.3209360
   7.1433180  79.8724900  24.1598490   7.9744760  80.9036370  24.8931930
   8.2430070  73.6205340  24.5478290   8.6194890  72.7477220  24.4351960
   8.1449580  73.9564040  23.6568730   2.3735080  71.9930970  20.0095730
   2.4801830  72.8934700  20.3164490   1.4627440  71.9448940  19.7190380
  12.0254190  71.1155780  21.4806630  12.8463810  70.6252350  21.5232110
  12.0588270  71.7053440  22.2338470   4.2142810  74.9617340  24.3420910
   4.7221030  75.4598310  24.9825930   4.7456050  74.1852540  24.1660270
  16.3153740  73.1322530  28.0450260  15.6105910  73.5204240  27.5265370
  16.5811660  73.8272820  28.6471190   2.4978910  69.6015900  28.6084330
   2.4997350  70.1188290  27.8030230   1.6683220  69.1246080  28.5854260
   8.8850000  79.7135210  20.1074230   8.2667270  80.1784660  19.5436950
   9.3973250  80.4062690  20.5243740   3.7481760  79.2411080  26.7857830
   3.4151140  79.8680000  27.4278900   3.9248440  79.7672960  26.0059500
  12.2615670  73.0556160  24.2534170  11.5571240  73.3441050  24.8337280
  12.6227830  73.8656270  23.8933730   2.1794240  71.3125860  26.6154780
   2.5211050  72.1567910  26.3208650   1.2410050  71.4609600  26.7320120
   2.9600860  81.2091880  28.6007010   3.5774860  81.8842960  28.3191460
   2.0993980  81.6179860  28.5094510  13.8778450  82.6731290  26.5161650
  13.1941970  83.3430400  26.5078320  14.4172740  82.8711940  25.7506510
  15.3302590  72.5010950  24.6443380  14.3827500  72.5349930  24.7758810
  15.6552580  73.3149900  25.0292740   5.8622130  68.8008130  22.9399370
   6.1697110  68.2455020  22.2234870   4.9322830  68.9352590  22.7572360
  11.4137190  84.5175420  25.2306830  11.4264350  84.1137710  24.3629090
  10.8612410  85.2922710  25.1268260  12.7082610  81.2391640  20.3197000
  12.5978940  80.2965970  20.4446420  12.7050860  81.6007280  21.2059760
  10.8122630  79.4205260  26.5589440  11.2291420  79.2065370  25.7242900
  11.5362450  79.6778050  27.1298060   8.2502890  76.8656960  19.6759490
   7.3232170  76.7994340  19.9047960   8.4027710  77.8037090  19.5614730
   8.2371970  73.1373960  16.6726650   7.2975640  73.2987920  16.7579110
   8.5555230  73.8559640  16.1262640  14.7584730  77.8192480  26.6505680
  13.9303360  77.8885570  26.1755810  15.3535210  78.4046790  26.1821510
  12.2800180  78.4277260  20.1794740  11.6612600  78.0896810  19.5321040
  12.2624630  77.7837020  20.8873930  11.7226740  74.6061800  27.5960550
  11.3097920  75.4315510  27.8500540  10.9902690  74.0206840  27.4036910
   3.8559530  77.3921700  22.4579220   3.4516530  76.6798950  21.9625120
   3.9422650  77.0474940  23.3467260   4.3241230  81.0789260  24.6218430
   4.0269520  80.4734730  23.9426210   5.2741050  81.1166570  24.5107790
   2.5688150  74.1664910  26.2378260   3.1202740  74.2760250  25.4631510
   3.0831660  74.5402510  26.9533490  12.4126840  84.6521130  28.2841530
  11.9357400  85.4593320  28.0914140  11.7288630  83.9999460  28.4367740
   3.4159660  80.8170950  31.2726230   2.5188190  81.0410920  31.5199630
   3.4412530  80.9405890  30.3237630  10.4564880  77.6664070  17.1867490
  10.8958160  76.8286500  17.0405310  11.1693300  78.2993470  17.2731630
   2.2430880  77.6884270  29.8483600   2.1038650  78.5607070  30.2171000
   1.3612240  77.3457080  29.7031540   8.5660260  82.6060140  21.1548730
   9.0056170  83.3484470  20.7404120   8.5047150  82.8486710  22.0787690
   4.0411230  83.6305970  32.0568750   4.0126660  84.0348920  31.1897180
   3.8776200  82.7016330  31.8940350  14.0382020  68.9206880  15.5008530
  13.7254680  69.0133710  16.4007600  14.7994490  69.4987910  15.4505960
  15.9926050  84.4133070  33.3532920  16.4685770  84.8915960  34.0322000
  16.6133210  84.3450560  32.6278420  15.3959300  81.6045920  30.5132930
  15.5222360  81.3657800  29.5950110  15.4380680  80.7730460  30.9855010
   9.2576040  85.3073920  29.0827740   9.7720710  85.2181930  29.8850170
   8.4145120  85.6533620  29.3755650  11.2330440  85.5929260  18.5111740
  11.0731580  85.3032200  19.4093570  11.0677150  84.8169390  17.9756970
   3.7118820  85.3727790  20.2883360   3.5361300  84.4563330  20.0751160
   2.8574560  85.7315080  20.5281160  10.9356570  83.1016820  17.0709740
  10.2421730  83.0994110  16.4112020  11.6779430  82.6776140  16.6403910
  10.5006500  84.7279530  21.1458230  10.9563450  83.9468910  21.4596850
  10.8399020  85.4386350  21.6899410  15.2483310  73.6578380  31.4782670
  14.6327580  74.1658050  30.9498130  14.9279730  72.7576710  31.4208610
   3.0227820  69.6301750  23.3409540   2.5795970  70.4111290  23.0094060
   3.5812810  69.9531640  24.0480480   7.3097630  72.4970270  28.9444860
   6.8477000  72.7053290  29.7564800   6.9075740  71.6829620  28.6415530
  12.3102140  73.7179220  30.0741520  11.4595730  73.4184970  30.3950590
  12.1503930  73.9621230  29.1625340   9.4051850  75.2180970  32.1740310
   9.7305260  74.3844720  31.8342540  10.1932180  75.7409490  32.3218640
   6.1386640  69.2512450  18.2215370   5.5140820  69.2472320  18.9468680
   6.0516760  68.3843410  17.8251340   5.0603720  70.1749080  25.1999140
   5.3576050  71.0811910  25.1191160   5.6089280  69.6867860  24.5858710
   2.8142040  74.7535320  21.0690790   2.5882960  74.5372490  21.9737410
   2.0334570  75.1863780  20.7236760  10.0439800  74.7598690  19.6681440
   9.4448690  75.4834490  19.4845060  10.5919410  74.6975470  18.8857890
   5.2541250  75.6520900  31.7351060   5.1584850  74.7115630  31.5851460
   6.0973230  75.8735970  31.3399130   8.6504670  73.3962230  21.6984720
   9.0434240  73.7134430  20.8853410   9.0121520  72.5174110  21.8129240
   6.9596840  72.1469540  32.9581580   6.2695160  71.9541740  33.5927670
   7.7029140  72.4304180  33.4905880   9.2359810  75.9867980  25.7935500
   8.5040930  76.4954790  26.1425600   8.8384150  75.1697960  25.4924280
   5.6737200  72.6622180  24.1987990   5.6773260  72.2212130  23.3492530
   6.5688320  72.9839510  24.3059810   5.7357350  73.6634260  17.1894750
   5.8570170  73.6220740  18.1380570   5.3505860  74.5258410  17.0341480
   9.6985720  71.4401660  25.2058440   9.7158460  71.8910310  26.0500290
   9.4501300  70.5407300  25.4191880   4.7478850  75.9735400  16.5878050
   4.1795750  75.5253650  15.9613960   5.4567850  76.3328180  16.0543200
  13.1256470  68.8533840  31.0444820  13.4502240  68.1223500  31.5702800
  13.1612980  68.5347480  30.1425810   5.9745170  76.7223960  25.9453400
   6.3415300  76.2482530  26.6914740   5.7850230  77.5965530  26.2861740
   3.7644540  75.7632600  28.2637610   3.4601610  76.6424580  28.4887970
   4.7191000  75.8232390  28.2995050   2.2926330  79.9693590  18.8604460
   1.5188590  79.4291210  18.7003180   3.0220960  79.4500200  18.5222220
  13.0514310  78.9658950  24.6530850  13.7713430  79.4614240  24.2626960
  12.8496130  78.2876840  24.0084720   8.5124250  70.3596910  18.7960240
   7.6988860  69.8610080  18.7205550   8.3186200  71.1995160  18.3796590
   8.4333110  79.0368010  30.5399850   8.3670420  78.1163680  30.2857440
   7.8038250  79.1343450  31.2544490  11.2272640  74.7316560  17.0922400
  12.1152260  75.0433790  16.9173740  11.1977730  73.8588810  16.7002980
   2.3363730  79.6373970  22.4983270   2.8542400  78.8342230  22.4440160
   1.8847750  79.5753110  23.3400100   7.2233230  80.9040250  17.7710570
   7.5648930  81.6482480  17.2753890   6.3945940  81.2171370  18.1335400
   3.0221390  77.0619580  32.2948520   2.7221530  77.2076760  31.3976340
   3.7932630  76.5024870  32.2021910   8.3649840  81.8588580  30.2903650
   8.3794380  80.9269540  30.0722560   7.6574940  81.9448340  30.9293420
  13.4986910  76.0428400  16.5602260  13.4150630  76.4742620  15.7098700
  14.2181100  76.5026750  16.9929080  14.5761050  78.4995920  29.6372230
  13.8509240  79.0924700  29.4401620  15.1036510  78.4919460  28.8385600
  14.5274160  82.8970660  19.2884390  13.8850320  82.2426280  19.5628110
  14.1404820  83.3025750  18.5125060  10.1060640  80.2256090  23.1356080
  10.4584460  79.6284220  22.4757450   9.2222970  79.9000320  23.3064330
   6.1923920  80.9853780  20.5426490   6.8795050  81.5322990  20.9234080
   5.4056340  81.5294510  20.5776100   5.4951130  77.9899810  20.1551850
   5.9513910  78.8005060  20.3812040   5.1439340  77.6722950  20.9870340
   7.7983740  83.5006150  27.3844150   8.4425960  83.7065530  28.0617570
   8.1613180  82.7394550  26.9315000   9.0715820  81.5038500  26.1021600
   9.7138050  80.8031660  26.2153770   9.5965170  82.2836940  25.9218490
  12.9171540  81.7887120  15.8260740  12.6909120  81.0717560  16.4185380
  12.5267740  81.5399560  14.9882490  10.8453440  82.3033400  29.3057660
  11.1809680  82.8900090  29.9835580   9.9253780  82.1726110  29.5355450
  12.4987790  79.7059060  17.4874900  12.2109490  80.1671750  18.2752780
  13.2939960  79.2456830  17.7559120   6.6742020  82.3524730  32.4745720
   6.3538890  81.6333970  33.0191410   6.0000380  83.0279800  32.5481780
   4.7156190  83.1985180  17.4178870   4.7066290  83.9314870  16.8023380
   3.7954550  82.9516760  17.5105830   9.8895620  72.5850890  27.8382520
  10.2576440  71.7646100  28.1662090   9.0293820  72.6452780  28.2538170
  13.2557650  71.5407830  18.6470080  12.6270810  71.6453500  17.9328310
  12.7609570  71.7604610  19.4363960   7.7015790  83.2613420  16.0804060
   7.8027770  83.0577410  15.1506040   6.8017530  83.0071700  16.2851840
   5.2241680  73.8193780  20.0627960   4.5157830  74.2880120  20.5041570
   5.5086160  73.1615790  20.6973150   6.8497610  75.2390480  28.0620490
   7.3482860  75.7136300  28.7272340   6.9920560  74.3154000  28.2690520
   9.2557110  70.5444440  21.5023750   9.1324890  70.5630570  20.5533260
  10.2041670  70.5923380  21.6222150   6.3433900  85.7799740  20.7751730
   6.5975400  85.7421130  19.8531100   5.3946380  85.6533070  20.7679980
   3.4276700  72.1278860  17.4378670   4.2767230  72.5649010  17.3718860
   3.0607970  72.4399120  18.2650730  14.0564470  71.4558440  28.9048880
  13.5538070  72.1963840  29.2442690  14.8721130  71.8442440  28.5885670
  12.3486480  76.6991620  22.3510240  11.4076620  76.7141850  22.5257930
  12.6630550  75.9127580  22.7970540   2.3268120  78.3811220  15.9114200
   3.0931390  78.2692580  16.4739630   2.4042810  77.6849190  15.2590970
  14.3512060  83.8700470  24.0264500  14.4759480  84.6931640  24.4988310
  15.2177620  83.6591200  23.6788650   1.8229590  85.9631680  23.6981630
   2.5592070  85.4147140  23.9690200   2.2070510  86.8287690  23.5587620
   4.9331900  85.1361990  15.5207200   5.7260510  85.4250820  15.0688990
   4.4136250  84.7054160  14.8419680   9.6652500  81.2557620  32.8342620
   9.0590660  81.2789220  32.0938370   9.3606610  80.5240660  33.3709870
  11.0952870  84.9837910  31.4452030  12.0474620  84.8995930  31.3952270
  10.9481090  85.6479620  32.1185820  13.9862070  84.3632120  16.9443940
  13.7003580  83.9497260  16.1298120  13.7881620  85.2919830  16.8244460
   5.4509300  80.3565400  15.3849550   5.3459940  79.7417750  16.1110930
   5.2833520  79.8331290  14.6012560   5.6023620  79.0422200  31.3638780
   4.8369290  79.6107200  31.2793450   5.7839580  78.7498410  30.4707010
   8.6912030  79.4185430  15.9891540   8.1422130  79.8654730  16.6334280
   9.3131290  78.9134680  16.5129210  12.7446970  80.7727530  31.9213800
  13.4856440  81.1103290  31.4181260  11.9819650  80.9419590  31.3683570
   4.3587150  78.3776350  17.8856840   4.7803570  78.2116220  18.7288230
   4.4837990  77.5676580  17.3911980   2.5214570  74.3572900  30.6927820
   1.9911030  73.8663850  30.0651160   3.1902640  74.7857100  30.1585750
   6.8714790  77.4013960  15.1333940   7.3920450  76.6862980  14.7675090
   7.5183190  78.0399830  15.4334450  11.4192630  78.8242360  30.4569010
  11.8333650  78.9787440  31.3059430  10.4843630  78.9497580  30.6194790
  11.8914800  76.1638520  32.4608160  12.4735570  75.4090840  32.3728640
  12.0676570  76.6945960  31.6839640   3.0086870  71.3235270  30.7725110
   2.9143740  70.7056020  30.0475980   2.4284260  72.0501560  30.5455020
   5.7748310  69.8808510  27.8052500   5.3265610  69.9032770  26.9598050
   5.1413510  69.4827530  28.4022800   6.1807860  78.7762840  28.4264940
   6.5995970  79.6195570  28.2541180   5.2616490  78.9134880  28.1971720
   8.5171760  76.5079020  29.8102780   8.6367970  75.9120160  30.5497620
   9.3765760  76.5448710  29.3904080  10.8559660  77.0616210  28.3865290
  10.3294880  77.5858830  27.7830430  11.1991000  77.6943600  29.0175020
   3.2546050  74.4509580  14.8315000   3.0535110  73.5876940  15.1928340
   3.0838100  74.3642940  13.8936600   4.0315280  85.0815850  29.5422670
   3.4936370  85.8061910  29.2231370   4.2849240  84.6046190  28.7520010
   5.2840530  73.0500370  31.0678600   5.8740220  72.7416220  31.7556420
   4.4660770  72.5780120  31.2238500  10.1033960  72.6666180  31.3011620
   9.4149480  72.0047720  31.2361610  10.8239980  72.2204450  31.7460080
  10.7334360  69.2617810  17.3601880  11.0136650  68.4185710  17.7161300
   9.9600090  69.4940920  17.8740630   2.0528850  71.5510200  14.8192880
   2.3554750  71.5577630  13.9112030   2.7923440  71.2008060  15.3160540
   6.8877490  86.3167060  29.8009320   6.8136190  87.2202200  30.1081690
   5.9856330  85.9978960  29.7731390   5.2713780  70.4944820  15.8049080
   4.9235780  69.8168810  15.2251530   5.4726550  70.0334330  16.6192470
   7.4362820  85.4825570  17.4235680   8.3313610  85.8210540  17.4454440
   7.4680450  84.7604980  16.7959960   2.8866700  81.9750660  20.7644910
   2.5862240  81.8515630  21.6648820   2.7804190  81.1159250  20.3560640
  14.4157170  84.0129240  30.1301880  13.8159160  84.0721800  29.3865800
  14.5451070  83.0734220  30.2598730  15.6558620  81.7547060  15.4671590
  14.8251580  81.8223710  15.9378820  15.8330450  82.6451180  15.1638450
  15.1115080  78.4994540  17.9705790  15.8733990  79.0691190  18.0765480
  15.1269450  77.9321740  18.7414100  16.1175050  79.3544640  22.8147720
  16.4883880  78.5711960  22.4083690  16.7576980  80.0433740  22.6365020
  13.1008810  80.7381220  28.2278040  12.2868650  81.1678380  28.4903830
  13.5083010  81.3499630  27.6147090  15.1634250  78.7928910  15.1278310
  15.4383090  79.7007790  14.9997530  14.9744990  78.7291440  16.0640300
  11.5609860  71.8173760  16.4231940  11.9794740  71.6304740  15.5828600
  11.2545920  70.9652810  16.7334870  15.0599590  76.7297900  20.1207740
  14.6843190  75.9625830  19.6889030  14.3302710  77.1120600  20.6082670
  14.4499210  75.8769420  29.7547260  14.2185300  75.6482170  28.8545210
  14.7103760  76.7968970  29.7092150  12.8887280  71.1025850  32.5326960
  13.7657460  71.1109250  32.9160960  12.9008120  70.3656690  31.9219310
  14.3350550  74.9555390  23.4214980  14.8588030  74.4618040  22.7905150
  14.9209970  75.0905750  24.1662550  14.5140270  75.0395260  26.9434530
  13.5642980  75.0058800  27.0579520  14.6953280  75.9495370  26.7084300
  13.8250520  74.2128740  19.3607390  14.3209640  73.9799610  20.1456270
  13.6266590  73.3740580  18.9445030  15.2537680  72.8489690  21.8945070
  15.1436960  72.6945730  22.8327340  16.0145270  72.3210630  21.6520480
  13.6003400  68.7883820  28.3528070  14.2375620  69.4017960  28.7187260
  13.7478290  68.8244480  27.4077300  16.1427950  70.6797610  15.1351210
  17.0677260  70.5478790  14.9269500  16.1203740  70.7590430  16.0887660
  16.2166440  71.4508270  17.7607920  15.4217940  71.3853390  18.2900830
  16.4209720  72.3858910  17.7493270  13.1584860  85.4899820  21.7546310
  13.7543930  85.1684390  21.0780730  13.4163010  85.0171640  22.5459580
   4.7653460  83.4777320  27.5046660   4.5244820  83.7451880  26.6177180
   5.7056100  83.6483050  27.5597520   6.9707880  69.9410010  31.2603170
   6.9096770  70.5331840  32.0098580   7.9108260  69.8335970  31.1153430
   9.6082440  69.5980070  30.8995460  10.2222850  69.9159360  30.2376540
  10.1532000  69.1128660  31.5191320  16.0257620  85.4971700  28.3057300
  15.5315900  85.8940570  27.5884430  15.4170910  84.8720910  28.6994580
  10.3490480  68.1612210  27.2264750   9.4750320  68.4947320  27.0237680
  10.2401230  67.6885390  28.0516620  11.2562460  70.3683080  28.6106470
  10.9275820  69.5534840  28.2308200  12.2044760  70.3252890  28.4872160
  13.7097070  86.1395120  25.5844040  13.2500040  86.8910930  25.2102060
  13.0809530  85.4201590  25.5258840   4.1392790  84.4483360  24.7592170
   4.6557810  83.8370720  24.2340430   4.7890170  84.9512140  25.2503180
   6.8788290  85.3391850  25.5861150   7.1666100  85.0846150  24.7094160
   7.3911510  84.7869210  26.1766720   8.0965300  69.0782050  26.1657660
   7.3137090  69.5527550  26.4454420   7.8028230  68.1736880  26.0570840
  12.6486370  69.7805150  24.2106750  13.0894460  69.7250250  23.3628350
  12.3793960  70.6963160  24.2816930  14.5124940  69.4120390  22.2215570
  14.4513340  68.4681610  22.0746590  15.2916970  69.5200480  22.7669030
   5.9819520  71.4968800  21.6773690   5.1694030  71.1225690  21.3369570
   6.4861160  70.7413880  21.9794880  10.4844500  68.1611250  22.9156760
  11.0873870  68.7331460  23.3905280   9.7437490  68.7250690  22.6930660
  13.6279100  68.5632810  18.1897040  13.8229730  69.4616260  18.4564470
  12.8408970  68.3319890  18.6829990   1.8130860  69.9093580  17.2273350
   2.3423620  69.1223380  17.0981300   2.4459180  70.5884770  17.4608880
   4.0068700  69.6468720  20.2818740   3.3771440  68.9456030  20.4488870
   3.4673840  70.4072850  20.0651900   6.9460650  86.2607950  32.9529350
   7.8727960  86.0252220  32.9965310   6.9311080  87.0879950  32.4715380
  15.1805710  85.8033520  19.9503600  15.3557900  85.1171260  19.3064520
  14.4827280  86.3280570  19.5580270   4.1324260  68.9252700  32.7171230
   3.8508530  69.4286300  31.9532050   4.5143960  68.1274450  32.3513360
   3.0233360  86.1928360  17.5038910   3.7552180  85.9087640  16.9562800
   3.2827030  85.9541640  18.3938290   2.1848150  82.3093090  17.5085240
   1.5557030  82.7778190  18.0571070   2.2995980  81.4642310  17.9431430
  10.7339720  68.3406280  33.2951700  10.6205170  68.6600890  34.1903220
  11.5509460  68.7418790  32.9988980  13.5138210  85.4877810  32.7770390
  14.3063530  84.9927040  32.5696350  13.8071360  86.1667950  33.3846000
   9.6397870  76.3598750   3.6586440   9.5591920  75.4453360   3.3878150
   9.2262290  76.8565820   2.9526150   7.7715910  78.1377770   5.5395710
   6.9958010  77.6578210   5.8294280   8.4228840  77.4583420   5.3651870
  11.7923340  82.5437960   4.3194840  11.3304870  81.7725200   4.6482010
  12.6048890  82.5704030   4.8247290   1.7683000  82.4837670   6.6129490
   2.0711040  81.5935410   6.4339710   2.5126590  83.0407890   6.3851740
   8.0186650  84.8295970   3.9398830   7.3998090  85.2853470   3.3693270
   8.8738430  84.9847430   3.5388530   7.2124900  80.8134960   5.5465870
   7.1433180  79.8724900   5.3855000   7.9744760  80.9036370   6.1188440
   8.2430070  73.6205340   5.7734800   8.6194890  72.7477220   5.6608470
   8.1449580  73.9564040   4.8825240  12.0254190  71.1155780   2.7063140
  12.8463810  70.6252350   2.7488620  12.0588270  71.7053440   3.4594980
   4.2142810  74.9617340   5.5677420   4.7221030  75.4598310   6.2082440
   4.7456050  74.1852540   5.3916780  16.3153740  73.1322530   9.2706770
  15.6105910  73.5204240   8.7521880  16.5811660  73.8272820   9.8727700
   2.4978910  69.6015900   9.8340840   2.4997350  70.1188290   9.0286740
   1.6683220  69.1246080   9.8110770   3.7481760  79.2411080   8.0114340
   3.4151140  79.8680000   8.6535410   3.9248440  79.7672960   7.2316010
  12.2615670  73.0556160   5.4790680  11.5571240  73.3441050   6.0593790
  12.6227830  73.8656270   5.1190240   2.1794240  71.3125860   7.8411290
   2.5211050  72.1567910   7.5465160   1.2410050  71.4609600   7.9576630
   2.9600860  81.2091880   9.8263520   3.5774860  81.8842960   9.5447970
   2.0993980  81.6179860   9.7351020  13.8778450  82.6731290   7.7418160
  13.1941970  83.3430400   7.7334830  14.4172740  82.8711940   6.9763020
  15.3302590  72.5010950   5.8699890  14.3827500  72.5349930   6.0015320
  15.6552580  73.3149900   6.2549250   5.8622130  68.8008130   4.1655880
   6.1697110  68.2455020   3.4491380   4.9322830  68.9352590   3.9828870
  11.4137190  84.5175420   6.4563340  11.4264350  84.1137710   5.5885600
  10.8612410  85.2922710   6.3524770  10.8122630  79.4205260   7.7845950
  11.2291420  79.2065370   6.9499410  11.5362450  79.6778050   8.3554570
  14.7584730  77.8192480   7.8762190  13.9303360  77.8885570   7.4012320
  15.3535210  78.4046790   7.4078020  11.7226740  74.6061800   8.8217060
  11.3097920  75.4315510   9.0757050  10.9902690  74.0206840   8.6293420
   3.8559530  77.3921700   3.6835730   3.4516530  76.6798950   3.1881630
   3.9422650  77.0474940   4.5723770   4.3241230  81.0789260   5.8474940
   4.0269520  80.4734730   5.1682720   5.2741050  81.1166570   5.7364300
   2.5688150  74.1664910   7.4634770   3.1202740  74.2760250   6.6888020
   3.0831660  74.5402510   8.1790000  12.4126840  84.6521130   9.5098040
  11.9357400  85.4593320   9.3170650  11.7288630  83.9999460   9.6624250
   3.4159660  80.8170950  12.4982740   2.5188190  81.0410920  12.7456140
   3.4412530  80.9405890  11.5494140   2.2430880  77.6884270  11.0740110
   2.1038650  78.5607070  11.4427510   1.3612240  77.3457080  10.9288050
   8.5660260  82.6060140   2.3805240   9.0056170  83.3484470   1.9660630
   8.5047150  82.8486710   3.3044200   4.0411230  83.6305970  13.2825260
   4.0126660  84.0348920  12.4153690   3.8776200  82.7016330  13.1196860
  15.9926050  84.4133070  14.5789430  16.4685770  84.8915960  15.2578510
  16.6133210  84.3450560  13.8534930  15.3959300  81.6045920  11.7389440
  15.5222360  81.3657800  10.8206620  15.4380680  80.7730460  12.2111520
   9.2576040  85.3073920  10.3084250   9.7720710  85.2181930  11.1106680
   8.4145120  85.6533620  10.6012160  10.5006500  84.7279530   2.3714740
  10.9563450  83.9468910   2.6853360  10.8399020  85.4386350   2.9155920
  15.2483310  73.6578380  12.7039180  14.6327580  74.1658050  12.1754640
  14.9279730  72.7576710  12.6465120   3.0227820  69.6301750   4.5666050
   2.5795970  70.4111290   4.2350570   3.5812810  69.9531640   5.2736990
   7.3097630  72.4970270  10.1701370   6.8477000  72.7053290  10.9821310
   6.9075740  71.6829620   9.8672040  12.3102140  73.7179220  11.2998030
  11.4595730  73.4184970  11.6207100  12.1503930  73.9621230  10.3881850
   9.4051850  75.2180970  13.3996820   9.7305260  74.3844720  13.0599050
  10.1932180  75.7409490  13.5475150   5.0603720  70.1749080   6.4255650
   5.3576050  71.0811910   6.3447670   5.6089280  69.6867860   5.8115220
   2.8142040  74.7535320   2.2947300   2.5882960  74.5372490   3.1993920
   2.0334570  75.1863780   1.9493270   5.2541250  75.6520900  12.9607570
   5.1584850  74.7115630  12.8107970   6.0973230  75.8735970  12.5655640
   8.6504670  73.3962230   2.9241230   9.0434240  73.7134430   2.1109920
   9.0121520  72.5174110   3.0385750   6.9596840  72.1469540  14.1838090
   6.2695160  71.9541740  14.8184180   7.7029140  72.4304180  14.7162390
   9.2359810  75.9867980   7.0192010   8.5040930  76.4954790   7.3682110
   8.8384150  75.1697960   6.7180790   5.6737200  72.6622180   5.4244500
   5.6773260  72.2212130   4.5749040   6.5688320  72.9839510   5.5316320
   9.6985720  71.4401660   6.4314950   9.7158460  71.8910310   7.2756800
   9.4501300  70.5407300   6.6448390  13.1256470  68.8533840  12.2701330
  13.4502240  68.1223500  12.7959310  13.1612980  68.5347480  11.3682320
   5.9745170  76.7223960   7.1709910   6.3415300  76.2482530   7.9171250
   5.7850230  77.5965530   7.5118250   3.7644540  75.7632600   9.4894120
   3.4601610  76.6424580   9.7144480   4.7191000  75.8232390   9.5251560
  13.0514310  78.9658950   5.8787360  13.7713430  79.4614240   5.4883470
  12.8496130  78.2876840   5.2341230   8.4333110  79.0368010  11.7656360
   8.3670420  78.1163680  11.5113950   7.8038250  79.1343450  12.4801000
   2.3363730  79.6373970   3.7239780   2.8542400  78.8342230   3.6696670
   1.8847750  79.5753110   4.5656610   3.0221390  77.0619580  13.5205030
   2.7221530  77.2076760  12.6232850   3.7932630  76.5024870  13.4278420
   8.3649840  81.8588580  11.5160160   8.3794380  80.9269540  11.2979070
   7.6574940  81.9448340  12.1549930  14.5761050  78.4995920  10.8628740
  13.8509240  79.0924700  10.6658130  15.1036510  78.4919460  10.0642110
  10.1060640  80.2256090   4.3612590  10.4584460  79.6284220   3.7013960
   9.2222970  79.9000320   4.5320840   6.1923920  80.9853780   1.7683000
   6.8795050  81.5322990   2.1490590   5.4056340  81.5294510   1.8032610
   7.7983740  83.5006150   8.6100660   8.4425960  83.7065530   9.2874080
   8.1613180  82.7394550   8.1571510   9.0715820  81.5038500   7.3278110
   9.7138050  80.8031660   7.4410280   9.5965170  82.2836940   7.1475000
  10.8453440  82.3033400  10.5314170  11.1809680  82.8900090  11.2092090
   9.9253780  82.1726110  10.7611960   6.6742020  82.3524730  13.7002230
   6.3538890  81.6333970  14.2447920   6.0000380  83.0279800  13.7738290
   9.8895620  72.5850890   9.0639030  10.2576440  71.7646100   9.3918600
   9.0293820  72.6452780   9.4794680   6.8497610  75.2390480   9.2877000
   7.3482860  75.7136300   9.9528850   6.9920560  74.3154000   9.4947030
   9.2557110  70.5444440   2.7280260   9.1324890  70.5630570   1.7789770
  10.2041670  70.5923380   2.8478660  14.0564470  71.4558440  10.1305390
  13.5538070  72.1963840  10.4699200  14.8721130  71.8442440   9.8142180
  12.3486480  76.6991620   3.5766750  11.4076620  76.7141850   3.7514440
  12.6630550  75.9127580   4.0227050  14.3512060  83.8700470   5.2521010
  14.4759480  84.6931640   5.7244820  15.2177620  83.6591200   4.9045160
   1.8229590  85.9631680   4.9238140   2.5592070  85.4147140   5.1946710
   2.2070510  86.8287690   4.7844130   9.6652500  81.2557620  14.0599130
   9.0590660  81.2789220  13.3194880   9.3606610  80.5240660  14.5966380
  11.0952870  84.9837910  12.6708540  12.0474620  84.8995930  12.6208780
  10.9481090  85.6479620  13.3442330   5.6023620  79.0422200  12.5895290
   4.8369290  79.6107200  12.5049960   5.7839580  78.7498410  11.6963520
  12.7446970  80.7727530  13.1470310  13.4856440  81.1103290  12.6437770
  11.9819650  80.9419590  12.5940080   2.5214570  74.3572900  11.9184330
   1.9911030  73.8663850  11.2907670   3.1902640  74.7857100  11.3842260
  11.4192630  78.8242360  11.6825520  11.8333650  78.9787440  12.5315940
  10.4843630  78.9497580  11.8451300  11.8914800  76.1638520  13.6864670
  12.4735570  75.4090840  13.5985150  12.0676570  76.6945960  12.9096150
   3.0086870  71.3235270  11.9981620   2.9143740  70.7056020  11.2732490
   2.4284260  72.0501560  11.7711530   5.7748310  69.8808510   9.0309010
   5.3265610  69.9032770   8.1854560   5.1413510  69.4827530   9.6279310
   6.1807860  78.7762840   9.6521450   6.5995970  79.6195570   9.4797690
   5.2616490  78.9134880   9.4228230   8.5171760  76.5079020  11.0359290
   8.6367970  75.9120160  11.7754130   9.3765760  76.5448710  10.6160590
  10.8559660  77.0616210   9.6121800  10.3294880  77.5858830   9.0086940
  11.1991000  77.6943600  10.2431530   4.0315280  85.0815850  10.7679180
   3.4936370  85.8061910  10.4487880   4.2849240  84.6046190   9.9776520
   5.2840530  73.0500370  12.2935110   5.8740220  72.7416220  12.9812930
   4.4660770  72.5780120  12.4495010  10.1033960  72.6666180  12.5268130
   9.4149480  72.0047720  12.4618120  10.8239980  72.2204450  12.9716590
   6.8877490  86.3167060  11.0265830   6.8136190  87.2202200  11.3338200
   5.9856330  85.9978960  10.9987900  14.4157170  84.0129240  11.3558390
  13.8159160  84.0721800  10.6122310  14.5451070  83.0734220  11.4855240
  16.1175050  79.3544640   4.0404230  16.4883880  78.5711960   3.6340200
  16.7576980  80.0433740   3.8621530  13.1008810  80.7381220   9.4534550
  12.2868650  81.1678380   9.7160340  13.5083010  81.3499630   8.8403600
  14.4499210  75.8769420  10.9803770  14.2185300  75.6482170  10.0801720
  14.7103760  76.7968970  10.9348660  12.8887280  71.1025850  13.7583470
  13.7657460  71.1109250  14.1417470  12.9008120  70.3656690  13.1475820
  14.3350550  74.9555390   4.6471490  14.8588030  74.4618040   4.0161660
  14.9209970  75.0905750   5.3919060  14.5140270  75.0395260   8.1691040
  13.5642980  75.0058800   8.2836030  14.6953280  75.9495370   7.9340810
  15.2537680  72.8489690   3.1201580  15.1436960  72.6945730   4.0583850
  16.0145270  72.3210630   2.8776990  13.6003400  68.7883820   9.5784580
  14.2375620  69.4017960   9.9443770  13.7478290  68.8244480   8.6333810
  13.1584860  85.4899820   2.9802820  13.7543930  85.1684390   2.3037240
  13.4163010  85.0171640   3.7716090   4.7653460  83.4777320   8.7303170
   4.5244820  83.7451880   7.8433690   5.7056100  83.6483050   8.7854030
   6.9707880  69.9410010  12.4859680   6.9096770  70.5331840  13.2355090
   7.9108260  69.8335970  12.3409940   9.6082440  69.5980070  12.1251970
  10.2222850  69.9159360  11.4633050  10.1532000  69.1128660  12.7447830
  16.0257620  85.4971700   9.5313810  15.5315900  85.8940570   8.8140940
  15.4170910  84.8720910   9.9251090  10.3490480  68.1612210   8.4521260
   9.4750320  68.4947320   8.2494190  10.2401230  67.6885390   9.2773130
  11.2562460  70.3683080   9.8362980  10.9275820  69.5534840   9.4564710
  12.2044760  70.3252890   9.7128670  13.7097070  86.1395120   6.8100550
  13.2500040  86.8910930   6.4358570  13.0809530  85.4201590   6.7515350
   4.1392790  84.4483360   5.9848680   4.6557810  83.8370720   5.4596940
   4.7890170  84.9512140   6.4759690   6.8788290  85.3391850   6.8117660
   7.1666100  85.0846150   5.9350670   7.3911510  84.7869210   7.4023230
   8.0965300  69.0782050   7.3914170   7.3137090  69.5527550   7.6710930
   7.8028230  68.1736880   7.2827350  12.6486370  69.7805150   5.4363260
  13.0894460  69.7250250   4.5884860  12.3793960  70.6963160   5.5073440
  14.5124940  69.4120390   3.4472080  14.4513340  68.4681610   3.3003100
  15.2916970  69.5200480   3.9925540   5.9819520  71.4968800   2.9030200
   5.1694030  71.1225690   2.5626080   6.4861160  70.7413880   3.2051390
  10.4844500  68.1611250   4.1413270  11.0873870  68.7331460   4.6161790
   9.7437490  68.7250690   3.9187170   6.9460650  86.2607950  14.1785860
   7.8727960  86.0252220  14.2221820   6.9311080  87.0879950  13.6971890
   4.1324260  68.9252700  13.9427740   3.8508530  69.4286300  13.1788560
   4.5143960  68.1274450  13.5769870  10.7339720  68.3406280  14.5208210
  10.6205170  68.6600890  15.4159730  11.5509460  68.7418790  14.2245490
  13.5138210  85.4877810  14.0026900  14.3063530  84.9927040  13.7952860
  13.8071360  86.1667950  14.6102510   9.6397870  57.5855260  97.5303890
   9.5591920  56.6709870  97.2595600   9.2262290  58.0822330  96.8243600
   7.7715910  59.3634280  99.4113160   6.9958010  58.8834720  99.7011730
   8.4228840  58.6839930  99.2369320  11.7923340  63.7694470  98.1912290
  11.3304870  62.9981710  98.5199460  12.6048890  63.7960540  98.6964740
   1.7683000  63.7094180 100.4846940   2.0711040  62.8191920 100.3057160
   2.5126590  64.2664400 100.2569190   8.0186650  66.0552480  97.8116280
   7.3998090  66.5109980  97.2410720   8.8738430  66.2103940  97.4105980
   7.2124900  62.0391470  99.4183320   7.1433180  61.0981410  99.2572450
   7.9744760  62.1292880  99.9905890   8.2430070  54.8461850  99.6452250
   8.6194890  53.9733730  99.5325920   8.1449580  55.1820550  98.7542690
   2.3735080  53.2187480  95.1069690   2.4801830  54.1191210  95.4138450
   1.4627440  53.1705450  94.8164340  12.0254190  52.3412290  96.5780590
  12.8463810  51.8508860  96.6206070  12.0588270  52.9309950  97.3312430
   4.2142810  56.1873850  99.4394870   4.7221030  56.6854820 100.0799890
   4.7456050  55.4109050  99.2634230   8.8850000  60.9391720  95.2048190
   8.2667270  61.4041170  94.6410910   9.3973250  61.6319200  95.6217700
   3.7481760  60.4667590 101.8831790   3.4151140  61.0936510 102.5252860
   3.9248440  60.9929470 101.1033460  12.2615670  54.2812670  99.3508130
  11.5571240  54.5697560  99.9311240  12.6227830  55.0912780  98.9907690
   2.1794240  52.5382370 101.7128740   2.5211050  53.3824420 101.4182610
   1.2410050  52.6866110 101.8294080  13.8778450  63.8987800 101.6135610
  13.1941970  64.5686910 101.6052280  14.4172740  64.0968450 100.8480470
  15.3302590  53.7267460  99.7417340  14.3827500  53.7606440  99.8732770
  15.6552580  54.5406410 100.1266700   5.8622130  50.0264640  98.0373330
   6.1697110  49.4711530  97.3208830   4.9322830  50.1609100  97.8546320
  11.4137190  65.7431930 100.3280790  11.4264350  65.3394220  99.4603050
  10.8612410  66.5179220 100.2242220  12.7082610  62.4648150  95.4170960
  12.5978940  61.5222480  95.5420380  12.7050860  62.8263790  96.3033720
  10.8122630  60.6461770 101.6563400  11.2291420  60.4321880 100.8216860
  11.5362450  60.9034560 102.2272020   8.2502890  58.0913470  94.7733450
   7.3232170  58.0250850  95.0021920   8.4027710  59.0293600  94.6588690
   8.2371970  54.3630470  91.7700610   7.2975640  54.5244430  91.8553070
   8.5555230  55.0816150  91.2236600  14.7584730  59.0448990 101.7479640
  13.9303360  59.1142080 101.2729770  15.3535210  59.6303300 101.2795470
  12.2800180  59.6533770  95.2768700  11.6612600  59.3153320  94.6295000
  12.2624630  59.0093530  95.9847890   3.8559530  58.6178210  97.5553180
   3.4516530  57.9055460  97.0599080   3.9422650  58.2731450  98.4441220
   4.3241230  62.3045770  99.7192390   4.0269520  61.6991240  99.0400170
   5.2741050  62.3423080  99.6081750   2.5688150  55.3921420 101.3352220
   3.1202740  55.5016760 100.5605470   3.0831660  55.7659020 102.0507450
  10.4564880  58.8920580  92.2841450  10.8958160  58.0543010  92.1379270
  11.1693300  59.5249980  92.3705590   8.5660260  63.8316650  96.2522690
   9.0056170  64.5740980  95.8378080   8.5047150  64.0743220  97.1761650
  14.0382020  50.1463390  90.5982490  13.7254680  50.2390220  91.4981560
  14.7994490  50.7244420  90.5479920  11.2330440  66.8185770  93.6085700
  11.0731580  66.5288710  94.5067530  11.0677150  66.0425900  93.0730930
   3.7118820  66.5984300  95.3857320   3.5361300  65.6819840  95.1725120
   2.8574560  66.9571590  95.6255120  10.9356570  64.3273330  92.1683700
  10.2421730  64.3250620  91.5085980  11.6779430  63.9032650  91.7377870
  10.5006500  65.9536040  96.2432190  10.9563450  65.1725420  96.5570810
  10.8399020  66.6642860  96.7873370   3.0227820  50.8558260  98.4383500
   2.5795970  51.6367800  98.1068020   3.5812810  51.1788150  99.1454440
   6.1386640  50.4768960  93.3189330   5.5140820  50.4728830  94.0442640
   6.0516760  49.6099920  92.9225300   5.0603720  51.4005590 100.2973100
   5.3576050  52.3068420 100.2165120   5.6089280  50.9124370  99.6832670
   2.8142040  55.9791830  96.1664750   2.5882960  55.7629000  97.0711370
   2.0334570  56.4120290  95.8210720  10.0439800  55.9855200  94.7655400
   9.4448690  56.7091000  94.5819020  10.5919410  55.9231980  93.9831850
   8.6504670  54.6218740  96.7958680   9.0434240  54.9390940  95.9827370
   9.0121520  53.7430620  96.9103200   9.2359810  57.2124490 100.8909460
   8.5040930  57.7211300 101.2399560   8.8384150  56.3954470 100.5898240
   5.6737200  53.8878690  99.2961950   5.6773260  53.4468640  98.4466490
   6.5688320  54.2096020  99.4033770   5.7357350  54.8890770  92.2868710
   5.8570170  54.8477250  93.2354530   5.3505860  55.7514920  92.1315440
   9.6985720  52.6658170 100.3032400   9.7158460  53.1166820 101.1474250
   9.4501300  51.7663810 100.5165840   4.7478850  57.1991910  91.6852010
   4.1795750  56.7510160  91.0587920   5.4567850  57.5584690  91.1517160
   5.9745170  57.9480470 101.0427360   6.3415300  57.4739040 101.7888700
   5.7850230  58.8222040 101.3835700   2.2926330  61.1950100  93.9578420
   1.5188590  60.6547720  93.7977140   3.0220960  60.6756710  93.6196180
  13.0514310  60.1915460  99.7504810  13.7713430  60.6870750  99.3600920
  12.8496130  59.5133350  99.1058680   8.5124250  51.5853420  93.8934200
   7.6988860  51.0866590  93.8179510   8.3186200  52.4251670  93.4770550
  11.2272640  55.9573070  92.1896360  12.1152260  56.2690300  92.0147700
  11.1977730  55.0845320  91.7976940   2.3363730  60.8630480  97.5957230
   2.8542400  60.0598740  97.5414120   1.8847750  60.8009620  98.4374060
   7.2233230  62.1296760  92.8684530   7.5648930  62.8738990  92.3727850
   6.3945940  62.4427880  93.2309360  13.4986910  57.2684910  91.6576220
  13.4150630  57.6999130  90.8072660  14.2181100  57.7283260  92.0903040
  14.5274160  64.1227170  94.3858350  13.8850320  63.4682790  94.6602070
  14.1404820  64.5282260  93.6099020  10.1060640  61.4512600  98.2330040
  10.4584460  60.8540730  97.5731410   9.2222970  61.1256830  98.4038290
   6.1923920  62.2110290  95.6400450   6.8795050  62.7579500  96.0208040
   5.4056340  62.7551020  95.6750060   5.4951130  59.2156320  95.2525810
   5.9513910  60.0261570  95.4786000   5.1439340  58.8979460  96.0844300
   9.0715820  62.7295010 101.1995560   9.7138050  62.0288170 101.3127730
   9.5965170  63.5093450 101.0192450  12.9171540  63.0143630  90.9234700
  12.6909120  62.2974070  91.5159340  12.5267740  62.7656070  90.0856450
  12.4987790  60.9315570  92.5848860  12.2109490  61.3928260  93.3726740
  13.2939960  60.4713340  92.8533080   4.7156190  64.4241690  92.5152830
   4.7066290  65.1571380  91.8997340   3.7954550  64.1773270  92.6079790
  13.2557650  52.7664340  93.7444040  12.6270810  52.8710010  93.0302270
  12.7609570  52.9861120  94.5337920   7.7015790  64.4869930  91.1778020
   7.8027770  64.2833920  90.2480000   6.8017530  64.2328210  91.3825800
   5.2241680  55.0450290  95.1601920   4.5157830  55.5136630  95.6015530
   5.5086160  54.3872300  95.7947110   9.2557110  51.7700950  96.5997710
   9.1324890  51.7887080  95.6507220  10.2041670  51.8179890  96.7196110
   6.3433900  67.0056250  95.8725690   6.5975400  66.9677640  94.9505060
   5.3946380  66.8789580  95.8653940   3.4276700  53.3535370  92.5352630
   4.2767230  53.7905520  92.4692820   3.0607970  53.6655630  93.3624690
  12.3486480  57.9248130  97.4484200  11.4076620  57.9398360  97.6231890
  12.6630550  57.1384090  97.8944500   2.3268120  59.6067730  91.0088160
   3.0931390  59.4949090  91.5713590   2.4042810  58.9105700  90.3564930
  14.3512060  65.0956980  99.1238460  14.4759480  65.9188150  99.5962270
  15.2177620  64.8847710  98.7762610   1.8229590  67.1888190  98.7955590
   2.5592070  66.6403650  99.0664160   2.2070510  68.0544200  98.6561580
   4.9331900  66.3618500  90.6181160   5.7260510  66.6507330  90.1662950
   4.4136250  65.9310670  89.9393640  13.9862070  65.5888630  92.0417900
  13.7003580  65.1753770  91.2272080  13.7881620  66.5176340  91.9218420
   5.4509300  61.5821910  90.4823510   5.3459940  60.9674260  91.2084890
   5.2833520  61.0587800  89.6986520   8.6912030  60.6441940  91.0865500
   8.1422130  61.0911240  91.7308240   9.3131290  60.1391190  91.6103170
   4.3587150  59.6032860  92.9830800   4.7803570  59.4372730  93.8262190
   4.4837990  58.7933090  92.4885940   6.8714790  58.6270470  90.2307900
   7.3920450  57.9119490  89.8649050   7.5183190  59.2656340  90.5308410
   3.2546050  55.6766090  89.9288960   3.0535110  54.8133450  90.2902300
   3.0838100  55.5899450  88.9910560  10.7334360  50.4874320  92.4575840
  11.0136650  49.6442220  92.8135260   9.9600090  50.7197430  92.9714590
   2.0528850  52.7766710  89.9166840   2.3554750  52.7834140  89.0085990
   2.7923440  52.4264570  90.4134500   5.2713780  51.7201330  90.9023040
   4.9235780  51.0425320  90.3225490   5.4726550  51.2590840  91.7166430
   7.4362820  66.7082080  92.5209640   8.3313610  67.0467050  92.5428400
   7.4680450  65.9861490  91.8933920   2.8866700  63.2007170  95.8618870
   2.5862240  63.0772140  96.7622780   2.7804190  62.3415760  95.4534600
  15.6558620  62.9803570  90.5645550  14.8251580  63.0480220  91.0352780
  15.8330450  63.8707690  90.2612410  15.1115080  59.7251050  93.0679750
  15.8733990  60.2947700  93.1739440  15.1269450  59.1578250  93.8388060
  16.1175050  60.5801150  97.9121680  16.4883880  59.7968470  97.5057650
  16.7576980  61.2690250  97.7338980  15.1634250  60.0185420  90.2252270
  15.4383090  60.9264300  90.0971490  14.9744990  59.9547950  91.1614260
  11.5609860  53.0430270  91.5205900  11.9794740  52.8561250  90.6802560
  11.2545920  52.1909320  91.8308830  15.0599590  57.9554410  95.2181700
  14.6843190  57.1882340  94.7862990  14.3302710  58.3377110  95.7056630
  14.3350550  56.1811900  98.5188940  14.8588030  55.6874550  97.8879110
  14.9209970  56.3162260  99.2636510  14.5140270  56.2651770 102.0408490
  13.5642980  56.2315310 102.1553480  14.6953280  57.1751880 101.8058260
  13.8250520  55.4385250  94.4581350  14.3209640  55.2056120  95.2430230
  13.6266590  54.5997090  94.0418990  15.2537680  54.0746200  96.9919030
  15.1436960  53.9202240  97.9301300  16.0145270  53.5467140  96.7494440
  16.1427950  51.9054120  90.2325170  17.0677260  51.7735300  90.0243460
  16.1203740  51.9846940  91.1861620  16.2166440  52.6764780  92.8581880
  15.4217940  52.6109900  93.3874790  16.4209720  53.6115420  92.8467230
  13.1584860  66.7156330  96.8520270  13.7543930  66.3940900  96.1754690
  13.4163010  66.2428150  97.6433540   4.7653460  64.7033830 102.6020620
   4.5244820  64.9708390 101.7151140   5.7056100  64.8739560 102.6571480
  13.7097070  67.3651630 100.6818000  13.2500040  68.1167440 100.3076020
  13.0809530  66.6458100 100.6232800   4.1392790  65.6739870  99.8566130
   4.6557810  65.0627230  99.3314390   4.7890170  66.1768650 100.3477140
   6.8788290  66.5648360 100.6835110   7.1666100  66.3102660  99.8068120
   7.3911510  66.0125720 101.2740680   8.0965300  50.3038560 101.2631620
   7.3137090  50.7784060 101.5428380   7.8028230  49.3993390 101.1544800
  12.6486370  51.0061660  99.3080710  13.0894460  50.9506760  98.4602310
  12.3793960  51.9219670  99.3790890  14.5124940  50.6376900  97.3189530
  14.4513340  49.6938120  97.1720550  15.2916970  50.7456990  97.8642990
   5.9819520  52.7225310  96.7747650   5.1694030  52.3482200  96.4343530
   6.4861160  51.9670390  97.0768840  10.4844500  49.3867760  98.0130720
  11.0873870  49.9587970  98.4879240   9.7437490  49.9507200  97.7904620
  13.6279100  49.7889320  93.2871000  13.8229730  50.6872770  93.5538430
  12.8408970  49.5576400  93.7803950   1.8130860  51.1350090  92.3247310
   2.3423620  50.3479890  92.1955260   2.4459180  51.8141280  92.5582840
   4.0068700  50.8725230  95.3792700   3.3771440  50.1712540  95.5462830
   3.4673840  51.6329360  95.1625860  15.1805710  67.0290030  95.0477560
  15.3557900  66.3427770  94.4038480  14.4827280  67.5537080  94.6554230
   3.0233360  67.4184870  92.6012870   3.7552180  67.1344150  92.0536760
   3.2827030  67.1798150  93.4912250   2.1848150  63.5349600  92.6059200
   1.5557030  64.0034700  93.1545030   2.2995980  62.6898820  93.0405390
   9.6397870  57.5855260  78.7560400   9.5591920  56.6709870  78.4852110
   9.2262290  58.0822330  78.0500110   7.7715910  59.3634280  80.6369670
   6.9958010  58.8834720  80.9268240   8.4228840  58.6839930  80.4625830
  11.7923340  63.7694470  79.4168800  11.3304870  62.9981710  79.7455970
  12.6048890  63.7960540  79.9221250   1.7683000  63.7094180  81.7103450
   2.0711040  62.8191920  81.5313670   2.5126590  64.2664400  81.4825700
   8.0186650  66.0552480  79.0372790   7.3998090  66.5109980  78.4667230
   8.8738430  66.2103940  78.6362490   7.2124900  62.0391470  80.6439830
   7.1433180  61.0981410  80.4828960   7.9744760  62.1292880  81.2162400
   8.2430070  54.8461850  80.8708760   8.6194890  53.9733730  80.7582430
   8.1449580  55.1820550  79.9799200   2.3735080  53.2187480  76.3326200
   2.4801830  54.1191210  76.6394960   1.4627440  53.1705450  76.0420850
  12.0254190  52.3412290  77.8037100  12.8463810  51.8508860  77.8462580
  12.0588270  52.9309950  78.5568940   4.2142810  56.1873850  80.6651380
   4.7221030  56.6854820  81.3056400   4.7456050  55.4109050  80.4890740
  16.3153740  54.3579040  84.3680730  15.6105910  54.7460750  83.8495840
  16.5811660  55.0529330  84.9701660   2.4978910  50.8272410  84.9314800
   2.4997350  51.3444800  84.1260700   1.6683220  50.3502590  84.9084730
   8.8850000  60.9391720  76.4304700   8.2667270  61.4041170  75.8667420
   9.3973250  61.6319200  76.8474210   3.7481760  60.4667590  83.1088300
   3.4151140  61.0936510  83.7509370   3.9248440  60.9929470  82.3289970
  12.2615670  54.2812670  80.5764640  11.5571240  54.5697560  81.1567750
  12.6227830  55.0912780  80.2164200   2.1794240  52.5382370  82.9385250
   2.5211050  53.3824420  82.6439120   1.2410050  52.6866110  83.0550590
   2.9600860  62.4348390  84.9237480   3.5774860  63.1099470  84.6421930
   2.0993980  62.8436370  84.8324980  13.8778450  63.8987800  82.8392120
  13.1941970  64.5686910  82.8308790  14.4172740  64.0968450  82.0736980
  15.3302590  53.7267460  80.9673850  14.3827500  53.7606440  81.0989280
  15.6552580  54.5406410  81.3523210   5.8622130  50.0264640  79.2629840
   6.1697110  49.4711530  78.5465340   4.9322830  50.1609100  79.0802830
  11.4137190  65.7431930  81.5537300  11.4264350  65.3394220  80.6859560
  10.8612410  66.5179220  81.4498730  12.7082610  62.4648150  76.6427470
  12.5978940  61.5222480  76.7676890  12.7050860  62.8263790  77.5290230
  10.8122630  60.6461770  82.8819910  11.2291420  60.4321880  82.0473370
  11.5362450  60.9034560  83.4528530   8.2502890  58.0913470  75.9989960
   7.3232170  58.0250850  76.2278430   8.4027710  59.0293600  75.8845200
   8.2371970  54.3630470  72.9957120   7.2975640  54.5244430  73.0809580
   8.5555230  55.0816150  72.4493110  14.7584730  59.0448990  82.9736150
  13.9303360  59.1142080  82.4986280  15.3535210  59.6303300  82.5051980
  12.2800180  59.6533770  76.5025210  11.6612600  59.3153320  75.8551510
  12.2624630  59.0093530  77.2104400  11.7226740  55.8318310  83.9191020
  11.3097920  56.6572020  84.1731010  10.9902690  55.2463350  83.7267380
   3.8559530  58.6178210  78.7809690   3.4516530  57.9055460  78.2855590
   3.9422650  58.2731450  79.6697730   4.3241230  62.3045770  80.9448900
   4.0269520  61.6991240  80.2656680   5.2741050  62.3423080  80.8338260
   2.5688150  55.3921420  82.5608730   3.1202740  55.5016760  81.7861980
   3.0831660  55.7659020  83.2763960  12.4126840  65.8777640  84.6072000
  11.9357400  66.6849830  84.4144610  11.7288630  65.2255970  84.7598210
   3.4159660  62.0427460  87.5956700   2.5188190  62.2667430  87.8430100
   3.4412530  62.1662400  86.6468100  10.4564880  58.8920580  73.5097960
  10.8958160  58.0543010  73.3635780  11.1693300  59.5249980  73.5962100
   2.2430880  58.9140780  86.1714070   2.1038650  59.7863580  86.5401470
   1.3612240  58.5713590  86.0262010   8.5660260  63.8316650  77.4779200
   9.0056170  64.5740980  77.0634590   8.5047150  64.0743220  78.4018160
   4.0411230  64.8562480  88.3799220   4.0126660  65.2605430  87.5127650
   3.8776200  63.9272840  88.2170820  14.0382020  50.1463390  71.8239000
  13.7254680  50.2390220  72.7238070  14.7994490  50.7244420  71.7736430
  15.9926050  65.6389580  89.6763390  16.4685770  66.1172470  90.3552470
  16.6133210  65.5707070  88.9508890  15.3959300  62.8302430  86.8363400
  15.5222360  62.5914310  85.9180580  15.4380680  61.9986970  87.3085480
   9.2576040  66.5330430  85.4058210   9.7720710  66.4438440  86.2080640
   8.4145120  66.8790130  85.6986120  11.2330440  66.8185770  74.8342210
  11.0731580  66.5288710  75.7324040  11.0677150  66.0425900  74.2987440
   3.7118820  66.5984300  76.6113830   3.5361300  65.6819840  76.3981630
   2.8574560  66.9571590  76.8511630  10.9356570  64.3273330  73.3940210
  10.2421730  64.3250620  72.7342490  11.6779430  63.9032650  72.9634380
  10.5006500  65.9536040  77.4688700  10.9563450  65.1725420  77.7827320
  10.8399020  66.6642860  78.0129880  15.2483310  54.8834890  87.8013140
  14.6327580  55.3914560  87.2728600  14.9279730  53.9833220  87.7439080
   3.0227820  50.8558260  79.6640010   2.5795970  51.6367800  79.3324530
   3.5812810  51.1788150  80.3710950   7.3097630  53.7226780  85.2675330
   6.8477000  53.9309800  86.0795270   6.9075740  52.9086130  84.9646000
  12.3102140  54.9435730  86.3971990  11.4595730  54.6441480  86.7181060
  12.1503930  55.1877740  85.4855810   9.4051850  56.4437480  88.4970780
   9.7305260  55.6101230  88.1573010  10.1932180  56.9666000  88.6449110
   6.1386640  50.4768960  74.5445840   5.5140820  50.4728830  75.2699150
   6.0516760  49.6099920  74.1481810   5.0603720  51.4005590  81.5229610
   5.3576050  52.3068420  81.4421630   5.6089280  50.9124370  80.9089180
   2.8142040  55.9791830  77.3921260   2.5882960  55.7629000  78.2967880
   2.0334570  56.4120290  77.0467230  10.0439800  55.9855200  75.9911910
   9.4448690  56.7091000  75.8075530  10.5919410  55.9231980  75.2088360
   5.2541250  56.8777410  88.0581530   5.1584850  55.9372140  87.9081930
   6.0973230  57.0992480  87.6629600   8.6504670  54.6218740  78.0215190
   9.0434240  54.9390940  77.2083880   9.0121520  53.7430620  78.1359710
   6.9596840  53.3726050  89.2812050   6.2695160  53.1798250  89.9158140
   7.7029140  53.6560690  89.8136350   9.2359810  57.2124490  82.1165970
   8.5040930  57.7211300  82.4656070   8.8384150  56.3954470  81.8154750
   5.6737200  53.8878690  80.5218460   5.6773260  53.4468640  79.6723000
   6.5688320  54.2096020  80.6290280   5.7357350  54.8890770  73.5125220
   5.8570170  54.8477250  74.4611040   5.3505860  55.7514920  73.3571950
   9.6985720  52.6658170  81.5288910   9.7158460  53.1166820  82.3730760
   9.4501300  51.7663810  81.7422350   4.7478850  57.1991910  72.9108520
   4.1795750  56.7510160  72.2844430   5.4567850  57.5584690  72.3773670
  13.1256470  50.0790350  87.3675290  13.4502240  49.3480010  87.8933270
  13.1612980  49.7603990  86.4656280   5.9745170  57.9480470  82.2683870
   6.3415300  57.4739040  83.0145210   5.7850230  58.8222040  82.6092210
   3.7644540  56.9889110  84.5868080   3.4601610  57.8681090  84.8118440
   4.7191000  57.0488900  84.6225520   2.2926330  61.1950100  75.1834930
   1.5188590  60.6547720  75.0233650   3.0220960  60.6756710  74.8452690
  13.0514310  60.1915460  80.9761320  13.7713430  60.6870750  80.5857430
  12.8496130  59.5133350  80.3315190   8.5124250  51.5853420  75.1190710
   7.6988860  51.0866590  75.0436020   8.3186200  52.4251670  74.7027060
   8.4333110  60.2624520  86.8630320   8.3670420  59.3420190  86.6087910
   7.8038250  60.3599960  87.5774960  11.2272640  55.9573070  73.4152870
  12.1152260  56.2690300  73.2404210  11.1977730  55.0845320  73.0233450
   2.3363730  60.8630480  78.8213740   2.8542400  60.0598740  78.7670630
   1.8847750  60.8009620  79.6630570   7.2233230  62.1296760  74.0941040
   7.5648930  62.8738990  73.5984360   6.3945940  62.4427880  74.4565870
   3.0221390  58.2876090  88.6178990   2.7221530  58.4333270  87.7206810
   3.7932630  57.7281380  88.5252380   8.3649840  63.0845090  86.6134120
   8.3794380  62.1526050  86.3953030   7.6574940  63.1704850  87.2523890
  13.4986910  57.2684910  72.8832730  13.4150630  57.6999130  72.0329170
  14.2181100  57.7283260  73.3159550  14.5761050  59.7252430  85.9602700
  13.8509240  60.3181210  85.7632090  15.1036510  59.7175970  85.1616070
  14.5274160  64.1227170  75.6114860  13.8850320  63.4682790  75.8858580
  14.1404820  64.5282260  74.8355530  10.1060640  61.4512600  79.4586550
  10.4584460  60.8540730  78.7987920   9.2222970  61.1256830  79.6294800
   6.1923920  62.2110290  76.8656960   6.8795050  62.7579500  77.2464550
   5.4056340  62.7551020  76.9006570   5.4951130  59.2156320  76.4782320
   5.9513910  60.0261570  76.7042510   5.1439340  58.8979460  77.3100810
   7.7983740  64.7262660  83.7074620   8.4425960  64.9322040  84.3848040
   8.1613180  63.9651060  83.2545470   9.0715820  62.7295010  82.4252070
   9.7138050  62.0288170  82.5384240   9.5965170  63.5093450  82.2448960
  12.9171540  63.0143630  72.1491210  12.6909120  62.2974070  72.7415850
  12.5267740  62.7656070  71.3112960  10.8453440  63.5289910  85.6288130
  11.1809680  64.1156600  86.3066050   9.9253780  63.3982620  85.8585920
  12.4987790  60.9315570  73.8105370  12.2109490  61.3928260  74.5983250
  13.2939960  60.4713340  74.0789590   6.6742020  63.5781240  88.7976190
   6.3538890  62.8590480  89.3421880   6.0000380  64.2536310  88.8712250
   4.7156190  64.4241690  73.7409340   4.7066290  65.1571380  73.1253850
   3.7954550  64.1773270  73.8336300   9.8895620  53.8107400  84.1612990
  10.2576440  52.9902610  84.4892560   9.0293820  53.8709290  84.5768640
  13.2557650  52.7664340  74.9700550  12.6270810  52.8710010  74.2558780
  12.7609570  52.9861120  75.7594430   7.7015790  64.4869930  72.4034530
   7.8027770  64.2833920  71.4736510   6.8017530  64.2328210  72.6082310
   5.2241680  55.0450290  76.3858430   4.5157830  55.5136630  76.8272040
   5.5086160  54.3872300  77.0203620   6.8497610  56.4646990  84.3850960
   7.3482860  56.9392810  85.0502810   6.9920560  55.5410510  84.5920990
   9.2557110  51.7700950  77.8254220   9.1324890  51.7887080  76.8763730
  10.2041670  51.8179890  77.9452620   6.3433900  67.0056250  77.0982200
   6.5975400  66.9677640  76.1761570   5.3946380  66.8789580  77.0910450
   3.4276700  53.3535370  73.7609140   4.2767230  53.7905520  73.6949330
   3.0607970  53.6655630  74.5881200  14.0564470  52.6814950  85.2279350
  13.5538070  53.4220350  85.5673160  14.8721130  53.0698950  84.9116140
  12.3486480  57.9248130  78.6740710  11.4076620  57.9398360  78.8488400
  12.6630550  57.1384090  79.1201010   2.3268120  59.6067730  72.2344670
   3.0931390  59.4949090  72.7970100   2.4042810  58.9105700  71.5821440
  14.3512060  65.0956980  80.3494970  14.4759480  65.9188150  80.8218780
  15.2177620  64.8847710  80.0019120   1.8229590  67.1888190  80.0212100
   2.5592070  66.6403650  80.2920670   2.2070510  68.0544200  79.8818090
   4.9331900  66.3618500  71.8437670   5.7260510  66.6507330  71.3919460
   4.4136250  65.9310670  71.1650150   9.6652500  62.4814130  89.1573090
   9.0590660  62.5045730  88.4168840   9.3606610  61.7497170  89.6940340
  11.0952870  66.2094420  87.7682500  12.0474620  66.1252440  87.7182740
  10.9481090  66.8736130  88.4416290  13.9862070  65.5888630  73.2674410
  13.7003580  65.1753770  72.4528590  13.7881620  66.5176340  73.1474930
   5.4509300  61.5821910  71.7080020   5.3459940  60.9674260  72.4341400
   5.2833520  61.0587800  70.9243030   5.6023620  60.2678710  87.6869250
   4.8369290  60.8363710  87.6023920   5.7839580  59.9754920  86.7937480
   8.6912030  60.6441940  72.3122010   8.1422130  61.0911240  72.9564750
   9.3131290  60.1391190  72.8359680  12.7446970  61.9984040  88.2444270
  13.4856440  62.3359800  87.7411730  11.9819650  62.1676100  87.6914040
   4.3587150  59.6032860  74.2087310   4.7803570  59.4372730  75.0518700
   4.4837990  58.7933090  73.7142450   2.5214570  55.5829410  87.0158290
   1.9911030  55.0920360  86.3881630   3.1902640  56.0113610  86.4816220
   6.8714790  58.6270470  71.4564410   7.3920450  57.9119490  71.0905560
   7.5183190  59.2656340  71.7564920  11.4192630  60.0498870  86.7799480
  11.8333650  60.2043950  87.6289900  10.4843630  60.1754090  86.9425260
  11.8914800  57.3895030  88.7838630  12.4735570  56.6347350  88.6959110
  12.0676570  57.9202470  88.0070110   3.0086870  52.5491780  87.0955580
   2.9143740  51.9312530  86.3706450   2.4284260  53.2758070  86.8685490
   5.7748310  51.1065020  84.1282970   5.3265610  51.1289280  83.2828520
   5.1413510  50.7084040  84.7253270   6.1807860  60.0019350  84.7495410
   6.5995970  60.8452080  84.5771650   5.2616490  60.1391390  84.5202190
   8.5171760  57.7335530  86.1333250   8.6367970  57.1376670  86.8728090
   9.3765760  57.7705220  85.7134550  10.8559660  58.2872720  84.7095760
  10.3294880  58.8115340  84.1060900  11.1991000  58.9200110  85.3405490
   3.2546050  55.6766090  71.1545470   3.0535110  54.8133450  71.5158810
   3.0838100  55.5899450  70.2167070   4.0315280  66.3072360  85.8653140
   3.4936370  67.0318420  85.5461840   4.2849240  65.8302700  85.0750480
   5.2840530  54.2756880  87.3909070   5.8740220  53.9672730  88.0786890
   4.4660770  53.8036630  87.5468970  10.1033960  53.8922690  87.6242090
   9.4149480  53.2304230  87.5592080  10.8239980  53.4460960  88.0690550
  10.7334360  50.4874320  73.6832350  11.0136650  49.6442220  74.0391770
   9.9600090  50.7197430  74.1971100   2.0528850  52.7766710  71.1423350
   2.3554750  52.7834140  70.2342500   2.7923440  52.4264570  71.6391010
   6.8877490  67.5423570  86.1239790   6.8136190  68.4458710  86.4312160
   5.9856330  67.2235470  86.0961860   5.2713780  51.7201330  72.1279550
   4.9235780  51.0425320  71.5482000   5.4726550  51.2590840  72.9422940
   7.4362820  66.7082080  73.7466150   8.3313610  67.0467050  73.7684910
   7.4680450  65.9861490  73.1190430   2.8866700  63.2007170  77.0875380
   2.5862240  63.0772140  77.9879290   2.7804190  62.3415760  76.6791110
  14.4157170  65.2385750  86.4532350  13.8159160  65.2978310  85.7096270
  14.5451070  64.2990730  86.5829200  15.6558620  62.9803570  71.7902060
  14.8251580  63.0480220  72.2609290  15.8330450  63.8707690  71.4868920
  15.1115080  59.7251050  74.2936260  15.8733990  60.2947700  74.3995950
  15.1269450  59.1578250  75.0644570  16.1175050  60.5801150  79.1378190
  16.4883880  59.7968470  78.7314160  16.7576980  61.2690250  78.9595490
  13.1008810  61.9637730  84.5508510  12.2868650  62.3934890  84.8134300
  13.5083010  62.5756140  83.9377560  15.1634250  60.0185420  71.4508780
  15.4383090  60.9264300  71.3228000  14.9744990  59.9547950  72.3870770
  11.5609860  53.0430270  72.7462410  11.9794740  52.8561250  71.9059070
  11.2545920  52.1909320  73.0565340  15.0599590  57.9554410  76.4438210
  14.6843190  57.1882340  76.0119500  14.3302710  58.3377110  76.9313140
  14.4499210  57.1025930  86.0777730  14.2185300  56.8738680  85.1775680
  14.7103760  58.0225480  86.0322620  12.8887280  52.3282360  88.8557430
  13.7657460  52.3365760  89.2391430  12.9008120  51.5913200  88.2449780
  14.3350550  56.1811900  79.7445450  14.8588030  55.6874550  79.1135620
  14.9209970  56.3162260  80.4893020  14.5140270  56.2651770  83.2665000
  13.5642980  56.2315310  83.3809990  14.6953280  57.1751880  83.0314770
  13.8250520  55.4385250  75.6837860  14.3209640  55.2056120  76.4686740
  13.6266590  54.5997090  75.2675500  15.2537680  54.0746200  78.2175540
  15.1436960  53.9202240  79.1557810  16.0145270  53.5467140  77.9750950
  13.6003400  50.0140330  84.6758540  14.2375620  50.6274470  85.0417730
  13.7478290  50.0500990  83.7307770  16.1427950  51.9054120  71.4581680
  17.0677260  51.7735300  71.2499970  16.1203740  51.9846940  72.4118130
  16.2166440  52.6764780  74.0838390  15.4217940  52.6109900  74.6131300
  16.4209720  53.6115420  74.0723740  13.1584860  66.7156330  78.0776780
  13.7543930  66.3940900  77.4011200  13.4163010  66.2428150  78.8690050
   4.7653460  64.7033830  83.8277130   4.5244820  64.9708390  82.9407650
   5.7056100  64.8739560  83.8827990   6.9707880  51.1666520  87.5833640
   6.9096770  51.7588350  88.3329050   7.9108260  51.0592480  87.4383900
   9.6082440  50.8236580  87.2225930  10.2222850  51.1415870  86.5607010
  10.1532000  50.3385170  87.8421790  16.0257620  66.7228210  84.6287770
  15.5315900  67.1197080  83.9114900  15.4170910  66.0977420  85.0225050
  10.3490480  49.3868720  83.5495220   9.4750320  49.7203830  83.3468150
  10.2401230  48.9141900  84.3747090  11.2562460  51.5939590  84.9336940
  10.9275820  50.7791350  84.5538670  12.2044760  51.5509400  84.8102630
  13.7097070  67.3651630  81.9074510  13.2500040  68.1167440  81.5332530
  13.0809530  66.6458100  81.8489310   4.1392790  65.6739870  81.0822640
   4.6557810  65.0627230  80.5570900   4.7890170  66.1768650  81.5733650
   6.8788290  66.5648360  81.9091620   7.1666100  66.3102660  81.0324630
   7.3911510  66.0125720  82.4997190   8.0965300  50.3038560  82.4888130
   7.3137090  50.7784060  82.7684890   7.8028230  49.3993390  82.3801310
  12.6486370  51.0061660  80.5337220  13.0894460  50.9506760  79.6858820
  12.3793960  51.9219670  80.6047400  14.5124940  50.6376900  78.5446040
  14.4513340  49.6938120  78.3977060  15.2916970  50.7456990  79.0899500
   5.9819520  52.7225310  78.0004160   5.1694030  52.3482200  77.6600040
   6.4861160  51.9670390  78.3025350  10.4844500  49.3867760  79.2387230
  11.0873870  49.9587970  79.7135750   9.7437490  49.9507200  79.0161130
  13.6279100  49.7889320  74.5127510  13.8229730  50.6872770  74.7794940
  12.8408970  49.5576400  75.0060460   1.8130860  51.1350090  73.5503820
   2.3423620  50.3479890  73.4211770   2.4459180  51.8141280  73.7839350
   4.0068700  50.8725230  76.6049210   3.3771440  50.1712540  76.7719340
   3.4673840  51.6329360  76.3882370   6.9460650  67.4864460  89.2759820
   7.8727960  67.2508730  89.3195780   6.9311080  68.3136460  88.7945850
  15.1805710  67.0290030  76.2734070  15.3557900  66.3427770  75.6294990
  14.4827280  67.5537080  75.8810740   4.1324260  50.1509210  89.0401700
   3.8508530  50.6542810  88.2762520   4.5143960  49.3530960  88.6743830
   3.0233360  67.4184870  73.8269380   3.7552180  67.1344150  73.2793270
   3.2827030  67.1798150  74.7168760   2.1848150  63.5349600  73.8315710
   1.5557030  64.0034700  74.3801540   2.2995980  62.6898820  74.2661900
  10.7339720  49.5662790  89.6182170  10.6205170  49.8857400  90.5133690
  11.5509460  49.9675300  89.3219450  13.5138210  66.7134320  89.1000860
  14.3063530  66.2183550  88.8926820  13.8071360  67.3924460  89.7076470
   9.6397870  57.5855260  59.9816910   9.5591920  56.6709870  59.7108620
   9.2262290  58.0822330  59.2756620   7.7715910  59.3634280  61.8626180
   6.9958010  58.8834720  62.1524750   8.4228840  58.6839930  61.6882340
  11.7923340  63.7694470  60.6425310  11.3304870  62.9981710  60.9712480
  12.6048890  63.7960540  61.1477760   1.7683000  63.7094180  62.9359960
   2.0711040  62.8191920  62.7570180   2.5126590  64.2664400  62.7082210
   8.0186650  66.0552480  60.2629300   7.3998090  66.5109980  59.6923740
   8.8738430  66.2103940  59.8619000   7.2124900  62.0391470  61.8696340
   7.1433180  61.0981410  61.7085470   7.9744760  62.1292880  62.4418910
   8.2430070  54.8461850  62.0965270   8.6194890  53.9733730  61.9838940
   8.1449580  55.1820550  61.2055710   2.3735080  53.2187480  57.5582710
   2.4801830  54.1191210  57.8651470   1.4627440  53.1705450  57.2677360
  12.0254190  52.3412290  59.0293610  12.8463810  51.8508860  59.0719090
  12.0588270  52.9309950  59.7825450   4.2142810  56.1873850  61.8907890
   4.7221030  56.6854820  62.5312910   4.7456050  55.4109050  61.7147250
  16.3153740  54.3579040  65.5937240  15.6105910  54.7460750  65.0752350
  16.5811660  55.0529330  66.1958170   2.4978910  50.8272410  66.1571310
   2.4997350  51.3444800  65.3517210   1.6683220  50.3502590  66.1341240
   8.8850000  60.9391720  57.6561210   8.2667270  61.4041170  57.0923930
   9.3973250  61.6319200  58.0730720   3.7481760  60.4667590  64.3344810
   3.4151140  61.0936510  64.9765880   3.9248440  60.9929470  63.5546480
  12.2615670  54.2812670  61.8021150  11.5571240  54.5697560  62.3824260
  12.6227830  55.0912780  61.4420710   2.1794240  52.5382370  64.1641760
   2.5211050  53.3824420  63.8695630   1.2410050  52.6866110  64.2807100
   2.9600860  62.4348390  66.1493990   3.5774860  63.1099470  65.8678440
   2.0993980  62.8436370  66.0581490  13.8778450  63.8987800  64.0648630
  13.1941970  64.5686910  64.0565300  14.4172740  64.0968450  63.2993490
  15.3302590  53.7267460  62.1930360  14.3827500  53.7606440  62.3245790
  15.6552580  54.5406410  62.5779720   5.8622130  50.0264640  60.4886350
   6.1697110  49.4711530  59.7721850   4.9322830  50.1609100  60.3059340
  11.4137190  65.7431930  62.7793810  11.4264350  65.3394220  61.9116070
  10.8612410  66.5179220  62.6755240  12.7082610  62.4648150  57.8683980
  12.5978940  61.5222480  57.9933400  12.7050860  62.8263790  58.7546740
  10.8122630  60.6461770  64.1076420  11.2291420  60.4321880  63.2729880
  11.5362450  60.9034560  64.6785040   8.2502890  58.0913470  57.2246470
   7.3232170  58.0250850  57.4534940   8.4027710  59.0293600  57.1101710
   8.2371970  54.3630470  54.2213630   7.2975640  54.5244430  54.3066090
   8.5555230  55.0816150  53.6749620  14.7584730  59.0448990  64.1992660
  13.9303360  59.1142080  63.7242790  15.3535210  59.6303300  63.7308490
  12.2800180  59.6533770  57.7281720  11.6612600  59.3153320  57.0808020
  12.2624630  59.0093530  58.4360910  11.7226740  55.8318310  65.1447530
  11.3097920  56.6572020  65.3987520  10.9902690  55.2463350  64.9523890
   3.8559530  58.6178210  60.0066200   3.4516530  57.9055460  59.5112100
   3.9422650  58.2731450  60.8954240   4.3241230  62.3045770  62.1705410
   4.0269520  61.6991240  61.4913190   5.2741050  62.3423080  62.0594770
   2.5688150  55.3921420  63.7865240   3.1202740  55.5016760  63.0118490
   3.0831660  55.7659020  64.5020470  12.4126840  65.8777640  65.8328510
  11.9357400  66.6849830  65.6401120  11.7288630  65.2255970  65.9854720
   3.4159660  62.0427460  68.8213210   2.5188190  62.2667430  69.0686610
   3.4412530  62.1662400  67.8724610  10.4564880  58.8920580  54.7354470
  10.8958160  58.0543010  54.5892290  11.1693300  59.5249980  54.8218610
   2.2430880  58.9140780  67.3970580   2.1038650  59.7863580  67.7657980
   1.3612240  58.5713590  67.2518520   8.5660260  63.8316650  58.7035710
   9.0056170  64.5740980  58.2891100   8.5047150  64.0743220  59.6274670
   4.0411230  64.8562480  69.6055730   4.0126660  65.2605430  68.7384160
   3.8776200  63.9272840  69.4427330  14.0382020  50.1463390  53.0495510
  13.7254680  50.2390220  53.9494580  14.7994490  50.7244420  52.9992940
  15.9926050  65.6389580  70.9019900  16.4685770  66.1172470  71.5808980
  16.6133210  65.5707070  70.1765400  15.3959300  62.8302430  68.0619910
  15.5222360  62.5914310  67.1437090  15.4380680  61.9986970  68.5341990
   9.2576040  66.5330430  66.6314720   9.7720710  66.4438440  67.4337150
   8.4145120  66.8790130  66.9242630  11.2330440  66.8185770  56.0598720
  11.0731580  66.5288710  56.9580550  11.0677150  66.0425900  55.5243950
   3.7118820  66.5984300  57.8370340   3.5361300  65.6819840  57.6238140
   2.8574560  66.9571590  58.0768140  10.9356570  64.3273330  54.6196720
  10.2421730  64.3250620  53.9599000  11.6779430  63.9032650  54.1890890
  10.5006500  65.9536040  58.6945210  10.9563450  65.1725420  59.0083830
  10.8399020  66.6642860  59.2386390  15.2483310  54.8834890  69.0269650
  14.6327580  55.3914560  68.4985110  14.9279730  53.9833220  68.9695590
   3.0227820  50.8558260  60.8896520   2.5795970  51.6367800  60.5581040
   3.5812810  51.1788150  61.5967460   7.3097630  53.7226780  66.4931840
   6.8477000  53.9309800  67.3051780   6.9075740  52.9086130  66.1902510
  12.3102140  54.9435730  67.6228500  11.4595730  54.6441480  67.9437570
  12.1503930  55.1877740  66.7112320   9.4051850  56.4437480  69.7227290
   9.7305260  55.6101230  69.3829520  10.1932180  56.9666000  69.8705620
   6.1386640  50.4768960  55.7702350   5.5140820  50.4728830  56.4955660
   6.0516760  49.6099920  55.3738320   5.0603720  51.4005590  62.7486120
   5.3576050  52.3068420  62.6678140   5.6089280  50.9124370  62.1345690
   2.8142040  55.9791830  58.6177770   2.5882960  55.7629000  59.5224390
   2.0334570  56.4120290  58.2723740  10.0439800  55.9855200  57.2168420
   9.4448690  56.7091000  57.0332040  10.5919410  55.9231980  56.4344870
   5.2541250  56.8777410  69.2838040   5.1584850  55.9372140  69.1338440
   6.0973230  57.0992480  68.8886110   8.6504670  54.6218740  59.2471700
   9.0434240  54.9390940  58.4340390   9.0121520  53.7430620  59.3616220
   6.9596840  53.3726050  70.5068560   6.2695160  53.1798250  71.1414650
   7.7029140  53.6560690  71.0392860   9.2359810  57.2124490  63.3422480
   8.5040930  57.7211300  63.6912580   8.8384150  56.3954470  63.0411260
   5.6737200  53.8878690  61.7474970   5.6773260  53.4468640  60.8979510
   6.5688320  54.2096020  61.8546790   5.7357350  54.8890770  54.7381730
   5.8570170  54.8477250  55.6867550   5.3505860  55.7514920  54.5828460
   9.6985720  52.6658170  62.7545420   9.7158460  53.1166820  63.5987270
   9.4501300  51.7663810  62.9678860   4.7478850  57.1991910  54.1365030
   4.1795750  56.7510160  53.5100940   5.4567850  57.5584690  53.6030180
  13.1256470  50.0790350  68.5931800  13.4502240  49.3480010  69.1189780
  13.1612980  49.7603990  67.6912790   5.9745170  57.9480470  63.4940380
   6.3415300  57.4739040  64.2401720   5.7850230  58.8222040  63.8348720
   3.7644540  56.9889110  65.8124590   3.4601610  57.8681090  66.0374950
   4.7191000  57.0488900  65.8482030   2.2926330  61.1950100  56.4091440
   1.5188590  60.6547720  56.2490160   3.0220960  60.6756710  56.0709200
  13.0514310  60.1915460  62.2017830  13.7713430  60.6870750  61.8113940
  12.8496130  59.5133350  61.5571700   8.5124250  51.5853420  56.3447220
   7.6988860  51.0866590  56.2692530   8.3186200  52.4251670  55.9283570
   8.4333110  60.2624520  68.0886830   8.3670420  59.3420190  67.8344420
   7.8038250  60.3599960  68.8031470  11.2272640  55.9573070  54.6409380
  12.1152260  56.2690300  54.4660720  11.1977730  55.0845320  54.2489960
   2.3363730  60.8630480  60.0470250   2.8542400  60.0598740  59.9927140
   1.8847750  60.8009620  60.8887080   7.2233230  62.1296760  55.3197550
   7.5648930  62.8738990  54.8240870   6.3945940  62.4427880  55.6822380
   3.0221390  58.2876090  69.8435500   2.7221530  58.4333270  68.9463320
   3.7932630  57.7281380  69.7508890   8.3649840  63.0845090  67.8390630
   8.3794380  62.1526050  67.6209540   7.6574940  63.1704850  68.4780400
  13.4986910  57.2684910  54.1089240  13.4150630  57.6999130  53.2585680
  14.2181100  57.7283260  54.5416060  14.5761050  59.7252430  67.1859210
  13.8509240  60.3181210  66.9888600  15.1036510  59.7175970  66.3872580
  14.5274160  64.1227170  56.8371370  13.8850320  63.4682790  57.1115090
  14.1404820  64.5282260  56.0612040  10.1060640  61.4512600  60.6843060
  10.4584460  60.8540730  60.0244430   9.2222970  61.1256830  60.8551310
   6.1923920  62.2110290  58.0913470   6.8795050  62.7579500  58.4721060
   5.4056340  62.7551020  58.1263080   5.4951130  59.2156320  57.7038830
   5.9513910  60.0261570  57.9299020   5.1439340  58.8979460  58.5357320
   7.7983740  64.7262660  64.9331130   8.4425960  64.9322040  65.6104550
   8.1613180  63.9651060  64.4801980   9.0715820  62.7295010  63.6508580
   9.7138050  62.0288170  63.7640750   9.5965170  63.5093450  63.4705470
  12.9171540  63.0143630  53.3747720  12.6909120  62.2974070  53.9672360
  12.5267740  62.7656070  52.5369470  10.8453440  63.5289910  66.8544640
  11.1809680  64.1156600  67.5322560   9.9253780  63.3982620  67.0842430
  12.4987790  60.9315570  55.0361880  12.2109490  61.3928260  55.8239760
  13.2939960  60.4713340  55.3046100   6.6742020  63.5781240  70.0232700
   6.3538890  62.8590480  70.5678390   6.0000380  64.2536310  70.0968760
   4.7156190  64.4241690  54.9665850   4.7066290  65.1571380  54.3510360
   3.7954550  64.1773270  55.0592810   9.8895620  53.8107400  65.3869500
  10.2576440  52.9902610  65.7149070   9.0293820  53.8709290  65.8025150
  13.2557650  52.7664340  56.1957060  12.6270810  52.8710010  55.4815290
  12.7609570  52.9861120  56.9850940   7.7015790  64.4869930  53.6291040
   7.8027770  64.2833920  52.6993020   6.8017530  64.2328210  53.8338820
   5.2241680  55.0450290  57.6114940   4.5157830  55.5136630  58.0528550
   5.5086160  54.3872300  58.2460130   6.8497610  56.4646990  65.6107470
   7.3482860  56.9392810  66.2759320   6.9920560  55.5410510  65.8177500
   9.2557110  51.7700950  59.0510730   9.1324890  51.7887080  58.1020240
  10.2041670  51.8179890  59.1709130   6.3433900  67.0056250  58.3238710
   6.5975400  66.9677640  57.4018080   5.3946380  66.8789580  58.3166960
   3.4276700  53.3535370  54.9865650   4.2767230  53.7905520  54.9205840
   3.0607970  53.6655630  55.8137710  14.0564470  52.6814950  66.4535860
  13.5538070  53.4220350  66.7929670  14.8721130  53.0698950  66.1372650
  12.3486480  57.9248130  59.8997220  11.4076620  57.9398360  60.0744910
  12.6630550  57.1384090  60.3457520   2.3268120  59.6067730  53.4601180
   3.0931390  59.4949090  54.0226610   2.4042810  58.9105700  52.8077950
  14.3512060  65.0956980  61.5751480  14.4759480  65.9188150  62.0475290
  15.2177620  64.8847710  61.2275630   1.8229590  67.1888190  61.2468610
   2.5592070  66.6403650  61.5177180   2.2070510  68.0544200  61.1074600
   4.9331900  66.3618500  53.0694180   5.7260510  66.6507330  52.6175970
   4.4136250  65.9310670  52.3906660   9.6652500  62.4814130  70.3829600
   9.0590660  62.5045730  69.6425350   9.3606610  61.7497170  70.9196850
  11.0952870  66.2094420  68.9939010  12.0474620  66.1252440  68.9439250
  10.9481090  66.8736130  69.6672800  13.9862070  65.5888630  54.4930920
  13.7003580  65.1753770  53.6785100  13.7881620  66.5176340  54.3731440
   5.4509300  61.5821910  52.9336530   5.3459940  60.9674260  53.6597910
   5.2833520  61.0587800  52.1499540   5.6023620  60.2678710  68.9125760
   4.8369290  60.8363710  68.8280430   5.7839580  59.9754920  68.0193990
   8.6912030  60.6441940  53.5378520   8.1422130  61.0911240  54.1821260
   9.3131290  60.1391190  54.0616190  12.7446970  61.9984040  69.4700780
  13.4856440  62.3359800  68.9668240  11.9819650  62.1676100  68.9170550
   4.3587150  59.6032860  55.4343820   4.7803570  59.4372730  56.2775210
   4.4837990  58.7933090  54.9398960   2.5214570  55.5829410  68.2414800
   1.9911030  55.0920360  67.6138140   3.1902640  56.0113610  67.7072730
   6.8714790  58.6270470  52.6820920   7.3920450  57.9119490  52.3162070
   7.5183190  59.2656340  52.9821430  11.4192630  60.0498870  68.0055990
  11.8333650  60.2043950  68.8546410  10.4843630  60.1754090  68.1681770
  11.8914800  57.3895030  70.0095140  12.4735570  56.6347350  69.9215620
  12.0676570  57.9202470  69.2326620   3.0086870  52.5491780  68.3212090
   2.9143740  51.9312530  67.5962960   2.4284260  53.2758070  68.0942000
   5.7748310  51.1065020  65.3539480   5.3265610  51.1289280  64.5085030
   5.1413510  50.7084040  65.9509780   6.1807860  60.0019350  65.9751920
   6.5995970  60.8452080  65.8028160   5.2616490  60.1391390  65.7458700
   8.5171760  57.7335530  67.3589760   8.6367970  57.1376670  68.0984600
   9.3765760  57.7705220  66.9391060  10.8559660  58.2872720  65.9352270
  10.3294880  58.8115340  65.3317410  11.1991000  58.9200110  66.5662000
   3.2546050  55.6766090  52.3801980   3.0535110  54.8133450  52.7415320
   3.0838100  55.5899450  51.4423580   4.0315280  66.3072360  67.0909650
   3.4936370  67.0318420  66.7718350   4.2849240  65.8302700  66.3006990
   5.2840530  54.2756880  68.6165580   5.8740220  53.9672730  69.3043400
   4.4660770  53.8036630  68.7725480  10.1033960  53.8922690  68.8498600
   9.4149480  53.2304230  68.7848590  10.8239980  53.4460960  69.2947060
  10.7334360  50.4874320  54.9088860  11.0136650  49.6442220  55.2648280
   9.9600090  50.7197430  55.4227610   2.0528850  52.7766710  52.3679860
   2.3554750  52.7834140  51.4599010   2.7923440  52.4264570  52.8647520
   6.8877490  67.5423570  67.3496300   6.8136190  68.4458710  67.6568670
   5.9856330  67.2235470  67.3218370   5.2713780  51.7201330  53.3536060
   4.9235780  51.0425320  52.7738510   5.4726550  51.2590840  54.1679450
   7.4362820  66.7082080  54.9722660   8.3313610  67.0467050  54.9941420
   7.4680450  65.9861490  54.3446940   2.8866700  63.2007170  58.3131890
   2.5862240  63.0772140  59.2135800   2.7804190  62.3415760  57.9047620
  14.4157170  65.2385750  67.6788860  13.8159160  65.2978310  66.9352780
  14.5451070  64.2990730  67.8085710  15.6558620  62.9803570  53.0158570
  14.8251580  63.0480220  53.4865800  15.8330450  63.8707690  52.7125430
  15.1115080  59.7251050  55.5192770  15.8733990  60.2947700  55.6252460
  15.1269450  59.1578250  56.2901080  16.1175050  60.5801150  60.3634700
  16.4883880  59.7968470  59.9570670  16.7576980  61.2690250  60.1852000
  13.1008810  61.9637730  65.7765020  12.2868650  62.3934890  66.0390810
  13.5083010  62.5756140  65.1634070  15.1634250  60.0185420  52.6765290
  15.4383090  60.9264300  52.5484510  14.9744990  59.9547950  53.6127280
  11.5609860  53.0430270  53.9718920  11.9794740  52.8561250  53.1315580
  11.2545920  52.1909320  54.2821850  15.0599590  57.9554410  57.6694720
  14.6843190  57.1882340  57.2376010  14.3302710  58.3377110  58.1569650
  14.4499210  57.1025930  67.3034240  14.2185300  56.8738680  66.4032190
  14.7103760  58.0225480  67.2579130  12.8887280  52.3282360  70.0813940
  13.7657460  52.3365760  70.4647940  12.9008120  51.5913200  69.4706290
  14.3350550  56.1811900  60.9701960  14.8588030  55.6874550  60.3392130
  14.9209970  56.3162260  61.7149530  14.5140270  56.2651770  64.4921510
  13.5642980  56.2315310  64.6066500  14.6953280  57.1751880  64.2571280
  13.8250520  55.4385250  56.9094370  14.3209640  55.2056120  57.6943250
  13.6266590  54.5997090  56.4932010  15.2537680  54.0746200  59.4432050
  15.1436960  53.9202240  60.3814320  16.0145270  53.5467140  59.2007460
  13.6003400  50.0140330  65.9015050  14.2375620  50.6274470  66.2674240
  13.7478290  50.0500990  64.9564280  16.1427950  51.9054120  52.6838190
  17.0677260  51.7735300  52.4756480  16.1203740  51.9846940  53.6374640
  16.2166440  52.6764780  55.3094900  15.4217940  52.6109900  55.8387810
  16.4209720  53.6115420  55.2980250  13.1584860  66.7156330  59.3033290
  13.7543930  66.3940900  58.6267710  13.4163010  66.2428150  60.0946560
   4.7653460  64.7033830  65.0533640   4.5244820  64.9708390  64.1664160
   5.7056100  64.8739560  65.1084500   6.9707880  51.1666520  68.8090150
   6.9096770  51.7588350  69.5585560   7.9108260  51.0592480  68.6640410
   9.6082440  50.8236580  68.4482440  10.2222850  51.1415870  67.7863520
  10.1532000  50.3385170  69.0678300  16.0257620  66.7228210  65.8544280
  15.5315900  67.1197080  65.1371410  15.4170910  66.0977420  66.2481560
  10.3490480  49.3868720  64.7751730   9.4750320  49.7203830  64.5724660
  10.2401230  48.9141900  65.6003600  11.2562460  51.5939590  66.1593450
  10.9275820  50.7791350  65.7795180  12.2044760  51.5509400  66.0359140
  13.7097070  67.3651630  63.1331020  13.2500040  68.1167440  62.7589040
  13.0809530  66.6458100  63.0745820   4.1392790  65.6739870  62.3079150
   4.6557810  65.0627230  61.7827410   4.7890170  66.1768650  62.7990160
   6.8788290  66.5648360  63.1348130   7.1666100  66.3102660  62.2581140
   7.3911510  66.0125720  63.7253700   8.0965300  50.3038560  63.7144640
   7.3137090  50.7784060  63.9941400   7.8028230  49.3993390  63.6057820
  12.6486370  51.0061660  61.7593730  13.0894460  50.9506760  60.9115330
  12.3793960  51.9219670  61.8303910  14.5124940  50.6376900  59.7702550
  14.4513340  49.6938120  59.6233570  15.2916970  50.7456990  60.3156010
   5.9819520  52.7225310  59.2260670   5.1694030  52.3482200  58.8856550
   6.4861160  51.9670390  59.5281860  10.4844500  49.3867760  60.4643740
  11.0873870  49.9587970  60.9392260   9.7437490  49.9507200  60.2417640
  13.6279100  49.7889320  55.7384020  13.8229730  50.6872770  56.0051450
  12.8408970  49.5576400  56.2316970   1.8130860  51.1350090  54.7760330
   2.3423620  50.3479890  54.6468280   2.4459180  51.8141280  55.0095860
   4.0068700  50.8725230  57.8305720   3.3771440  50.1712540  57.9975850
   3.4673840  51.6329360  57.6138880   6.9460650  67.4864460  70.5016330
   7.8727960  67.2508730  70.5452290   6.9311080  68.3136460  70.0202360
  15.1805710  67.0290030  57.4990580  15.3557900  66.3427770  56.8551500
  14.4827280  67.5537080  57.1067250   4.1324260  50.1509210  70.2658210
   3.8508530  50.6542810  69.5019030   4.5143960  49.3530960  69.9000340
   3.0233360  67.4184870  55.0525890   3.7552180  67.1344150  54.5049780
   3.2827030  67.1798150  55.9425270   2.1848150  63.5349600  55.0572220
   1.5557030  64.0034700  55.6058050   2.2995980  62.6898820  55.4918410
  10.7339720  49.5662790  70.8438680  10.6205170  49.8857400  71.7390200
  11.5509460  49.9675300  70.5475960  13.5138210  66.7134320  70.3257370
  14.3063530  66.2183550  70.1183330  13.8071360  67.3924460  70.9332980
   9.6397870  57.5855260  41.2073420   9.5591920  56.6709870  40.9365130
   9.2262290  58.0822330  40.5013130   7.7715910  59.3634280  43.0882690
   6.9958010  58.8834720  43.3781260   8.4228840  58.6839930  42.9138850
  11.7923340  63.7694470  41.8681820  11.3304870  62.9981710  42.1968990
  12.6048890  63.7960540  42.3734270   1.7683000  63.7094180  44.1616470
   2.0711040  62.8191920  43.9826690   2.5126590  64.2664400  43.9338720
   8.0186650  66.0552480  41.4885810   7.3998090  66.5109980  40.9180250
   8.8738430  66.2103940  41.0875510   7.2124900  62.0391470  43.0952850
   7.1433180  61.0981410  42.9341980   7.9744760  62.1292880  43.6675420
   8.2430070  54.8461850  43.3221780   8.6194890  53.9733730  43.2095450
   8.1449580  55.1820550  42.4312220   2.3735080  53.2187480  38.7839220
   2.4801830  54.1191210  39.0907980   1.4627440  53.1705450  38.4933870
  12.0254190  52.3412290  40.2550120  12.8463810  51.8508860  40.2975600
  12.0588270  52.9309950  41.0081960   4.2142810  56.1873850  43.1164400
   4.7221030  56.6854820  43.7569420   4.7456050  55.4109050  42.9403760
  16.3153740  54.3579040  46.8193750  15.6105910  54.7460750  46.3008860
  16.5811660  55.0529330  47.4214680   2.4978910  50.8272410  47.3827820
   2.4997350  51.3444800  46.5773720   1.6683220  50.3502590  47.3597750
   8.8850000  60.9391720  38.8817720   8.2667270  61.4041170  38.3180440
   9.3973250  61.6319200  39.2987230   3.7481760  60.4667590  45.5601320
   3.4151140  61.0936510  46.2022390   3.9248440  60.9929470  44.7802990
  12.2615670  54.2812670  43.0277660  11.5571240  54.5697560  43.6080770
  12.6227830  55.0912780  42.6677220   2.1794240  52.5382370  45.3898270
   2.5211050  53.3824420  45.0952140   1.2410050  52.6866110  45.5063610
   2.9600860  62.4348390  47.3750500   3.5774860  63.1099470  47.0934950
   2.0993980  62.8436370  47.2838000  13.8778450  63.8987800  45.2905140
  13.1941970  64.5686910  45.2821810  14.4172740  64.0968450  44.5250000
  15.3302590  53.7267460  43.4186870  14.3827500  53.7606440  43.5502300
  15.6552580  54.5406410  43.8036230   5.8622130  50.0264640  41.7142860
   6.1697110  49.4711530  40.9978360   4.9322830  50.1609100  41.5315850
  11.4137190  65.7431930  44.0050320  11.4264350  65.3394220  43.1372580
  10.8612410  66.5179220  43.9011750  12.7082610  62.4648150  39.0940490
  12.5978940  61.5222480  39.2189910  12.7050860  62.8263790  39.9803250
  10.8122630  60.6461770  45.3332930  11.2291420  60.4321880  44.4986390
  11.5362450  60.9034560  45.9041550   8.2502890  58.0913470  38.4502980
   7.3232170  58.0250850  38.6791450   8.4027710  59.0293600  38.3358220
   8.2371970  54.3630470  35.4470140   7.2975640  54.5244430  35.5322600
   8.5555230  55.0816150  34.9006130  14.7584730  59.0448990  45.4249170
  13.9303360  59.1142080  44.9499300  15.3535210  59.6303300  44.9565000
  12.2800180  59.6533770  38.9538230  11.6612600  59.3153320  38.3064530
  12.2624630  59.0093530  39.6617420  11.7226740  55.8318310  46.3704040
  11.3097920  56.6572020  46.6244030  10.9902690  55.2463350  46.1780400
   3.8559530  58.6178210  41.2322710   3.4516530  57.9055460  40.7368610
   3.9422650  58.2731450  42.1210750   4.3241230  62.3045770  43.3961920
   4.0269520  61.6991240  42.7169700   5.2741050  62.3423080  43.2851280
   2.5688150  55.3921420  45.0121750   3.1202740  55.5016760  44.2375000
   3.0831660  55.7659020  45.7276980  12.4126840  65.8777640  47.0585020
  11.9357400  66.6849830  46.8657630  11.7288630  65.2255970  47.2111230
   3.4159660  62.0427460  50.0469720   2.5188190  62.2667430  50.2943120
   3.4412530  62.1662400  49.0981120  10.4564880  58.8920580  35.9610980
  10.8958160  58.0543010  35.8148800  11.1693300  59.5249980  36.0475120
   2.2430880  58.9140780  48.6227090   2.1038650  59.7863580  48.9914490
   1.3612240  58.5713590  48.4775030   8.5660260  63.8316650  39.9292220
   9.0056170  64.5740980  39.5147610   8.5047150  64.0743220  40.8531180
   4.0411230  64.8562480  50.8312240   4.0126660  65.2605430  49.9640670
   3.8776200  63.9272840  50.6683840  14.0382020  50.1463390  34.2752020
  13.7254680  50.2390220  35.1751090  14.7994490  50.7244420  34.2249450
  15.9926050  65.6389580  52.1276410  16.4685770  66.1172470  52.8065490
  16.6133210  65.5707070  51.4021910  15.3959300  62.8302430  49.2876420
  15.5222360  62.5914310  48.3693600  15.4380680  61.9986970  49.7598500
   9.2576040  66.5330430  47.8571230   9.7720710  66.4438440  48.6593660
   8.4145120  66.8790130  48.1499140  11.2330440  66.8185770  37.2855230
  11.0731580  66.5288710  38.1837060  11.0677150  66.0425900  36.7500460
   3.7118820  66.5984300  39.0626850   3.5361300  65.6819840  38.8494650
   2.8574560  66.9571590  39.3024650  10.9356570  64.3273330  35.8453230
  10.2421730  64.3250620  35.1855510  11.6779430  63.9032650  35.4147400
  10.5006500  65.9536040  39.9201720  10.9563450  65.1725420  40.2340340
  10.8399020  66.6642860  40.4642900  15.2483310  54.8834890  50.2526160
  14.6327580  55.3914560  49.7241620  14.9279730  53.9833220  50.1952100
   3.0227820  50.8558260  42.1153030   2.5795970  51.6367800  41.7837550
   3.5812810  51.1788150  42.8223970   7.3097630  53.7226780  47.7188350
   6.8477000  53.9309800  48.5308290   6.9075740  52.9086130  47.4159020
  12.3102140  54.9435730  48.8485010  11.4595730  54.6441480  49.1694080
  12.1503930  55.1877740  47.9368830   9.4051850  56.4437480  50.9483800
   9.7305260  55.6101230  50.6086030  10.1932180  56.9666000  51.0962130
   6.1386640  50.4768960  36.9958860   5.5140820  50.4728830  37.7212170
   6.0516760  49.6099920  36.5994830   5.0603720  51.4005590  43.9742630
   5.3576050  52.3068420  43.8934650   5.6089280  50.9124370  43.3602200
   2.8142040  55.9791830  39.8434280   2.5882960  55.7629000  40.7480900
   2.0334570  56.4120290  39.4980250  10.0439800  55.9855200  38.4424930
   9.4448690  56.7091000  38.2588550  10.5919410  55.9231980  37.6601380
   5.2541250  56.8777410  50.5094550   5.1584850  55.9372140  50.3594950
   6.0973230  57.0992480  50.1142620   8.6504670  54.6218740  40.4728210
   9.0434240  54.9390940  39.6596900   9.0121520  53.7430620  40.5872730
   6.9596840  53.3726050  51.7325070   6.2695160  53.1798250  52.3671160
   7.7029140  53.6560690  52.2649370   9.2359810  57.2124490  44.5678990
   8.5040930  57.7211300  44.9169090   8.8384150  56.3954470  44.2667770
   5.6737200  53.8878690  42.9731480   5.6773260  53.4468640  42.1236020
   6.5688320  54.2096020  43.0803300   5.7357350  54.8890770  35.9638240
   5.8570170  54.8477250  36.9124060   5.3505860  55.7514920  35.8084970
   9.6985720  52.6658170  43.9801930   9.7158460  53.1166820  44.8243780
   9.4501300  51.7663810  44.1935370   4.7478850  57.1991910  35.3621540
   4.1795750  56.7510160  34.7357450   5.4567850  57.5584690  34.8286690
  13.1256470  50.0790350  49.8188310  13.4502240  49.3480010  50.3446290
  13.1612980  49.7603990  48.9169300   5.9745170  57.9480470  44.7196890
   6.3415300  57.4739040  45.4658230   5.7850230  58.8222040  45.0605230
   3.7644540  56.9889110  47.0381100   3.4601610  57.8681090  47.2631460
   4.7191000  57.0488900  47.0738540   2.2926330  61.1950100  37.6347950
   1.5188590  60.6547720  37.4746670   3.0220960  60.6756710  37.2965710
  13.0514310  60.1915460  43.4274340  13.7713430  60.6870750  43.0370450
  12.8496130  59.5133350  42.7828210   8.5124250  51.5853420  37.5703730
   7.6988860  51.0866590  37.4949040   8.3186200  52.4251670  37.1540080
   8.4333110  60.2624520  49.3143340   8.3670420  59.3420190  49.0600930
   7.8038250  60.3599960  50.0287980  11.2272640  55.9573070  35.8665890
  12.1152260  56.2690300  35.6917230  11.1977730  55.0845320  35.4746470
   2.3363730  60.8630480  41.2726760   2.8542400  60.0598740  41.2183650
   1.8847750  60.8009620  42.1143590   7.2233230  62.1296760  36.5454060
   7.5648930  62.8738990  36.0497380   6.3945940  62.4427880  36.9078890
   3.0221390  58.2876090  51.0692010   2.7221530  58.4333270  50.1719830
   3.7932630  57.7281380  50.9765400   8.3649840  63.0845090  49.0647140
   8.3794380  62.1526050  48.8466050   7.6574940  63.1704850  49.7036910
  13.4986910  57.2684910  35.3345750  13.4150630  57.6999130  34.4842190
  14.2181100  57.7283260  35.7672570  14.5761050  59.7252430  48.4115720
  13.8509240  60.3181210  48.2145110  15.1036510  59.7175970  47.6129090
  14.5274160  64.1227170  38.0627880  13.8850320  63.4682790  38.3371600
  14.1404820  64.5282260  37.2868550  10.1060640  61.4512600  41.9099570
  10.4584460  60.8540730  41.2500940   9.2222970  61.1256830  42.0807820
   6.1923920  62.2110290  39.3169980   6.8795050  62.7579500  39.6977570
   5.4056340  62.7551020  39.3519590   5.4951130  59.2156320  38.9295340
   5.9513910  60.0261570  39.1555530   5.1439340  58.8979460  39.7613830
   7.7983740  64.7262660  46.1587640   8.4425960  64.9322040  46.8361060
   8.1613180  63.9651060  45.7058490   9.0715820  62.7295010  44.8765090
   9.7138050  62.0288170  44.9897260   9.5965170  63.5093450  44.6961980
  12.9171540  63.0143630  34.6004230  12.6909120  62.2974070  35.1928870
  12.5267740  62.7656070  33.7625980  10.8453440  63.5289910  48.0801150
  11.1809680  64.1156600  48.7579070   9.9253780  63.3982620  48.3098940
  12.4987790  60.9315570  36.2618390  12.2109490  61.3928260  37.0496270
  13.2939960  60.4713340  36.5302610   6.6742020  63.5781240  51.2489210
   6.3538890  62.8590480  51.7934900   6.0000380  64.2536310  51.3225270
   4.7156190  64.4241690  36.1922360   4.7066290  65.1571380  35.5766870
   3.7954550  64.1773270  36.2849320   9.8895620  53.8107400  46.6126010
  10.2576440  52.9902610  46.9405580   9.0293820  53.8709290  47.0281660
  13.2557650  52.7664340  37.4213570  12.6270810  52.8710010  36.7071800
  12.7609570  52.9861120  38.2107450   7.7015790  64.4869930  34.8547550
   7.8027770  64.2833920  33.9249530   6.8017530  64.2328210  35.0595330
   5.2241680  55.0450290  38.8371450   4.5157830  55.5136630  39.2785060
   5.5086160  54.3872300  39.4716640   6.8497610  56.4646990  46.8363980
   7.3482860  56.9392810  47.5015830   6.9920560  55.5410510  47.0434010
   9.2557110  51.7700950  40.2767240   9.1324890  51.7887080  39.3276750
  10.2041670  51.8179890  40.3965640   6.3433900  67.0056250  39.5495220
   6.5975400  66.9677640  38.6274590   5.3946380  66.8789580  39.5423470
   3.4276700  53.3535370  36.2122160   4.2767230  53.7905520  36.1462350
   3.0607970  53.6655630  37.0394220  14.0564470  52.6814950  47.6792370
  13.5538070  53.4220350  48.0186180  14.8721130  53.0698950  47.3629160
  12.3486480  57.9248130  41.1253730  11.4076620  57.9398360  41.3001420
  12.6630550  57.1384090  41.5714030   2.3268120  59.6067730  34.6857690
   3.0931390  59.4949090  35.2483120   2.4042810  58.9105700  34.0334460
  14.3512060  65.0956980  42.8007990  14.4759480  65.9188150  43.2731800
  15.2177620  64.8847710  42.4532140   1.8229590  67.1888190  42.4725120
   2.5592070  66.6403650  42.7433690   2.2070510  68.0544200  42.3331110
   4.9331900  66.3618500  34.2950690   5.7260510  66.6507330  33.8432480
   4.4136250  65.9310670  33.6163170   9.6652500  62.4814130  51.6086110
   9.0590660  62.5045730  50.8681860   9.3606610  61.7497170  52.1453360
  11.0952870  66.2094420  50.2195520  12.0474620  66.1252440  50.1695760
  10.9481090  66.8736130  50.8929310  13.9862070  65.5888630  35.7187430
  13.7003580  65.1753770  34.9041610  13.7881620  66.5176340  35.5987950
   5.4509300  61.5821910  34.1593040   5.3459940  60.9674260  34.8854420
   5.2833520  61.0587800  33.3756050   5.6023620  60.2678710  50.1382270
   4.8369290  60.8363710  50.0536940   5.7839580  59.9754920  49.2450500
   8.6912030  60.6441940  34.7635030   8.1422130  61.0911240  35.4077770
   9.3131290  60.1391190  35.2872700  12.7446970  61.9984040  50.6957290
  13.4856440  62.3359800  50.1924750  11.9819650  62.1676100  50.1427060
   4.3587150  59.6032860  36.6600330   4.7803570  59.4372730  37.5031720
   4.4837990  58.7933090  36.1655470   2.5214570  55.5829410  49.4671310
   1.9911030  55.0920360  48.8394650   3.1902640  56.0113610  48.9329240
   6.8714790  58.6270470  33.9077430   7.3920450  57.9119490  33.5418580
   7.5183190  59.2656340  34.2077940  11.4192630  60.0498870  49.2312500
  11.8333650  60.2043950  50.0802920  10.4843630  60.1754090  49.3938280
  11.8914800  57.3895030  51.2351650  12.4735570  56.6347350  51.1472130
  12.0676570  57.9202470  50.4583130   3.0086870  52.5491780  49.5468600
   2.9143740  51.9312530  48.8219470   2.4284260  53.2758070  49.3198510
   5.7748310  51.1065020  46.5795990   5.3265610  51.1289280  45.7341540
   5.1413510  50.7084040  47.1766290   6.1807860  60.0019350  47.2008430
   6.5995970  60.8452080  47.0284670   5.2616490  60.1391390  46.9715210
   8.5171760  57.7335530  48.5846270   8.6367970  57.1376670  49.3241110
   9.3765760  57.7705220  48.1647570  10.8559660  58.2872720  47.1608780
  10.3294880  58.8115340  46.5573920  11.1991000  58.9200110  47.7918510
   3.2546050  55.6766090  33.6058490   3.0535110  54.8133450  33.9671830
   3.0838100  55.5899450  32.6680090   4.0315280  66.3072360  48.3166160
   3.4936370  67.0318420  47.9974860   4.2849240  65.8302700  47.5263500
   5.2840530  54.2756880  49.8422090   5.8740220  53.9672730  50.5299910
   4.4660770  53.8036630  49.9981990  10.1033960  53.8922690  50.0755110
   9.4149480  53.2304230  50.0105100  10.8239980  53.4460960  50.5203570
  10.7334360  50.4874320  36.1345370  11.0136650  49.6442220  36.4904790
   9.9600090  50.7197430  36.6484120   2.0528850  52.7766710  33.5936370
   2.3554750  52.7834140  32.6855520   2.7923440  52.4264570  34.0904030
   6.8877490  67.5423570  48.5752810   6.8136190  68.4458710  48.8825180
   5.9856330  67.2235470  48.5474880   5.2713780  51.7201330  34.5792570
   4.9235780  51.0425320  33.9995020   5.4726550  51.2590840  35.3935960
   7.4362820  66.7082080  36.1979170   8.3313610  67.0467050  36.2197930
   7.4680450  65.9861490  35.5703450   2.8866700  63.2007170  39.5388400
   2.5862240  63.0772140  40.4392310   2.7804190  62.3415760  39.1304130
  14.4157170  65.2385750  48.9045370  13.8159160  65.2978310  48.1609290
  14.5451070  64.2990730  49.0342220  15.6558620  62.9803570  34.2415080
  14.8251580  63.0480220  34.7122310  15.8330450  63.8707690  33.9381940
  15.1115080  59.7251050  36.7449280  15.8733990  60.2947700  36.8508970
  15.1269450  59.1578250  37.5157590  16.1175050  60.5801150  41.5891210
  16.4883880  59.7968470  41.1827180  16.7576980  61.2690250  41.4108510
  13.1008810  61.9637730  47.0021530  12.2868650  62.3934890  47.2647320
  13.5083010  62.5756140  46.3890580  15.1634250  60.0185420  33.9021800
  15.4383090  60.9264300  33.7741020  14.9744990  59.9547950  34.8383790
  11.5609860  53.0430270  35.1975430  11.9794740  52.8561250  34.3572090
  11.2545920  52.1909320  35.5078360  15.0599590  57.9554410  38.8951230
  14.6843190  57.1882340  38.4632520  14.3302710  58.3377110  39.3826160
  14.4499210  57.1025930  48.5290750  14.2185300  56.8738680  47.6288700
  14.7103760  58.0225480  48.4835640  12.8887280  52.3282360  51.3070450
  13.7657460  52.3365760  51.6904450  12.9008120  51.5913200  50.6962800
  14.3350550  56.1811900  42.1958470  14.8588030  55.6874550  41.5648640
  14.9209970  56.3162260  42.9406040  14.5140270  56.2651770  45.7178020
  13.5642980  56.2315310  45.8323010  14.6953280  57.1751880  45.4827790
  13.8250520  55.4385250  38.1350880  14.3209640  55.2056120  38.9199760
  13.6266590  54.5997090  37.7188520  15.2537680  54.0746200  40.6688560
  15.1436960  53.9202240  41.6070830  16.0145270  53.5467140  40.4263970
  13.6003400  50.0140330  47.1271560  14.2375620  50.6274470  47.4930750
  13.7478290  50.0500990  46.1820790  16.1427950  51.9054120  33.9094700
  17.0677260  51.7735300  33.7012990  16.1203740  51.9846940  34.8631150
  16.2166440  52.6764780  36.5351410  15.4217940  52.6109900  37.0644320
  16.4209720  53.6115420  36.5236760  13.1584860  66.7156330  40.5289800
  13.7543930  66.3940900  39.8524220  13.4163010  66.2428150  41.3203070
   4.7653460  64.7033830  46.2790150   4.5244820  64.9708390  45.3920670
   5.7056100  64.8739560  46.3341010   6.9707880  51.1666520  50.0346660
   6.9096770  51.7588350  50.7842070   7.9108260  51.0592480  49.8896920
   9.6082440  50.8236580  49.6738950  10.2222850  51.1415870  49.0120030
  10.1532000  50.3385170  50.2934810  16.0257620  66.7228210  47.0800790
  15.5315900  67.1197080  46.3627920  15.4170910  66.0977420  47.4738070
  10.3490480  49.3868720  46.0008240   9.4750320  49.7203830  45.7981170
  10.2401230  48.9141900  46.8260110  11.2562460  51.5939590  47.3849960
  10.9275820  50.7791350  47.0051690  12.2044760  51.5509400  47.2615650
  13.7097070  67.3651630  44.3587530  13.2500040  68.1167440  43.9845550
  13.0809530  66.6458100  44.3002330   4.1392790  65.6739870  43.5335660
   4.6557810  65.0627230  43.0083920   4.7890170  66.1768650  44.0246670
   6.8788290  66.5648360  44.3604640   7.1666100  66.3102660  43.4837650
   7.3911510  66.0125720  44.9510210   8.0965300  50.3038560  44.9401150
   7.3137090  50.7784060  45.2197910   7.8028230  49.3993390  44.8314330
  12.6486370  51.0061660  42.9850240  13.0894460  50.9506760  42.1371840
  12.3793960  51.9219670  43.0560420  14.5124940  50.6376900  40.9959060
  14.4513340  49.6938120  40.8490080  15.2916970  50.7456990  41.5412520
   5.9819520  52.7225310  40.4517180   5.1694030  52.3482200  40.1113060
   6.4861160  51.9670390  40.7538370  10.4844500  49.3867760  41.6900250
  11.0873870  49.9587970  42.1648770   9.7437490  49.9507200  41.4674150
  13.6279100  49.7889320  36.9640530  13.8229730  50.6872770  37.2307960
  12.8408970  49.5576400  37.4573480   1.8130860  51.1350090  36.0016840
   2.3423620  50.3479890  35.8724790   2.4459180  51.8141280  36.2352370
   4.0068700  50.8725230  39.0562230   3.3771440  50.1712540  39.2232360
   3.4673840  51.6329360  38.8395390   6.9460650  67.4864460  51.7272840
   7.8727960  67.2508730  51.7708800   6.9311080  68.3136460  51.2458870
  15.1805710  67.0290030  38.7247090  15.3557900  66.3427770  38.0808010
  14.4827280  67.5537080  38.3323760   4.1324260  50.1509210  51.4914720
   3.8508530  50.6542810  50.7275540   4.5143960  49.3530960  51.1256850
   3.0233360  67.4184870  36.2782400   3.7552180  67.1344150  35.7306290
   3.2827030  67.1798150  37.1681780   2.1848150  63.5349600  36.2828730
   1.5557030  64.0034700  36.8314560   2.2995980  62.6898820  36.7174920
  10.7339720  49.5662790  52.0695190  10.6205170  49.8857400  52.9646710
  11.5509460  49.9675300  51.7732470  13.5138210  66.7134320  51.5513880
  14.3063530  66.2183550  51.3439840  13.8071360  67.3924460  52.1589490
   9.6397870  57.5855260  22.4329930   9.5591920  56.6709870  22.1621640
   9.2262290  58.0822330  21.7269640   7.7715910  59.3634280  24.3139200
   6.9958010  58.8834720  24.6037770   8.4228840  58.6839930  24.1395360
  11.7923340  63.7694470  23.0938330  11.3304870  62.9981710  23.4225500
  12.6048890  63.7960540  23.5990780   1.7683000  63.7094180  25.3872980
   2.0711040  62.8191920  25.2083200   2.5126590  64.2664400  25.1595230
   8.0186650  66.0552480  22.7142320   7.3998090  66.5109980  22.1436760
   8.8738430  66.2103940  22.3132020   7.2124900  62.0391470  24.3209360
   7.1433180  61.0981410  24.1598490   7.9744760  62.1292880  24.8931930
   8.2430070  54.8461850  24.5478290   8.6194890  53.9733730  24.4351960
   8.1449580  55.1820550  23.6568730   2.3735080  53.2187480  20.0095730
   2.4801830  54.1191210  20.3164490   1.4627440  53.1705450  19.7190380
  12.0254190  52.3412290  21.4806630  12.8463810  51.8508860  21.5232110
  12.0588270  52.9309950  22.2338470   4.2142810  56.1873850  24.3420910
   4.7221030  56.6854820  24.9825930   4.7456050  55.4109050  24.1660270
  16.3153740  54.3579040  28.0450260  15.6105910  54.7460750  27.5265370
  16.5811660  55.0529330  28.6471190   2.4978910  50.8272410  28.6084330
   2.4997350  51.3444800  27.8030230   1.6683220  50.3502590  28.5854260
   8.8850000  60.9391720  20.1074230   8.2667270  61.4041170  19.5436950
   9.3973250  61.6319200  20.5243740   3.7481760  60.4667590  26.7857830
   3.4151140  61.0936510  27.4278900   3.9248440  60.9929470  26.0059500
  12.2615670  54.2812670  24.2534170  11.5571240  54.5697560  24.8337280
  12.6227830  55.0912780  23.8933730   2.1794240  52.5382370  26.6154780
   2.5211050  53.3824420  26.3208650   1.2410050  52.6866110  26.7320120
   2.9600860  62.4348390  28.6007010   3.5774860  63.1099470  28.3191460
   2.0993980  62.8436370  28.5094510  13.8778450  63.8987800  26.5161650
  13.1941970  64.5686910  26.5078320  14.4172740  64.0968450  25.7506510
  15.3302590  53.7267460  24.6443380  14.3827500  53.7606440  24.7758810
  15.6552580  54.5406410  25.0292740   5.8622130  50.0264640  22.9399370
   6.1697110  49.4711530  22.2234870   4.9322830  50.1609100  22.7572360
  11.4137190  65.7431930  25.2306830  11.4264350  65.3394220  24.3629090
  10.8612410  66.5179220  25.1268260  12.7082610  62.4648150  20.3197000
  12.5978940  61.5222480  20.4446420  12.7050860  62.8263790  21.2059760
  10.8122630  60.6461770  26.5589440  11.2291420  60.4321880  25.7242900
  11.5362450  60.9034560  27.1298060   8.2502890  58.0913470  19.6759490
   7.3232170  58.0250850  19.9047960   8.4027710  59.0293600  19.5614730
   8.2371970  54.3630470  16.6726650   7.2975640  54.5244430  16.7579110
   8.5555230  55.0816150  16.1262640  14.7584730  59.0448990  26.6505680
  13.9303360  59.1142080  26.1755810  15.3535210  59.6303300  26.1821510
  12.2800180  59.6533770  20.1794740  11.6612600  59.3153320  19.5321040
  12.2624630  59.0093530  20.8873930  11.7226740  55.8318310  27.5960550
  11.3097920  56.6572020  27.8500540  10.9902690  55.2463350  27.4036910
   3.8559530  58.6178210  22.4579220   3.4516530  57.9055460  21.9625120
   3.9422650  58.2731450  23.3467260   4.3241230  62.3045770  24.6218430
   4.0269520  61.6991240  23.9426210   5.2741050  62.3423080  24.5107790
   2.5688150  55.3921420  26.2378260   3.1202740  55.5016760  25.4631510
   3.0831660  55.7659020  26.9533490  12.4126840  65.8777640  28.2841530
  11.9357400  66.6849830  28.0914140  11.7288630  65.2255970  28.4367740
   3.4159660  62.0427460  31.2726230   2.5188190  62.2667430  31.5199630
   3.4412530  62.1662400  30.3237630  10.4564880  58.8920580  17.1867490
  10.8958160  58.0543010  17.0405310  11.1693300  59.5249980  17.2731630
   2.2430880  58.9140780  29.8483600   2.1038650  59.7863580  30.2171000
   1.3612240  58.5713590  29.7031540   8.5660260  63.8316650  21.1548730
   9.0056170  64.5740980  20.7404120   8.5047150  64.0743220  22.0787690
   4.0411230  64.8562480  32.0568750   4.0126660  65.2605430  31.1897180
   3.8776200  63.9272840  31.8940350  14.0382020  50.1463390  15.5008530
  13.7254680  50.2390220  16.4007600  14.7994490  50.7244420  15.4505960
  15.9926050  65.6389580  33.3532920  16.4685770  66.1172470  34.0322000
  16.6133210  65.5707070  32.6278420  15.3959300  62.8302430  30.5132930
  15.5222360  62.5914310  29.5950110  15.4380680  61.9986970  30.9855010
   9.2576040  66.5330430  29.0827740   9.7720710  66.4438440  29.8850170
   8.4145120  66.8790130  29.3755650  11.2330440  66.8185770  18.5111740
  11.0731580  66.5288710  19.4093570  11.0677150  66.0425900  17.9756970
   3.7118820  66.5984300  20.2883360   3.5361300  65.6819840  20.0751160
   2.8574560  66.9571590  20.5281160  10.9356570  64.3273330  17.0709740
  10.2421730  64.3250620  16.4112020  11.6779430  63.9032650  16.6403910
  10.5006500  65.9536040  21.1458230  10.9563450  65.1725420  21.4596850
  10.8399020  66.6642860  21.6899410  15.2483310  54.8834890  31.4782670
  14.6327580  55.3914560  30.9498130  14.9279730  53.9833220  31.4208610
   3.0227820  50.8558260  23.3409540   2.5795970  51.6367800  23.0094060
   3.5812810  51.1788150  24.0480480   7.3097630  53.7226780  28.9444860
   6.8477000  53.9309800  29.7564800   6.9075740  52.9086130  28.6415530
  12.3102140  54.9435730  30.0741520  11.4595730  54.6441480  30.3950590
  12.1503930  55.1877740  29.1625340   9.4051850  56.4437480  32.1740310
   9.7305260  55.6101230  31.8342540  10.1932180  56.9666000  32.3218640
   6.1386640  50.4768960  18.2215370   5.5140820  50.4728830  18.9468680
   6.0516760  49.6099920  17.8251340   5.0603720  51.4005590  25.1999140
   5.3576050  52.3068420  25.1191160   5.6089280  50.9124370  24.5858710
   2.8142040  55.9791830  21.0690790   2.5882960  55.7629000  21.9737410
   2.0334570  56.4120290  20.7236760  10.0439800  55.9855200  19.6681440
   9.4448690  56.7091000  19.4845060  10.5919410  55.9231980  18.8857890
   5.2541250  56.8777410  31.7351060   5.1584850  55.9372140  31.5851460
   6.0973230  57.0992480  31.3399130   8.6504670  54.6218740  21.6984720
   9.0434240  54.9390940  20.8853410   9.0121520  53.7430620  21.8129240
   6.9596840  53.3726050  32.9581580   6.2695160  53.1798250  33.5927670
   7.7029140  53.6560690  33.4905880   9.2359810  57.2124490  25.7935500
   8.5040930  57.7211300  26.1425600   8.8384150  56.3954470  25.4924280
   5.6737200  53.8878690  24.1987990   5.6773260  53.4468640  23.3492530
   6.5688320  54.2096020  24.3059810   5.7357350  54.8890770  17.1894750
   5.8570170  54.8477250  18.1380570   5.3505860  55.7514920  17.0341480
   9.6985720  52.6658170  25.2058440   9.7158460  53.1166820  26.0500290
   9.4501300  51.7663810  25.4191880   4.7478850  57.1991910  16.5878050
   4.1795750  56.7510160  15.9613960   5.4567850  57.5584690  16.0543200
  13.1256470  50.0790350  31.0444820  13.4502240  49.3480010  31.5702800
  13.1612980  49.7603990  30.1425810   5.9745170  57.9480470  25.9453400
   6.3415300  57.4739040  26.6914740   5.7850230  58.8222040  26.2861740
   3.7644540  56.9889110  28.2637610   3.4601610  57.8681090  28.4887970
   4.7191000  57.0488900  28.2995050   2.2926330  61.1950100  18.8604460
   1.5188590  60.6547720  18.7003180   3.0220960  60.6756710  18.5222220
  13.0514310  60.1915460  24.6530850  13.7713430  60.6870750  24.2626960
  12.8496130  59.5133350  24.0084720   8.5124250  51.5853420  18.7960240
   7.6988860  51.0866590  18.7205550   8.3186200  52.4251670  18.3796590
   8.4333110  60.2624520  30.5399850   8.3670420  59.3420190  30.2857440
   7.8038250  60.3599960  31.2544490  11.2272640  55.9573070  17.0922400
  12.1152260  56.2690300  16.9173740  11.1977730  55.0845320  16.7002980
   2.3363730  60.8630480  22.4983270   2.8542400  60.0598740  22.4440160
   1.8847750  60.8009620  23.3400100   7.2233230  62.1296760  17.7710570
   7.5648930  62.8738990  17.2753890   6.3945940  62.4427880  18.1335400
   3.0221390  58.2876090  32.2948520   2.7221530  58.4333270  31.3976340
   3.7932630  57.7281380  32.2021910   8.3649840  63.0845090  30.2903650
   8.3794380  62.1526050  30.0722560   7.6574940  63.1704850  30.9293420
  13.4986910  57.2684910  16.5602260  13.4150630  57.6999130  15.7098700
  14.2181100  57.7283260  16.9929080  14.5761050  59.7252430  29.6372230
  13.8509240  60.3181210  29.4401620  15.1036510  59.7175970  28.8385600
  14.5274160  64.1227170  19.2884390  13.8850320  63.4682790  19.5628110
  14.1404820  64.5282260  18.5125060  10.1060640  61.4512600  23.1356080
  10.4584460  60.8540730  22.4757450   9.2222970  61.1256830  23.3064330
   6.1923920  62.2110290  20.5426490   6.8795050  62.7579500  20.9234080
   5.4056340  62.7551020  20.5776100   5.4951130  59.2156320  20.1551850
   5.9513910  60.0261570  20.3812040   5.1439340  58.8979460  20.9870340
   7.7983740  64.7262660  27.3844150   8.4425960  64.9322040  28.0617570
   8.1613180  63.9651060  26.9315000   9.0715820  62.7295010  26.1021600
   9.7138050  62.0288170  26.2153770   9.5965170  63.5093450  25.9218490
  12.9171540  63.0143630  15.8260740  12.6909120  62.2974070  16.4185380
  12.5267740  62.7656070  14.9882490  10.8453440  63.5289910  29.3057660
  11.1809680  64.1156600  29.9835580   9.9253780  63.3982620  29.5355450
  12.4987790  60.9315570  17.4874900  12.2109490  61.3928260  18.2752780
  13.2939960  60.4713340  17.7559120   6.6742020  63.5781240  32.4745720
   6.3538890  62.8590480  33.0191410   6.0000380  64.2536310  32.5481780
   4.7156190  64.4241690  17.4178870   4.7066290  65.1571380  16.8023380
   3.7954550  64.1773270  17.5105830   9.8895620  53.8107400  27.8382520
  10.2576440  52.9902610  28.1662090   9.0293820  53.8709290  28.2538170
  13.2557650  52.7664340  18.6470080  12.6270810  52.8710010  17.9328310
  12.7609570  52.9861120  19.4363960   7.7015790  64.4869930  16.0804060
   7.8027770  64.2833920  15.1506040   6.8017530  64.2328210  16.2851840
   5.2241680  55.0450290  20.0627960   4.5157830  55.5136630  20.5041570
   5.5086160  54.3872300  20.6973150   6.8497610  56.4646990  28.0620490
   7.3482860  56.9392810  28.7272340   6.9920560  55.5410510  28.2690520
   9.2557110  51.7700950  21.5023750   9.1324890  51.7887080  20.5533260
  10.2041670  51.8179890  21.6222150   6.3433900  67.0056250  20.7751730
   6.5975400  66.9677640  19.8531100   5.3946380  66.8789580  20.7679980
   3.4276700  53.3535370  17.4378670   4.2767230  53.7905520  17.3718860
   3.0607970  53.6655630  18.2650730  14.0564470  52.6814950  28.9048880
  13.5538070  53.4220350  29.2442690  14.8721130  53.0698950  28.5885670
  12.3486480  57.9248130  22.3510240  11.4076620  57.9398360  22.5257930
  12.6630550  57.1384090  22.7970540   2.3268120  59.6067730  15.9114200
   3.0931390  59.4949090  16.4739630   2.4042810  58.9105700  15.2590970
  14.3512060  65.0956980  24.0264500  14.4759480  65.9188150  24.4988310
  15.2177620  64.8847710  23.6788650   1.8229590  67.1888190  23.6981630
   2.5592070  66.6403650  23.9690200   2.2070510  68.0544200  23.5587620
   4.9331900  66.3618500  15.5207200   5.7260510  66.6507330  15.0688990
   4.4136250  65.9310670  14.8419680   9.6652500  62.4814130  32.8342620
   9.0590660  62.5045730  32.0938370   9.3606610  61.7497170  33.3709870
  11.0952870  66.2094420  31.4452030  12.0474620  66.1252440  31.3952270
  10.9481090  66.8736130  32.1185820  13.9862070  65.5888630  16.9443940
  13.7003580  65.1753770  16.1298120  13.7881620  66.5176340  16.8244460
   5.4509300  61.5821910  15.3849550   5.3459940  60.9674260  16.1110930
   5.2833520  61.0587800  14.6012560   5.6023620  60.2678710  31.3638780
   4.8369290  60.8363710  31.2793450   5.7839580  59.9754920  30.4707010
   8.6912030  60.6441940  15.9891540   8.1422130  61.0911240  16.6334280
   9.3131290  60.1391190  16.5129210  12.7446970  61.9984040  31.9213800
  13.4856440  62.3359800  31.4181260  11.9819650  62.1676100  31.3683570
   4.3587150  59.6032860  17.8856840   4.7803570  59.4372730  18.7288230
   4.4837990  58.7933090  17.3911980   2.5214570  55.5829410  30.6927820
   1.9911030  55.0920360  30.0651160   3.1902640  56.0113610  30.1585750
   6.8714790  58.6270470  15.1333940   7.3920450  57.9119490  14.7675090
   7.5183190  59.2656340  15.4334450  11.4192630  60.0498870  30.4569010
  11.8333650  60.2043950  31.3059430  10.4843630  60.1754090  30.6194790
  11.8914800  57.3895030  32.4608160  12.4735570  56.6347350  32.3728640
  12.0676570  57.9202470  31.6839640   3.0086870  52.5491780  30.7725110
   2.9143740  51.9312530  30.0475980   2.4284260  53.2758070  30.5455020
   5.7748310  51.1065020  27.8052500   5.3265610  51.1289280  26.9598050
   5.1413510  50.7084040  28.4022800   6.1807860  60.0019350  28.4264940
   6.5995970  60.8452080  28.2541180   5.2616490  60.1391390  28.1971720
   8.5171760  57.7335530  29.8102780   8.6367970  57.1376670  30.5497620
   9.3765760  57.7705220  29.3904080  10.8559660  58.2872720  28.3865290
  10.3294880  58.8115340  27.7830430  11.1991000  58.9200110  29.0175020
   3.2546050  55.6766090  14.8315000   3.0535110  54.8133450  15.1928340
   3.0838100  55.5899450  13.8936600   4.0315280  66.3072360  29.5422670
   3.4936370  67.0318420  29.2231370   4.2849240  65.8302700  28.7520010
   5.2840530  54.2756880  31.0678600   5.8740220  53.9672730  31.7556420
   4.4660770  53.8036630  31.2238500  10.1033960  53.8922690  31.3011620
   9.4149480  53.2304230  31.2361610  10.8239980  53.4460960  31.7460080
  10.7334360  50.4874320  17.3601880  11.0136650  49.6442220  17.7161300
   9.9600090  50.7197430  17.8740630   2.0528850  52.7766710  14.8192880
   2.3554750  52.7834140  13.9112030   2.7923440  52.4264570  15.3160540
   6.8877490  67.5423570  29.8009320   6.8136190  68.4458710  30.1081690
   5.9856330  67.2235470  29.7731390   5.2713780  51.7201330  15.8049080
   4.9235780  51.0425320  15.2251530   5.4726550  51.2590840  16.6192470
   7.4362820  66.7082080  17.4235680   8.3313610  67.0467050  17.4454440
   7.4680450  65.9861490  16.7959960   2.8866700  63.2007170  20.7644910
   2.5862240  63.0772140  21.6648820   2.7804190  62.3415760  20.3560640
  14.4157170  65.2385750  30.1301880  13.8159160  65.2978310  29.3865800
  14.5451070  64.2990730  30.2598730  15.6558620  62.9803570  15.4671590
  14.8251580  63.0480220  15.9378820  15.8330450  63.8707690  15.1638450
  15.1115080  59.7251050  17.9705790  15.8733990  60.2947700  18.0765480
  15.1269450  59.1578250  18.7414100  16.1175050  60.5801150  22.8147720
  16.4883880  59.7968470  22.4083690  16.7576980  61.2690250  22.6365020
  13.1008810  61.9637730  28.2278040  12.2868650  62.3934890  28.4903830
  13.5083010  62.5756140  27.6147090  15.1634250  60.0185420  15.1278310
  15.4383090  60.9264300  14.9997530  14.9744990  59.9547950  16.0640300
  11.5609860  53.0430270  16.4231940  11.9794740  52.8561250  15.5828600
  11.2545920  52.1909320  16.7334870  15.0599590  57.9554410  20.1207740
  14.6843190  57.1882340  19.6889030  14.3302710  58.3377110  20.6082670
  14.4499210  57.1025930  29.7547260  14.2185300  56.8738680  28.8545210
  14.7103760  58.0225480  29.7092150  12.8887280  52.3282360  32.5326960
  13.7657460  52.3365760  32.9160960  12.9008120  51.5913200  31.9219310
  14.3350550  56.1811900  23.4214980  14.8588030  55.6874550  22.7905150
  14.9209970  56.3162260  24.1662550  14.5140270  56.2651770  26.9434530
  13.5642980  56.2315310  27.0579520  14.6953280  57.1751880  26.7084300
  13.8250520  55.4385250  19.3607390  14.3209640  55.2056120  20.1456270
  13.6266590  54.5997090  18.9445030  15.2537680  54.0746200  21.8945070
  15.1436960  53.9202240  22.8327340  16.0145270  53.5467140  21.6520480
  13.6003400  50.0140330  28.3528070  14.2375620  50.6274470  28.7187260
  13.7478290  50.0500990  27.4077300  16.1427950  51.9054120  15.1351210
  17.0677260  51.7735300  14.9269500  16.1203740  51.9846940  16.0887660
  16.2166440  52.6764780  17.7607920  15.4217940  52.6109900  18.2900830
  16.4209720  53.6115420  17.7493270  13.1584860  66.7156330  21.7546310
  13.7543930  66.3940900  21.0780730  13.4163010  66.2428150  22.5459580
   4.7653460  64.7033830  27.5046660   4.5244820  64.9708390  26.6177180
   5.7056100  64.8739560  27.5597520   6.9707880  51.1666520  31.2603170
   6.9096770  51.7588350  32.0098580   7.9108260  51.0592480  31.1153430
   9.6082440  50.8236580  30.8995460  10.2222850  51.1415870  30.2376540
  10.1532000  50.3385170  31.5191320  16.0257620  66.7228210  28.3057300
  15.5315900  67.1197080  27.5884430  15.4170910  66.0977420  28.6994580
  10.3490480  49.3868720  27.2264750   9.4750320  49.7203830  27.0237680
  10.2401230  48.9141900  28.0516620  11.2562460  51.5939590  28.6106470
  10.9275820  50.7791350  28.2308200  12.2044760  51.5509400  28.4872160
  13.7097070  67.3651630  25.5844040  13.2500040  68.1167440  25.2102060
  13.0809530  66.6458100  25.5258840   4.1392790  65.6739870  24.7592170
   4.6557810  65.0627230  24.2340430   4.7890170  66.1768650  25.2503180
   6.8788290  66.5648360  25.5861150   7.1666100  66.3102660  24.7094160
   7.3911510  66.0125720  26.1766720   8.0965300  50.3038560  26.1657660
   7.3137090  50.7784060  26.4454420   7.8028230  49.3993390  26.0570840
  12.6486370  51.0061660  24.2106750  13.0894460  50.9506760  23.3628350
  12.3793960  51.9219670  24.2816930  14.5124940  50.6376900  22.2215570
  14.4513340  49.6938120  22.0746590  15.2916970  50.7456990  22.7669030
   5.9819520  52.7225310  21.6773690   5.1694030  52.3482200  21.3369570
   6.4861160  51.9670390  21.9794880  10.4844500  49.3867760  22.9156760
  11.0873870  49.9587970  23.3905280   9.7437490  49.9507200  22.6930660
  13.6279100  49.7889320  18.1897040  13.8229730  50.6872770  18.4564470
  12.8408970  49.5576400  18.6829990   1.8130860  51.1350090  17.2273350
   2.3423620  50.3479890  17.0981300   2.4459180  51.8141280  17.4608880
   4.0068700  50.8725230  20.2818740   3.3771440  50.1712540  20.4488870
   3.4673840  51.6329360  20.0651900   6.9460650  67.4864460  32.9529350
   7.8727960  67.2508730  32.9965310   6.9311080  68.3136460  32.4715380
  15.1805710  67.0290030  19.9503600  15.3557900  66.3427770  19.3064520
  14.4827280  67.5537080  19.5580270   4.1324260  50.1509210  32.7171230
   3.8508530  50.6542810  31.9532050   4.5143960  49.3530960  32.3513360
   3.0233360  67.4184870  17.5038910   3.7552180  67.1344150  16.9562800
   3.2827030  67.1798150  18.3938290   2.1848150  63.5349600  17.5085240
   1.5557030  64.0034700  18.0571070   2.2995980  62.6898820  17.9431430
  10.7339720  49.5662790  33.2951700  10.6205170  49.8857400  34.1903220
  11.5509460  49.9675300  32.9988980  13.5138210  66.7134320  32.7770390
  14.3063530  66.2183550  32.5696350  13.8071360  67.3924460  33.3846000
   9.6397870  57.5855260   3.6586440   9.5591920  56.6709870   3.3878150
   9.2262290  58.0822330   2.9526150   7.7715910  59.3634280   5.5395710
   6.9958010  58.8834720   5.8294280   8.4228840  58.6839930   5.3651870
  11.7923340  63.7694470   4.3194840  11.3304870  62.9981710   4.6482010
  12.6048890  63.7960540   4.8247290   1.7683000  63.7094180   6.6129490
   2.0711040  62.8191920   6.4339710   2.5126590  64.2664400   6.3851740
   8.0186650  66.0552480   3.9398830   7.3998090  66.5109980   3.3693270
   8.8738430  66.2103940   3.5388530   7.2124900  62.0391470   5.5465870
   7.1433180  61.0981410   5.3855000   7.9744760  62.1292880   6.1188440
   8.2430070  54.8461850   5.7734800   8.6194890  53.9733730   5.6608470
   8.1449580  55.1820550   4.8825240  12.0254190  52.3412290   2.7063140
  12.8463810  51.8508860   2.7488620  12.0588270  52.9309950   3.4594980
   4.2142810  56.1873850   5.5677420   4.7221030  56.6854820   6.2082440
   4.7456050  55.4109050   5.3916780  16.3153740  54.3579040   9.2706770
  15.6105910  54.7460750   8.7521880  16.5811660  55.0529330   9.8727700
   2.4978910  50.8272410   9.8340840   2.4997350  51.3444800   9.0286740
   1.6683220  50.3502590   9.8110770   3.7481760  60.4667590   8.0114340
   3.4151140  61.0936510   8.6535410   3.9248440  60.9929470   7.2316010
  12.2615670  54.2812670   5.4790680  11.5571240  54.5697560   6.0593790
  12.6227830  55.0912780   5.1190240   2.1794240  52.5382370   7.8411290
   2.5211050  53.3824420   7.5465160   1.2410050  52.6866110   7.9576630
   2.9600860  62.4348390   9.8263520   3.5774860  63.1099470   9.5447970
   2.0993980  62.8436370   9.7351020  13.8778450  63.8987800   7.7418160
  13.1941970  64.5686910   7.7334830  14.4172740  64.0968450   6.9763020
  15.3302590  53.7267460   5.8699890  14.3827500  53.7606440   6.0015320
  15.6552580  54.5406410   6.2549250   5.8622130  50.0264640   4.1655880
   6.1697110  49.4711530   3.4491380   4.9322830  50.1609100   3.9828870
  11.4137190  65.7431930   6.4563340  11.4264350  65.3394220   5.5885600
  10.8612410  66.5179220   6.3524770  10.8122630  60.6461770   7.7845950
  11.2291420  60.4321880   6.9499410  11.5362450  60.9034560   8.3554570
  14.7584730  59.0448990   7.8762190  13.9303360  59.1142080   7.4012320
  15.3535210  59.6303300   7.4078020  11.7226740  55.8318310   8.8217060
  11.3097920  56.6572020   9.0757050  10.9902690  55.2463350   8.6293420
   3.8559530  58.6178210   3.6835730   3.4516530  57.9055460   3.1881630
   3.9422650  58.2731450   4.5723770   4.3241230  62.3045770   5.8474940
   4.0269520  61.6991240   5.1682720   5.2741050  62.3423080   5.7364300
   2.5688150  55.3921420   7.4634770   3.1202740  55.5016760   6.6888020
   3.0831660  55.7659020   8.1790000  12.4126840  65.8777640   9.5098040
  11.9357400  66.6849830   9.3170650  11.7288630  65.2255970   9.6624250
   3.4159660  62.0427460  12.4982740   2.5188190  62.2667430  12.7456140
   3.4412530  62.1662400  11.5494140   2.2430880  58.9140780  11.0740110
   2.1038650  59.7863580  11.4427510   1.3612240  58.5713590  10.9288050
   8.5660260  63.8316650   2.3805240   9.0056170  64.5740980   1.9660630
   8.5047150  64.0743220   3.3044200   4.0411230  64.8562480  13.2825260
   4.0126660  65.2605430  12.4153690   3.8776200  63.9272840  13.1196860
  15.9926050  65.6389580  14.5789430  16.4685770  66.1172470  15.2578510
  16.6133210  65.5707070  13.8534930  15.3959300  62.8302430  11.7389440
  15.5222360  62.5914310  10.8206620  15.4380680  61.9986970  12.2111520
   9.2576040  66.5330430  10.3084250   9.7720710  66.4438440  11.1106680
   8.4145120  66.8790130  10.6012160  10.5006500  65.9536040   2.3714740
  10.9563450  65.1725420   2.6853360  10.8399020  66.6642860   2.9155920
  15.2483310  54.8834890  12.7039180  14.6327580  55.3914560  12.1754640
  14.9279730  53.9833220  12.6465120   3.0227820  50.8558260   4.5666050
   2.5795970  51.6367800   4.2350570   3.5812810  51.1788150   5.2736990
   7.3097630  53.7226780  10.1701370   6.8477000  53.9309800  10.9821310
   6.9075740  52.9086130   9.8672040  12.3102140  54.9435730  11.2998030
  11.4595730  54.6441480  11.6207100  12.1503930  55.1877740  10.3881850
   9.4051850  56.4437480  13.3996820   9.7305260  55.6101230  13.0599050
  10.1932180  56.9666000  13.5475150   5.0603720  51.4005590   6.4255650
   5.3576050  52.3068420   6.3447670   5.6089280  50.9124370   5.8115220
   2.8142040  55.9791830   2.2947300   2.5882960  55.7629000   3.1993920
   2.0334570  56.4120290   1.9493270   5.2541250  56.8777410  12.9607570
   5.1584850  55.9372140  12.8107970   6.0973230  57.0992480  12.5655640
   8.6504670  54.6218740   2.9241230   9.0434240  54.9390940   2.1109920
   9.0121520  53.7430620   3.0385750   6.9596840  53.3726050  14.1838090
   6.2695160  53.1798250  14.8184180   7.7029140  53.6560690  14.7162390
   9.2359810  57.2124490   7.0192010   8.5040930  57.7211300   7.3682110
   8.8384150  56.3954470   6.7180790   5.6737200  53.8878690   5.4244500
   5.6773260  53.4468640   4.5749040   6.5688320  54.2096020   5.5316320
   9.6985720  52.6658170   6.4314950   9.7158460  53.1166820   7.2756800
   9.4501300  51.7663810   6.6448390  13.1256470  50.0790350  12.2701330
  13.4502240  49.3480010  12.7959310  13.1612980  49.7603990  11.3682320
   5.9745170  57.9480470   7.1709910   6.3415300  57.4739040   7.9171250
   5.7850230  58.8222040   7.5118250   3.7644540  56.9889110   9.4894120
   3.4601610  57.8681090   9.7144480   4.7191000  57.0488900   9.5251560
  13.0514310  60.1915460   5.8787360  13.7713430  60.6870750   5.4883470
  12.8496130  59.5133350   5.2341230   8.4333110  60.2624520  11.7656360
   8.3670420  59.3420190  11.5113950   7.8038250  60.3599960  12.4801000
   2.3363730  60.8630480   3.7239780   2.8542400  60.0598740   3.6696670
   1.8847750  60.8009620   4.5656610   3.0221390  58.2876090  13.5205030
   2.7221530  58.4333270  12.6232850   3.7932630  57.7281380  13.4278420
   8.3649840  63.0845090  11.5160160   8.3794380  62.1526050  11.2979070
   7.6574940  63.1704850  12.1549930  14.5761050  59.7252430  10.8628740
  13.8509240  60.3181210  10.6658130  15.1036510  59.7175970  10.0642110
  10.1060640  61.4512600   4.3612590  10.4584460  60.8540730   3.7013960
   9.2222970  61.1256830   4.5320840   6.1923920  62.2110290   1.7683000
   6.8795050  62.7579500   2.1490590   5.4056340  62.7551020   1.8032610
   7.7983740  64.7262660   8.6100660   8.4425960  64.9322040   9.2874080
   8.1613180  63.9651060   8.1571510   9.0715820  62.7295010   7.3278110
   9.7138050  62.0288170   7.4410280   9.5965170  63.5093450   7.1475000
  10.8453440  63.5289910  10.5314170  11.1809680  64.1156600  11.2092090
   9.9253780  63.3982620  10.7611960   6.6742020  63.5781240  13.7002230
   6.3538890  62.8590480  14.2447920   6.0000380  64.2536310  13.7738290
   9.8895620  53.8107400   9.0639030  10.2576440  52.9902610   9.3918600
   9.0293820  53.8709290   9.4794680   6.8497610  56.4646990   9.2877000
   7.3482860  56.9392810   9.9528850   6.9920560  55.5410510   9.4947030
   9.2557110  51.7700950   2.7280260   9.1324890  51.7887080   1.7789770
  10.2041670  51.8179890   2.8478660  14.0564470  52.6814950  10.1305390
  13.5538070  53.4220350  10.4699200  14.8721130  53.0698950   9.8142180
  12.3486480  57.9248130   3.5766750  11.4076620  57.9398360   3.7514440
  12.6630550  57.1384090   4.0227050  14.3512060  65.0956980   5.2521010
  14.4759480  65.9188150   5.7244820  15.2177620  64.8847710   4.9045160
   1.8229590  67.1888190   4.9238140   2.5592070  66.6403650   5.1946710
   2.2070510  68.0544200   4.7844130   9.6652500  62.4814130  14.0599130
   9.0590660  62.5045730  13.3194880   9.3606610  61.7497170  14.5966380
  11.0952870  66.2094420  12.6708540  12.0474620  66.1252440  12.6208780
  10.9481090  66.8736130  13.3442330   5.6023620  60.2678710  12.5895290
   4.8369290  60.8363710  12.5049960   5.7839580  59.9754920  11.6963520
  12.7446970  61.9984040  13.1470310  13.4856440  62.3359800  12.6437770
  11.9819650  62.1676100  12.5940080   2.5214570  55.5829410  11.9184330
   1.9911030  55.0920360  11.2907670   3.1902640  56.0113610  11.3842260
  11.4192630  60.0498870  11.6825520  11.8333650  60.2043950  12.5315940
  10.4843630  60.1754090  11.8451300  11.8914800  57.3895030  13.6864670
  12.4735570  56.6347350  13.5985150  12.0676570  57.9202470  12.9096150
   3.0086870  52.5491780  11.9981620   2.9143740  51.9312530  11.2732490
   2.4284260  53.2758070  11.7711530   5.7748310  51.1065020   9.0309010
   5.3265610  51.1289280   8.1854560   5.1413510  50.7084040   9.6279310
   6.1807860  60.0019350   9.6521450   6.5995970  60.8452080   9.4797690
   5.2616490  60.1391390   9.4228230   8.5171760  57.7335530  11.0359290
   8.6367970  57.1376670  11.7754130   9.3765760  57.7705220  10.6160590
  10.8559660  58.2872720   9.6121800  10.3294880  58.8115340   9.0086940
  11.1991000  58.9200110  10.2431530   4.0315280  66.3072360  10.7679180
   3.4936370  67.0318420  10.4487880   4.2849240  65.8302700   9.9776520
   5.2840530  54.2756880  12.2935110   5.8740220  53.9672730  12.9812930
   4.4660770  53.8036630  12.4495010  10.1033960  53.8922690  12.5268130
   9.4149480  53.2304230  12.4618120  10.8239980  53.4460960  12.9716590
   6.8877490  67.5423570  11.0265830   6.8136190  68.4458710  11.3338200
   5.9856330  67.2235470  10.9987900  14.4157170  65.2385750  11.3558390
  13.8159160  65.2978310  10.6122310  14.5451070  64.2990730  11.4855240
  16.1175050  60.5801150   4.0404230  16.4883880  59.7968470   3.6340200
  16.7576980  61.2690250   3.8621530  13.1008810  61.9637730   9.4534550
  12.2868650  62.3934890   9.7160340  13.5083010  62.5756140   8.8403600
  14.4499210  57.1025930  10.9803770  14.2185300  56.8738680  10.0801720
  14.7103760  58.0225480  10.9348660  12.8887280  52.3282360  13.7583470
  13.7657460  52.3365760  14.1417470  12.9008120  51.5913200  13.1475820
  14.3350550  56.1811900   4.6471490  14.8588030  55.6874550   4.0161660
  14.9209970  56.3162260   5.3919060  14.5140270  56.2651770   8.1691040
  13.5642980  56.2315310   8.2836030  14.6953280  57.1751880   7.9340810
  15.2537680  54.0746200   3.1201580  15.1436960  53.9202240   4.0583850
  16.0145270  53.5467140   2.8776990  13.6003400  50.0140330   9.5784580
  14.2375620  50.6274470   9.9443770  13.7478290  50.0500990   8.6333810
  13.1584860  66.7156330   2.9802820  13.7543930  66.3940900   2.3037240
  13.4163010  66.2428150   3.7716090   4.7653460  64.7033830   8.7303170
   4.5244820  64.9708390   7.8433690   5.7056100  64.8739560   8.7854030
   6.9707880  51.1666520  12.4859680   6.9096770  51.7588350  13.2355090
   7.9108260  51.0592480  12.3409940   9.6082440  50.8236580  12.1251970
  10.2222850  51.1415870  11.4633050  10.1532000  50.3385170  12.7447830
  16.0257620  66.7228210   9.5313810  15.5315900  67.1197080   8.8140940
  15.4170910  66.0977420   9.9251090  10.3490480  49.3868720   8.4521260
   9.4750320  49.7203830   8.2494190  10.2401230  48.9141900   9.2773130
  11.2562460  51.5939590   9.8362980  10.9275820  50.7791350   9.4564710
  12.2044760  51.5509400   9.7128670  13.7097070  67.3651630   6.8100550
  13.2500040  68.1167440   6.4358570  13.0809530  66.6458100   6.7515350
   4.1392790  65.6739870   5.9848680   4.6557810  65.0627230   5.4596940
   4.7890170  66.1768650   6.4759690   6.8788290  66.5648360   6.8117660
   7.1666100  66.3102660   5.9350670   7.3911510  66.0125720   7.4023230
   8.0965300  50.3038560   7.3914170   7.3137090  50.7784060   7.6710930
   7.8028230  49.3993390   7.2827350  12.6486370  51.0061660   5.4363260
  13.0894460  50.9506760   4.5884860  12.3793960  51.9219670   5.5073440
  14.5124940  50.6376900   3.4472080  14.4513340  49.6938120   3.3003100
  15.2916970  50.7456990   3.9925540   5.9819520  52.7225310   2.9030200
   5.1694030  52.3482200   2.5626080   6.4861160  51.9670390   3.2051390
  10.4844500  49.3867760   4.1413270  11.0873870  49.9587970   4.6161790
   9.7437490  49.9507200   3.9187170   6.9460650  67.4864460  14.1785860
   7.8727960  67.2508730  14.2221820   6.9311080  68.3136460  13.6971890
   4.1324260  50.1509210  13.9427740   3.8508530  50.6542810  13.1788560
   4.5143960  49.3530960  13.5769870  10.7339720  49.5662790  14.5208210
  10.6205170  49.8857400  15.4159730  11.5509460  49.9675300  14.2245490
  13.5138210  66.7134320  14.0026900  14.3063530  66.2183550  13.7952860
  13.8071360  67.3924460  14.6102510   9.6397870  38.8111770  97.5303890
   9.5591920  37.8966380  97.2595600   9.2262290  39.3078840  96.8243600
   7.7715910  40.5890790  99.4113160   6.9958010  40.1091230  99.7011730
   8.4228840  39.9096440  99.2369320  11.7923340  44.9950980  98.1912290
  11.3304870  44.2238220  98.5199460  12.6048890  45.0217050  98.6964740
   1.7683000  44.9350690 100.4846940   2.0711040  44.0448430 100.3057160
   2.5126590  45.4920910 100.2569190   8.0186650  47.2808990  97.8116280
   7.3998090  47.7366490  97.2410720   8.8738430  47.4360450  97.4105980
   7.2124900  43.2647980  99.4183320   7.1433180  42.3237920  99.2572450
   7.9744760  43.3549390  99.9905890   8.2430070  36.0718360  99.6452250
   8.6194890  35.1990240  99.5325920   8.1449580  36.4077060  98.7542690
   2.3735080  34.4443990  95.1069690   2.4801830  35.3447720  95.4138450
   1.4627440  34.3961960  94.8164340  12.0254190  33.5668800  96.5780590
  12.8463810  33.0765370  96.6206070  12.0588270  34.1566460  97.3312430
   4.2142810  37.4130360  99.4394870   4.7221030  37.9111330 100.0799890
   4.7456050  36.6365560  99.2634230   8.8850000  42.1648230  95.2048190
   8.2667270  42.6297680  94.6410910   9.3973250  42.8575710  95.6217700
   3.7481760  41.6924100 101.8831790   3.4151140  42.3193020 102.5252860
   3.9248440  42.2185980 101.1033460  12.2615670  35.5069180  99.3508130
  11.5571240  35.7954070  99.9311240  12.6227830  36.3169290  98.9907690
   2.1794240  33.7638880 101.7128740   2.5211050  34.6080930 101.4182610
   1.2410050  33.9122620 101.8294080  13.8778450  45.1244310 101.6135610
  13.1941970  45.7943420 101.6052280  14.4172740  45.3224960 100.8480470
  15.3302590  34.9523970  99.7417340  14.3827500  34.9862950  99.8732770
  15.6552580  35.7662920 100.1266700   5.8622130  31.2521150  98.0373330
   6.1697110  30.6968040  97.3208830   4.9322830  31.3865610  97.8546320
  11.4137190  46.9688440 100.3280790  11.4264350  46.5650730  99.4603050
  10.8612410  47.7435730 100.2242220  12.7082610  43.6904660  95.4170960
  12.5978940  42.7478990  95.5420380  12.7050860  44.0520300  96.3033720
  10.8122630  41.8718280 101.6563400  11.2291420  41.6578390 100.8216860
  11.5362450  42.1291070 102.2272020   8.2502890  39.3169980  94.7733450
   7.3232170  39.2507360  95.0021920   8.4027710  40.2550110  94.6588690
   8.2371970  35.5886980  91.7700610   7.2975640  35.7500940  91.8553070
   8.5555230  36.3072660  91.2236600  14.7584730  40.2705500 101.7479640
  13.9303360  40.3398590 101.2729770  15.3535210  40.8559810 101.2795470
  12.2800180  40.8790280  95.2768700  11.6612600  40.5409830  94.6295000
  12.2624630  40.2350040  95.9847890   3.8559530  39.8434720  97.5553180
   3.4516530  39.1311970  97.0599080   3.9422650  39.4987960  98.4441220
   4.3241230  43.5302280  99.7192390   4.0269520  42.9247750  99.0400170
   5.2741050  43.5679590  99.6081750   2.5688150  36.6177930 101.3352220
   3.1202740  36.7273270 100.5605470   3.0831660  36.9915530 102.0507450
  10.4564880  40.1177090  92.2841450  10.8958160  39.2799520  92.1379270
  11.1693300  40.7506490  92.3705590   8.5660260  45.0573160  96.2522690
   9.0056170  45.7997490  95.8378080   8.5047150  45.2999730  97.1761650
  14.0382020  31.3719900  90.5982490  13.7254680  31.4646730  91.4981560
  14.7994490  31.9500930  90.5479920  11.2330440  48.0442280  93.6085700
  11.0731580  47.7545220  94.5067530  11.0677150  47.2682410  93.0730930
   3.7118820  47.8240810  95.3857320   3.5361300  46.9076350  95.1725120
   2.8574560  48.1828100  95.6255120  10.9356570  45.5529840  92.1683700
  10.2421730  45.5507130  91.5085980  11.6779430  45.1289160  91.7377870
  10.5006500  47.1792550  96.2432190  10.9563450  46.3981930  96.5570810
  10.8399020  47.8899370  96.7873370   3.0227820  32.0814770  98.4383500
   2.5795970  32.8624310  98.1068020   3.5812810  32.4044660  99.1454440
   6.1386640  31.7025470  93.3189330   5.5140820  31.6985340  94.0442640
   6.0516760  30.8356430  92.9225300   5.0603720  32.6262100 100.2973100
   5.3576050  33.5324930 100.2165120   5.6089280  32.1380880  99.6832670
   2.8142040  37.2048340  96.1664750   2.5882960  36.9885510  97.0711370
   2.0334570  37.6376800  95.8210720  10.0439800  37.2111710  94.7655400
   9.4448690  37.9347510  94.5819020  10.5919410  37.1488490  93.9831850
   8.6504670  35.8475250  96.7958680   9.0434240  36.1647450  95.9827370
   9.0121520  34.9687130  96.9103200   9.2359810  38.4381000 100.8909460
   8.5040930  38.9467810 101.2399560   8.8384150  37.6210980 100.5898240
   5.6737200  35.1135200  99.2961950   5.6773260  34.6725150  98.4466490
   6.5688320  35.4352530  99.4033770   5.7357350  36.1147280  92.2868710
   5.8570170  36.0733760  93.2354530   5.3505860  36.9771430  92.1315440
   9.6985720  33.8914680 100.3032400   9.7158460  34.3423330 101.1474250
   9.4501300  32.9920320 100.5165840   4.7478850  38.4248420  91.6852010
   4.1795750  37.9766670  91.0587920   5.4567850  38.7841200  91.1517160
   5.9745170  39.1736980 101.0427360   6.3415300  38.6995550 101.7888700
   5.7850230  40.0478550 101.3835700   2.2926330  42.4206610  93.9578420
   1.5188590  41.8804230  93.7977140   3.0220960  41.9013220  93.6196180
  13.0514310  41.4171970  99.7504810  13.7713430  41.9127260  99.3600920
  12.8496130  40.7389860  99.1058680   8.5124250  32.8109930  93.8934200
   7.6988860  32.3123100  93.8179510   8.3186200  33.6508180  93.4770550
  11.2272640  37.1829580  92.1896360  12.1152260  37.4946810  92.0147700
  11.1977730  36.3101830  91.7976940   2.3363730  42.0886990  97.5957230
   2.8542400  41.2855250  97.5414120   1.8847750  42.0266130  98.4374060
   7.2233230  43.3553270  92.8684530   7.5648930  44.0995500  92.3727850
   6.3945940  43.6684390  93.2309360  13.4986910  38.4941420  91.6576220
  13.4150630  38.9255640  90.8072660  14.2181100  38.9539770  92.0903040
  14.5274160  45.3483680  94.3858350  13.8850320  44.6939300  94.6602070
  14.1404820  45.7538770  93.6099020  10.1060640  42.6769110  98.2330040
  10.4584460  42.0797240  97.5731410   9.2222970  42.3513340  98.4038290
   6.1923920  43.4366800  95.6400450   6.8795050  43.9836010  96.0208040
   5.4056340  43.9807530  95.6750060   5.4951130  40.4412830  95.2525810
   5.9513910  41.2518080  95.4786000   5.1439340  40.1235970  96.0844300
   9.0715820  43.9551520 101.1995560   9.7138050  43.2544680 101.3127730
   9.5965170  44.7349960 101.0192450  12.9171540  44.2400140  90.9234700
  12.6909120  43.5230580  91.5159340  12.5267740  43.9912580  90.0856450
  12.4987790  42.1572080  92.5848860  12.2109490  42.6184770  93.3726740
  13.2939960  41.6969850  92.8533080   4.7156190  45.6498200  92.5152830
   4.7066290  46.3827890  91.8997340   3.7954550  45.4029780  92.6079790
  13.2557650  33.9920850  93.7444040  12.6270810  34.0966520  93.0302270
  12.7609570  34.2117630  94.5337920   7.7015790  45.7126440  91.1778020
   7.8027770  45.5090430  90.2480000   6.8017530  45.4584720  91.3825800
   5.2241680  36.2706800  95.1601920   4.5157830  36.7393140  95.6015530
   5.5086160  35.6128810  95.7947110   9.2557110  32.9957460  96.5997710
   9.1324890  33.0143590  95.6507220  10.2041670  33.0436400  96.7196110
   6.3433900  48.2312760  95.8725690   6.5975400  48.1934150  94.9505060
   5.3946380  48.1046090  95.8653940   3.4276700  34.5791880  92.5352630
   4.2767230  35.0162030  92.4692820   3.0607970  34.8912140  93.3624690
  12.3486480  39.1504640  97.4484200  11.4076620  39.1654870  97.6231890
  12.6630550  38.3640600  97.8944500   2.3268120  40.8324240  91.0088160
   3.0931390  40.7205600  91.5713590   2.4042810  40.1362210  90.3564930
  14.3512060  46.3213490  99.1238460  14.4759480  47.1444660  99.5962270
  15.2177620  46.1104220  98.7762610   1.8229590  48.4144700  98.7955590
   2.5592070  47.8660160  99.0664160   2.2070510  49.2800710  98.6561580
   4.9331900  47.5875010  90.6181160   5.7260510  47.8763840  90.1662950
   4.4136250  47.1567180  89.9393640  13.9862070  46.8145140  92.0417900
  13.7003580  46.4010280  91.2272080  13.7881620  47.7432850  91.9218420
   5.4509300  42.8078420  90.4823510   5.3459940  42.1930770  91.2084890
   5.2833520  42.2844310  89.6986520   8.6912030  41.8698450  91.0865500
   8.1422130  42.3167750  91.7308240   9.3131290  41.3647700  91.6103170
   4.3587150  40.8289370  92.9830800   4.7803570  40.6629240  93.8262190
   4.4837990  40.0189600  92.4885940   6.8714790  39.8526980  90.2307900
   7.3920450  39.1376000  89.8649050   7.5183190  40.4912850  90.5308410
   3.2546050  36.9022600  89.9288960   3.0535110  36.0389960  90.2902300
   3.0838100  36.8155960  88.9910560  10.7334360  31.7130830  92.4575840
  11.0136650  30.8698730  92.8135260   9.9600090  31.9453940  92.9714590
   2.0528850  34.0023220  89.9166840   2.3554750  34.0090650  89.0085990
   2.7923440  33.6521080  90.4134500   5.2713780  32.9457840  90.9023040
   4.9235780  32.2681830  90.3225490   5.4726550  32.4847350  91.7166430
   7.4362820  47.9338590  92.5209640   8.3313610  48.2723560  92.5428400
   7.4680450  47.2118000  91.8933920   2.8866700  44.4263680  95.8618870
   2.5862240  44.3028650  96.7622780   2.7804190  43.5672270  95.4534600
  15.6558620  44.2060080  90.5645550  14.8251580  44.2736730  91.0352780
  15.8330450  45.0964200  90.2612410  15.1115080  40.9507560  93.0679750
  15.8733990  41.5204210  93.1739440  15.1269450  40.3834760  93.8388060
  16.1175050  41.8057660  97.9121680  16.4883880  41.0224980  97.5057650
  16.7576980  42.4946760  97.7338980  15.1634250  41.2441930  90.2252270
  15.4383090  42.1520810  90.0971490  14.9744990  41.1804460  91.1614260
  11.5609860  34.2686780  91.5205900  11.9794740  34.0817760  90.6802560
  11.2545920  33.4165830  91.8308830  15.0599590  39.1810920  95.2181700
  14.6843190  38.4138850  94.7862990  14.3302710  39.5633620  95.7056630
  14.3350550  37.4068410  98.5188940  14.8588030  36.9131060  97.8879110
  14.9209970  37.5418770  99.2636510  14.5140270  37.4908280 102.0408490
  13.5642980  37.4571820 102.1553480  14.6953280  38.4008390 101.8058260
  13.8250520  36.6641760  94.4581350  14.3209640  36.4312630  95.2430230
  13.6266590  35.8253600  94.0418990  15.2537680  35.3002710  96.9919030
  15.1436960  35.1458750  97.9301300  16.0145270  34.7723650  96.7494440
  16.1427950  33.1310630  90.2325170  17.0677260  32.9991810  90.0243460
  16.1203740  33.2103450  91.1861620  16.2166440  33.9021290  92.8581880
  15.4217940  33.8366410  93.3874790  16.4209720  34.8371930  92.8467230
  13.1584860  47.9412840  96.8520270  13.7543930  47.6197410  96.1754690
  13.4163010  47.4684660  97.6433540   4.7653460  45.9290340 102.6020620
   4.5244820  46.1964900 101.7151140   5.7056100  46.0996070 102.6571480
  13.7097070  48.5908140 100.6818000  13.2500040  49.3423950 100.3076020
  13.0809530  47.8714610 100.6232800   4.1392790  46.8996380  99.8566130
   4.6557810  46.2883740  99.3314390   4.7890170  47.4025160 100.3477140
   6.8788290  47.7904870 100.6835110   7.1666100  47.5359170  99.8068120
   7.3911510  47.2382230 101.2740680   8.0965300  31.5295070 101.2631620
   7.3137090  32.0040570 101.5428380   7.8028230  30.6249900 101.1544800
  12.6486370  32.2318170  99.3080710  13.0894460  32.1763270  98.4602310
  12.3793960  33.1476180  99.3790890  14.5124940  31.8633410  97.3189530
  14.4513340  30.9194630  97.1720550  15.2916970  31.9713500  97.8642990
   5.9819520  33.9481820  96.7747650   5.1694030  33.5738710  96.4343530
   6.4861160  33.1926900  97.0768840  10.4844500  30.6124270  98.0130720
  11.0873870  31.1844480  98.4879240   9.7437490  31.1763710  97.7904620
  13.6279100  31.0145830  93.2871000  13.8229730  31.9129280  93.5538430
  12.8408970  30.7832910  93.7803950   1.8130860  32.3606600  92.3247310
   2.3423620  31.5736400  92.1955260   2.4459180  33.0397790  92.5582840
   4.0068700  32.0981740  95.3792700   3.3771440  31.3969050  95.5462830
   3.4673840  32.8585870  95.1625860  15.1805710  48.2546540  95.0477560
  15.3557900  47.5684280  94.4038480  14.4827280  48.7793590  94.6554230
   3.0233360  48.6441380  92.6012870   3.7552180  48.3600660  92.0536760
   3.2827030  48.4054660  93.4912250   2.1848150  44.7606110  92.6059200
   1.5557030  45.2291210  93.1545030   2.2995980  43.9155330  93.0405390
   9.6397870  38.8111770  78.7560400   9.5591920  37.8966380  78.4852110
   9.2262290  39.3078840  78.0500110   7.7715910  40.5890790  80.6369670
   6.9958010  40.1091230  80.9268240   8.4228840  39.9096440  80.4625830
  11.7923340  44.9950980  79.4168800  11.3304870  44.2238220  79.7455970
  12.6048890  45.0217050  79.9221250   1.7683000  44.9350690  81.7103450
   2.0711040  44.0448430  81.5313670   2.5126590  45.4920910  81.4825700
   8.0186650  47.2808990  79.0372790   7.3998090  47.7366490  78.4667230
   8.8738430  47.4360450  78.6362490   7.2124900  43.2647980  80.6439830
   7.1433180  42.3237920  80.4828960   7.9744760  43.3549390  81.2162400
   8.2430070  36.0718360  80.8708760   8.6194890  35.1990240  80.7582430
   8.1449580  36.4077060  79.9799200   2.3735080  34.4443990  76.3326200
   2.4801830  35.3447720  76.6394960   1.4627440  34.3961960  76.0420850
  12.0254190  33.5668800  77.8037100  12.8463810  33.0765370  77.8462580
  12.0588270  34.1566460  78.5568940   4.2142810  37.4130360  80.6651380
   4.7221030  37.9111330  81.3056400   4.7456050  36.6365560  80.4890740
  16.3153740  35.5835550  84.3680730  15.6105910  35.9717260  83.8495840
  16.5811660  36.2785840  84.9701660   2.4978910  32.0528920  84.9314800
   2.4997350  32.5701310  84.1260700   1.6683220  31.5759100  84.9084730
   8.8850000  42.1648230  76.4304700   8.2667270  42.6297680  75.8667420
   9.3973250  42.8575710  76.8474210   3.7481760  41.6924100  83.1088300
   3.4151140  42.3193020  83.7509370   3.9248440  42.2185980  82.3289970
  12.2615670  35.5069180  80.5764640  11.5571240  35.7954070  81.1567750
  12.6227830  36.3169290  80.2164200   2.1794240  33.7638880  82.9385250
   2.5211050  34.6080930  82.6439120   1.2410050  33.9122620  83.0550590
   2.9600860  43.6604900  84.9237480   3.5774860  44.3355980  84.6421930
   2.0993980  44.0692880  84.8324980  13.8778450  45.1244310  82.8392120
  13.1941970  45.7943420  82.8308790  14.4172740  45.3224960  82.0736980
  15.3302590  34.9523970  80.9673850  14.3827500  34.9862950  81.0989280
  15.6552580  35.7662920  81.3523210   5.8622130  31.2521150  79.2629840
   6.1697110  30.6968040  78.5465340   4.9322830  31.3865610  79.0802830
  11.4137190  46.9688440  81.5537300  11.4264350  46.5650730  80.6859560
  10.8612410  47.7435730  81.4498730  12.7082610  43.6904660  76.6427470
  12.5978940  42.7478990  76.7676890  12.7050860  44.0520300  77.5290230
  10.8122630  41.8718280  82.8819910  11.2291420  41.6578390  82.0473370
  11.5362450  42.1291070  83.4528530   8.2502890  39.3169980  75.9989960
   7.3232170  39.2507360  76.2278430   8.4027710  40.2550110  75.8845200
   8.2371970  35.5886980  72.9957120   7.2975640  35.7500940  73.0809580
   8.5555230  36.3072660  72.4493110  14.7584730  40.2705500  82.9736150
  13.9303360  40.3398590  82.4986280  15.3535210  40.8559810  82.5051980
  12.2800180  40.8790280  76.5025210  11.6612600  40.5409830  75.8551510
  12.2624630  40.2350040  77.2104400  11.7226740  37.0574820  83.9191020
  11.3097920  37.8828530  84.1731010  10.9902690  36.4719860  83.7267380
   3.8559530  39.8434720  78.7809690   3.4516530  39.1311970  78.2855590
   3.9422650  39.4987960  79.6697730   4.3241230  43.5302280  80.9448900
   4.0269520  42.9247750  80.2656680   5.2741050  43.5679590  80.8338260
   2.5688150  36.6177930  82.5608730   3.1202740  36.7273270  81.7861980
   3.0831660  36.9915530  83.2763960  12.4126840  47.1034150  84.6072000
  11.9357400  47.9106340  84.4144610  11.7288630  46.4512480  84.7598210
   3.4159660  43.2683970  87.5956700   2.5188190  43.4923940  87.8430100
   3.4412530  43.3918910  86.6468100  10.4564880  40.1177090  73.5097960
  10.8958160  39.2799520  73.3635780  11.1693300  40.7506490  73.5962100
   2.2430880  40.1397290  86.1714070   2.1038650  41.0120090  86.5401470
   1.3612240  39.7970100  86.0262010   8.5660260  45.0573160  77.4779200
   9.0056170  45.7997490  77.0634590   8.5047150  45.2999730  78.4018160
   4.0411230  46.0818990  88.3799220   4.0126660  46.4861940  87.5127650
   3.8776200  45.1529350  88.2170820  14.0382020  31.3719900  71.8239000
  13.7254680  31.4646730  72.7238070  14.7994490  31.9500930  71.7736430
  15.9926050  46.8646090  89.6763390  16.4685770  47.3428980  90.3552470
  16.6133210  46.7963580  88.9508890  15.3959300  44.0558940  86.8363400
  15.5222360  43.8170820  85.9180580  15.4380680  43.2243480  87.3085480
   9.2576040  47.7586940  85.4058210   9.7720710  47.6694950  86.2080640
   8.4145120  48.1046640  85.6986120  11.2330440  48.0442280  74.8342210
  11.0731580  47.7545220  75.7324040  11.0677150  47.2682410  74.2987440
   3.7118820  47.8240810  76.6113830   3.5361300  46.9076350  76.3981630
   2.8574560  48.1828100  76.8511630  10.9356570  45.5529840  73.3940210
  10.2421730  45.5507130  72.7342490  11.6779430  45.1289160  72.9634380
  10.5006500  47.1792550  77.4688700  10.9563450  46.3981930  77.7827320
  10.8399020  47.8899370  78.0129880  15.2483310  36.1091400  87.8013140
  14.6327580  36.6171070  87.2728600  14.9279730  35.2089730  87.7439080
   3.0227820  32.0814770  79.6640010   2.5795970  32.8624310  79.3324530
   3.5812810  32.4044660  80.3710950   7.3097630  34.9483290  85.2675330
   6.8477000  35.1566310  86.0795270   6.9075740  34.1342640  84.9646000
  12.3102140  36.1692240  86.3971990  11.4595730  35.8697990  86.7181060
  12.1503930  36.4134250  85.4855810   9.4051850  37.6693990  88.4970780
   9.7305260  36.8357740  88.1573010  10.1932180  38.1922510  88.6449110
   6.1386640  31.7025470  74.5445840   5.5140820  31.6985340  75.2699150
   6.0516760  30.8356430  74.1481810   5.0603720  32.6262100  81.5229610
   5.3576050  33.5324930  81.4421630   5.6089280  32.1380880  80.9089180
   2.8142040  37.2048340  77.3921260   2.5882960  36.9885510  78.2967880
   2.0334570  37.6376800  77.0467230  10.0439800  37.2111710  75.9911910
   9.4448690  37.9347510  75.8075530  10.5919410  37.1488490  75.2088360
   5.2541250  38.1033920  88.0581530   5.1584850  37.1628650  87.9081930
   6.0973230  38.3248990  87.6629600   8.6504670  35.8475250  78.0215190
   9.0434240  36.1647450  77.2083880   9.0121520  34.9687130  78.1359710
   6.9596840  34.5982560  89.2812050   6.2695160  34.4054760  89.9158140
   7.7029140  34.8817200  89.8136350   9.2359810  38.4381000  82.1165970
   8.5040930  38.9467810  82.4656070   8.8384150  37.6210980  81.8154750
   5.6737200  35.1135200  80.5218460   5.6773260  34.6725150  79.6723000
   6.5688320  35.4352530  80.6290280   5.7357350  36.1147280  73.5125220
   5.8570170  36.0733760  74.4611040   5.3505860  36.9771430  73.3571950
   9.6985720  33.8914680  81.5288910   9.7158460  34.3423330  82.3730760
   9.4501300  32.9920320  81.7422350   4.7478850  38.4248420  72.9108520
   4.1795750  37.9766670  72.2844430   5.4567850  38.7841200  72.3773670
  13.1256470  31.3046860  87.3675290  13.4502240  30.5736520  87.8933270
  13.1612980  30.9860500  86.4656280   5.9745170  39.1736980  82.2683870
   6.3415300  38.6995550  83.0145210   5.7850230  40.0478550  82.6092210
   3.7644540  38.2145620  84.5868080   3.4601610  39.0937600  84.8118440
   4.7191000  38.2745410  84.6225520   2.2926330  42.4206610  75.1834930
   1.5188590  41.8804230  75.0233650   3.0220960  41.9013220  74.8452690
  13.0514310  41.4171970  80.9761320  13.7713430  41.9127260  80.5857430
  12.8496130  40.7389860  80.3315190   8.5124250  32.8109930  75.1190710
   7.6988860  32.3123100  75.0436020   8.3186200  33.6508180  74.7027060
   8.4333110  41.4881030  86.8630320   8.3670420  40.5676700  86.6087910
   7.8038250  41.5856470  87.5774960  11.2272640  37.1829580  73.4152870
  12.1152260  37.4946810  73.2404210  11.1977730  36.3101830  73.0233450
   2.3363730  42.0886990  78.8213740   2.8542400  41.2855250  78.7670630
   1.8847750  42.0266130  79.6630570   7.2233230  43.3553270  74.0941040
   7.5648930  44.0995500  73.5984360   6.3945940  43.6684390  74.4565870
   3.0221390  39.5132600  88.6178990   2.7221530  39.6589780  87.7206810
   3.7932630  38.9537890  88.5252380   8.3649840  44.3101600  86.6134120
   8.3794380  43.3782560  86.3953030   7.6574940  44.3961360  87.2523890
  13.4986910  38.4941420  72.8832730  13.4150630  38.9255640  72.0329170
  14.2181100  38.9539770  73.3159550  14.5761050  40.9508940  85.9602700
  13.8509240  41.5437720  85.7632090  15.1036510  40.9432480  85.1616070
  14.5274160  45.3483680  75.6114860  13.8850320  44.6939300  75.8858580
  14.1404820  45.7538770  74.8355530  10.1060640  42.6769110  79.4586550
  10.4584460  42.0797240  78.7987920   9.2222970  42.3513340  79.6294800
   6.1923920  43.4366800  76.8656960   6.8795050  43.9836010  77.2464550
   5.4056340  43.9807530  76.9006570   5.4951130  40.4412830  76.4782320
   5.9513910  41.2518080  76.7042510   5.1439340  40.1235970  77.3100810
   7.7983740  45.9519170  83.7074620   8.4425960  46.1578550  84.3848040
   8.1613180  45.1907570  83.2545470   9.0715820  43.9551520  82.4252070
   9.7138050  43.2544680  82.5384240   9.5965170  44.7349960  82.2448960
  12.9171540  44.2400140  72.1491210  12.6909120  43.5230580  72.7415850
  12.5267740  43.9912580  71.3112960  10.8453440  44.7546420  85.6288130
  11.1809680  45.3413110  86.3066050   9.9253780  44.6239130  85.8585920
  12.4987790  42.1572080  73.8105370  12.2109490  42.6184770  74.5983250
  13.2939960  41.6969850  74.0789590   6.6742020  44.8037750  88.7976190
   6.3538890  44.0846990  89.3421880   6.0000380  45.4792820  88.8712250
   4.7156190  45.6498200  73.7409340   4.7066290  46.3827890  73.1253850
   3.7954550  45.4029780  73.8336300   9.8895620  35.0363910  84.1612990
  10.2576440  34.2159120  84.4892560   9.0293820  35.0965800  84.5768640
  13.2557650  33.9920850  74.9700550  12.6270810  34.0966520  74.2558780
  12.7609570  34.2117630  75.7594430   7.7015790  45.7126440  72.4034530
   7.8027770  45.5090430  71.4736510   6.8017530  45.4584720  72.6082310
   5.2241680  36.2706800  76.3858430   4.5157830  36.7393140  76.8272040
   5.5086160  35.6128810  77.0203620   6.8497610  37.6903500  84.3850960
   7.3482860  38.1649320  85.0502810   6.9920560  36.7667020  84.5920990
   9.2557110  32.9957460  77.8254220   9.1324890  33.0143590  76.8763730
  10.2041670  33.0436400  77.9452620   6.3433900  48.2312760  77.0982200
   6.5975400  48.1934150  76.1761570   5.3946380  48.1046090  77.0910450
   3.4276700  34.5791880  73.7609140   4.2767230  35.0162030  73.6949330
   3.0607970  34.8912140  74.5881200  14.0564470  33.9071460  85.2279350
  13.5538070  34.6476860  85.5673160  14.8721130  34.2955460  84.9116140
  12.3486480  39.1504640  78.6740710  11.4076620  39.1654870  78.8488400
  12.6630550  38.3640600  79.1201010   2.3268120  40.8324240  72.2344670
   3.0931390  40.7205600  72.7970100   2.4042810  40.1362210  71.5821440
  14.3512060  46.3213490  80.3494970  14.4759480  47.1444660  80.8218780
  15.2177620  46.1104220  80.0019120   1.8229590  48.4144700  80.0212100
   2.5592070  47.8660160  80.2920670   2.2070510  49.2800710  79.8818090
   4.9331900  47.5875010  71.8437670   5.7260510  47.8763840  71.3919460
   4.4136250  47.1567180  71.1650150   9.6652500  43.7070640  89.1573090
   9.0590660  43.7302240  88.4168840   9.3606610  42.9753680  89.6940340
  11.0952870  47.4350930  87.7682500  12.0474620  47.3508950  87.7182740
  10.9481090  48.0992640  88.4416290  13.9862070  46.8145140  73.2674410
  13.7003580  46.4010280  72.4528590  13.7881620  47.7432850  73.1474930
   5.4509300  42.8078420  71.7080020   5.3459940  42.1930770  72.4341400
   5.2833520  42.2844310  70.9243030   5.6023620  41.4935220  87.6869250
   4.8369290  42.0620220  87.6023920   5.7839580  41.2011430  86.7937480
   8.6912030  41.8698450  72.3122010   8.1422130  42.3167750  72.9564750
   9.3131290  41.3647700  72.8359680  12.7446970  43.2240550  88.2444270
  13.4856440  43.5616310  87.7411730  11.9819650  43.3932610  87.6914040
   4.3587150  40.8289370  74.2087310   4.7803570  40.6629240  75.0518700
   4.4837990  40.0189600  73.7142450   2.5214570  36.8085920  87.0158290
   1.9911030  36.3176870  86.3881630   3.1902640  37.2370120  86.4816220
   6.8714790  39.8526980  71.4564410   7.3920450  39.1376000  71.0905560
   7.5183190  40.4912850  71.7564920  11.4192630  41.2755380  86.7799480
  11.8333650  41.4300460  87.6289900  10.4843630  41.4010600  86.9425260
  11.8914800  38.6151540  88.7838630  12.4735570  37.8603860  88.6959110
  12.0676570  39.1458980  88.0070110   3.0086870  33.7748290  87.0955580
   2.9143740  33.1569040  86.3706450   2.4284260  34.5014580  86.8685490
   5.7748310  32.3321530  84.1282970   5.3265610  32.3545790  83.2828520
   5.1413510  31.9340550  84.7253270   6.1807860  41.2275860  84.7495410
   6.5995970  42.0708590  84.5771650   5.2616490  41.3647900  84.5202190
   8.5171760  38.9592040  86.1333250   8.6367970  38.3633180  86.8728090
   9.3765760  38.9961730  85.7134550  10.8559660  39.5129230  84.7095760
  10.3294880  40.0371850  84.1060900  11.1991000  40.1456620  85.3405490
   3.2546050  36.9022600  71.1545470   3.0535110  36.0389960  71.5158810
   3.0838100  36.8155960  70.2167070   4.0315280  47.5328870  85.8653140
   3.4936370  48.2574930  85.5461840   4.2849240  47.0559210  85.0750480
   5.2840530  35.5013390  87.3909070   5.8740220  35.1929240  88.0786890
   4.4660770  35.0293140  87.5468970  10.1033960  35.1179200  87.6242090
   9.4149480  34.4560740  87.5592080  10.8239980  34.6717470  88.0690550
  10.7334360  31.7130830  73.6832350  11.0136650  30.8698730  74.0391770
   9.9600090  31.9453940  74.1971100   2.0528850  34.0023220  71.1423350
   2.3554750  34.0090650  70.2342500   2.7923440  33.6521080  71.6391010
   6.8877490  48.7680080  86.1239790   6.8136190  49.6715220  86.4312160
   5.9856330  48.4491980  86.0961860   5.2713780  32.9457840  72.1279550
   4.9235780  32.2681830  71.5482000   5.4726550  32.4847350  72.9422940
   7.4362820  47.9338590  73.7466150   8.3313610  48.2723560  73.7684910
   7.4680450  47.2118000  73.1190430   2.8866700  44.4263680  77.0875380
   2.5862240  44.3028650  77.9879290   2.7804190  43.5672270  76.6791110
  14.4157170  46.4642260  86.4532350  13.8159160  46.5234820  85.7096270
  14.5451070  45.5247240  86.5829200  15.6558620  44.2060080  71.7902060
  14.8251580  44.2736730  72.2609290  15.8330450  45.0964200  71.4868920
  15.1115080  40.9507560  74.2936260  15.8733990  41.5204210  74.3995950
  15.1269450  40.3834760  75.0644570  16.1175050  41.8057660  79.1378190
  16.4883880  41.0224980  78.7314160  16.7576980  42.4946760  78.9595490
  13.1008810  43.1894240  84.5508510  12.2868650  43.6191400  84.8134300
  13.5083010  43.8012650  83.9377560  15.1634250  41.2441930  71.4508780
  15.4383090  42.1520810  71.3228000  14.9744990  41.1804460  72.3870770
  11.5609860  34.2686780  72.7462410  11.9794740  34.0817760  71.9059070
  11.2545920  33.4165830  73.0565340  15.0599590  39.1810920  76.4438210
  14.6843190  38.4138850  76.0119500  14.3302710  39.5633620  76.9313140
  14.4499210  38.3282440  86.0777730  14.2185300  38.0995190  85.1775680
  14.7103760  39.2481990  86.0322620  12.8887280  33.5538870  88.8557430
  13.7657460  33.5622270  89.2391430  12.9008120  32.8169710  88.2449780
  14.3350550  37.4068410  79.7445450  14.8588030  36.9131060  79.1135620
  14.9209970  37.5418770  80.4893020  14.5140270  37.4908280  83.2665000
  13.5642980  37.4571820  83.3809990  14.6953280  38.4008390  83.0314770
  13.8250520  36.6641760  75.6837860  14.3209640  36.4312630  76.4686740
  13.6266590  35.8253600  75.2675500  15.2537680  35.3002710  78.2175540
  15.1436960  35.1458750  79.1557810  16.0145270  34.7723650  77.9750950
  13.6003400  31.2396840  84.6758540  14.2375620  31.8530980  85.0417730
  13.7478290  31.2757500  83.7307770  16.1427950  33.1310630  71.4581680
  17.0677260  32.9991810  71.2499970  16.1203740  33.2103450  72.4118130
  16.2166440  33.9021290  74.0838390  15.4217940  33.8366410  74.6131300
  16.4209720  34.8371930  74.0723740  13.1584860  47.9412840  78.0776780
  13.7543930  47.6197410  77.4011200  13.4163010  47.4684660  78.8690050
   4.7653460  45.9290340  83.8277130   4.5244820  46.1964900  82.9407650
   5.7056100  46.0996070  83.8827990   6.9707880  32.3923030  87.5833640
   6.9096770  32.9844860  88.3329050   7.9108260  32.2848990  87.4383900
   9.6082440  32.0493090  87.2225930  10.2222850  32.3672380  86.5607010
  10.1532000  31.5641680  87.8421790  16.0257620  47.9484720  84.6287770
  15.5315900  48.3453590  83.9114900  15.4170910  47.3233930  85.0225050
  10.3490480  30.6125230  83.5495220   9.4750320  30.9460340  83.3468150
  10.2401230  30.1398410  84.3747090  11.2562460  32.8196100  84.9336940
  10.9275820  32.0047860  84.5538670  12.2044760  32.7765910  84.8102630
  13.7097070  48.5908140  81.9074510  13.2500040  49.3423950  81.5332530
  13.0809530  47.8714610  81.8489310   4.1392790  46.8996380  81.0822640
   4.6557810  46.2883740  80.5570900   4.7890170  47.4025160  81.5733650
   6.8788290  47.7904870  81.9091620   7.1666100  47.5359170  81.0324630
   7.3911510  47.2382230  82.4997190   8.0965300  31.5295070  82.4888130
   7.3137090  32.0040570  82.7684890   7.8028230  30.6249900  82.3801310
  12.6486370  32.2318170  80.5337220  13.0894460  32.1763270  79.6858820
  12.3793960  33.1476180  80.6047400  14.5124940  31.8633410  78.5446040
  14.4513340  30.9194630  78.3977060  15.2916970  31.9713500  79.0899500
   5.9819520  33.9481820  78.0004160   5.1694030  33.5738710  77.6600040
   6.4861160  33.1926900  78.3025350  10.4844500  30.6124270  79.2387230
  11.0873870  31.1844480  79.7135750   9.7437490  31.1763710  79.0161130
  13.6279100  31.0145830  74.5127510  13.8229730  31.9129280  74.7794940
  12.8408970  30.7832910  75.0060460   1.8130860  32.3606600  73.5503820
   2.3423620  31.5736400  73.4211770   2.4459180  33.0397790  73.7839350
   4.0068700  32.0981740  76.6049210   3.3771440  31.3969050  76.7719340
   3.4673840  32.8585870  76.3882370   6.9460650  48.7120970  89.2759820
   7.8727960  48.4765240  89.3195780   6.9311080  49.5392970  88.7945850
  15.1805710  48.2546540  76.2734070  15.3557900  47.5684280  75.6294990
  14.4827280  48.7793590  75.8810740   4.1324260  31.3765720  89.0401700
   3.8508530  31.8799320  88.2762520   4.5143960  30.5787470  88.6743830
   3.0233360  48.6441380  73.8269380   3.7552180  48.3600660  73.2793270
   3.2827030  48.4054660  74.7168760   2.1848150  44.7606110  73.8315710
   1.5557030  45.2291210  74.3801540   2.2995980  43.9155330  74.2661900
  10.7339720  30.7919300  89.6182170  10.6205170  31.1113910  90.5133690
  11.5509460  31.1931810  89.3219450  13.5138210  47.9390830  89.1000860
  14.3063530  47.4440060  88.8926820  13.8071360  48.6180970  89.7076470
   9.6397870  38.8111770  59.9816910   9.5591920  37.8966380  59.7108620
   9.2262290  39.3078840  59.2756620   7.7715910  40.5890790  61.8626180
   6.9958010  40.1091230  62.1524750   8.4228840  39.9096440  61.6882340
  11.7923340  44.9950980  60.6425310  11.3304870  44.2238220  60.9712480
  12.6048890  45.0217050  61.1477760   1.7683000  44.9350690  62.9359960
   2.0711040  44.0448430  62.7570180   2.5126590  45.4920910  62.7082210
   8.0186650  47.2808990  60.2629300   7.3998090  47.7366490  59.6923740
   8.8738430  47.4360450  59.8619000   7.2124900  43.2647980  61.8696340
   7.1433180  42.3237920  61.7085470   7.9744760  43.3549390  62.4418910
   8.2430070  36.0718360  62.0965270   8.6194890  35.1990240  61.9838940
   8.1449580  36.4077060  61.2055710   2.3735080  34.4443990  57.5582710
   2.4801830  35.3447720  57.8651470   1.4627440  34.3961960  57.2677360
  12.0254190  33.5668800  59.0293610  12.8463810  33.0765370  59.0719090
  12.0588270  34.1566460  59.7825450   4.2142810  37.4130360  61.8907890
   4.7221030  37.9111330  62.5312910   4.7456050  36.6365560  61.7147250
  16.3153740  35.5835550  65.5937240  15.6105910  35.9717260  65.0752350
  16.5811660  36.2785840  66.1958170   2.4978910  32.0528920  66.1571310
   2.4997350  32.5701310  65.3517210   1.6683220  31.5759100  66.1341240
   8.8850000  42.1648230  57.6561210   8.2667270  42.6297680  57.0923930
   9.3973250  42.8575710  58.0730720   3.7481760  41.6924100  64.3344810
   3.4151140  42.3193020  64.9765880   3.9248440  42.2185980  63.5546480
  12.2615670  35.5069180  61.8021150  11.5571240  35.7954070  62.3824260
  12.6227830  36.3169290  61.4420710   2.1794240  33.7638880  64.1641760
   2.5211050  34.6080930  63.8695630   1.2410050  33.9122620  64.2807100
   2.9600860  43.6604900  66.1493990   3.5774860  44.3355980  65.8678440
   2.0993980  44.0692880  66.0581490  13.8778450  45.1244310  64.0648630
  13.1941970  45.7943420  64.0565300  14.4172740  45.3224960  63.2993490
  15.3302590  34.9523970  62.1930360  14.3827500  34.9862950  62.3245790
  15.6552580  35.7662920  62.5779720   5.8622130  31.2521150  60.4886350
   6.1697110  30.6968040  59.7721850   4.9322830  31.3865610  60.3059340
  11.4137190  46.9688440  62.7793810  11.4264350  46.5650730  61.9116070
  10.8612410  47.7435730  62.6755240  12.7082610  43.6904660  57.8683980
  12.5978940  42.7478990  57.9933400  12.7050860  44.0520300  58.7546740
  10.8122630  41.8718280  64.1076420  11.2291420  41.6578390  63.2729880
  11.5362450  42.1291070  64.6785040   8.2502890  39.3169980  57.2246470
   7.3232170  39.2507360  57.4534940   8.4027710  40.2550110  57.1101710
   8.2371970  35.5886980  54.2213630   7.2975640  35.7500940  54.3066090
   8.5555230  36.3072660  53.6749620  14.7584730  40.2705500  64.1992660
  13.9303360  40.3398590  63.7242790  15.3535210  40.8559810  63.7308490
  12.2800180  40.8790280  57.7281720  11.6612600  40.5409830  57.0808020
  12.2624630  40.2350040  58.4360910  11.7226740  37.0574820  65.1447530
  11.3097920  37.8828530  65.3987520  10.9902690  36.4719860  64.9523890
   3.8559530  39.8434720  60.0066200   3.4516530  39.1311970  59.5112100
   3.9422650  39.4987960  60.8954240   4.3241230  43.5302280  62.1705410
   4.0269520  42.9247750  61.4913190   5.2741050  43.5679590  62.0594770
   2.5688150  36.6177930  63.7865240   3.1202740  36.7273270  63.0118490
   3.0831660  36.9915530  64.5020470  12.4126840  47.1034150  65.8328510
  11.9357400  47.9106340  65.6401120  11.7288630  46.4512480  65.9854720
   3.4159660  43.2683970  68.8213210   2.5188190  43.4923940  69.0686610
   3.4412530  43.3918910  67.8724610  10.4564880  40.1177090  54.7354470
  10.8958160  39.2799520  54.5892290  11.1693300  40.7506490  54.8218610
   2.2430880  40.1397290  67.3970580   2.1038650  41.0120090  67.7657980
   1.3612240  39.7970100  67.2518520   8.5660260  45.0573160  58.7035710
   9.0056170  45.7997490  58.2891100   8.5047150  45.2999730  59.6274670
   4.0411230  46.0818990  69.6055730   4.0126660  46.4861940  68.7384160
   3.8776200  45.1529350  69.4427330  14.0382020  31.3719900  53.0495510
  13.7254680  31.4646730  53.9494580  14.7994490  31.9500930  52.9992940
  15.9926050  46.8646090  70.9019900  16.4685770  47.3428980  71.5808980
  16.6133210  46.7963580  70.1765400  15.3959300  44.0558940  68.0619910
  15.5222360  43.8170820  67.1437090  15.4380680  43.2243480  68.5341990
   9.2576040  47.7586940  66.6314720   9.7720710  47.6694950  67.4337150
   8.4145120  48.1046640  66.9242630  11.2330440  48.0442280  56.0598720
  11.0731580  47.7545220  56.9580550  11.0677150  47.2682410  55.5243950
   3.7118820  47.8240810  57.8370340   3.5361300  46.9076350  57.6238140
   2.8574560  48.1828100  58.0768140  10.9356570  45.5529840  54.6196720
  10.2421730  45.5507130  53.9599000  11.6779430  45.1289160  54.1890890
  10.5006500  47.1792550  58.6945210  10.9563450  46.3981930  59.0083830
  10.8399020  47.8899370  59.2386390  15.2483310  36.1091400  69.0269650
  14.6327580  36.6171070  68.4985110  14.9279730  35.2089730  68.9695590
   3.0227820  32.0814770  60.8896520   2.5795970  32.8624310  60.5581040
   3.5812810  32.4044660  61.5967460   7.3097630  34.9483290  66.4931840
   6.8477000  35.1566310  67.3051780   6.9075740  34.1342640  66.1902510
  12.3102140  36.1692240  67.6228500  11.4595730  35.8697990  67.9437570
  12.1503930  36.4134250  66.7112320   9.4051850  37.6693990  69.7227290
   9.7305260  36.8357740  69.3829520  10.1932180  38.1922510  69.8705620
   6.1386640  31.7025470  55.7702350   5.5140820  31.6985340  56.4955660
   6.0516760  30.8356430  55.3738320   5.0603720  32.6262100  62.7486120
   5.3576050  33.5324930  62.6678140   5.6089280  32.1380880  62.1345690
   2.8142040  37.2048340  58.6177770   2.5882960  36.9885510  59.5224390
   2.0334570  37.6376800  58.2723740  10.0439800  37.2111710  57.2168420
   9.4448690  37.9347510  57.0332040  10.5919410  37.1488490  56.4344870
   5.2541250  38.1033920  69.2838040   5.1584850  37.1628650  69.1338440
   6.0973230  38.3248990  68.8886110   8.6504670  35.8475250  59.2471700
   9.0434240  36.1647450  58.4340390   9.0121520  34.9687130  59.3616220
   6.9596840  34.5982560  70.5068560   6.2695160  34.4054760  71.1414650
   7.7029140  34.8817200  71.0392860   9.2359810  38.4381000  63.3422480
   8.5040930  38.9467810  63.6912580   8.8384150  37.6210980  63.0411260
   5.6737200  35.1135200  61.7474970   5.6773260  34.6725150  60.8979510
   6.5688320  35.4352530  61.8546790   5.7357350  36.1147280  54.7381730
   5.8570170  36.0733760  55.6867550   5.3505860  36.9771430  54.5828460
   9.6985720  33.8914680  62.7545420   9.7158460  34.3423330  63.5987270
   9.4501300  32.9920320  62.9678860   4.7478850  38.4248420  54.1365030
   4.1795750  37.9766670  53.5100940   5.4567850  38.7841200  53.6030180
  13.1256470  31.3046860  68.5931800  13.4502240  30.5736520  69.1189780
  13.1612980  30.9860500  67.6912790   5.9745170  39.1736980  63.4940380
   6.3415300  38.6995550  64.2401720   5.7850230  40.0478550  63.8348720
   3.7644540  38.2145620  65.8124590   3.4601610  39.0937600  66.0374950
   4.7191000  38.2745410  65.8482030   2.2926330  42.4206610  56.4091440
   1.5188590  41.8804230  56.2490160   3.0220960  41.9013220  56.0709200
  13.0514310  41.4171970  62.2017830  13.7713430  41.9127260  61.8113940
  12.8496130  40.7389860  61.5571700   8.5124250  32.8109930  56.3447220
   7.6988860  32.3123100  56.2692530   8.3186200  33.6508180  55.9283570
   8.4333110  41.4881030  68.0886830   8.3670420  40.5676700  67.8344420
   7.8038250  41.5856470  68.8031470  11.2272640  37.1829580  54.6409380
  12.1152260  37.4946810  54.4660720  11.1977730  36.3101830  54.2489960
   2.3363730  42.0886990  60.0470250   2.8542400  41.2855250  59.9927140
   1.8847750  42.0266130  60.8887080   7.2233230  43.3553270  55.3197550
   7.5648930  44.0995500  54.8240870   6.3945940  43.6684390  55.6822380
   3.0221390  39.5132600  69.8435500   2.7221530  39.6589780  68.9463320
   3.7932630  38.9537890  69.7508890   8.3649840  44.3101600  67.8390630
   8.3794380  43.3782560  67.6209540   7.6574940  44.3961360  68.4780400
  13.4986910  38.4941420  54.1089240  13.4150630  38.9255640  53.2585680
  14.2181100  38.9539770  54.5416060  14.5761050  40.9508940  67.1859210
  13.8509240  41.5437720  66.9888600  15.1036510  40.9432480  66.3872580
  14.5274160  45.3483680  56.8371370  13.8850320  44.6939300  57.1115090
  14.1404820  45.7538770  56.0612040  10.1060640  42.6769110  60.6843060
  10.4584460  42.0797240  60.0244430   9.2222970  42.3513340  60.8551310
   6.1923920  43.4366800  58.0913470   6.8795050  43.9836010  58.4721060
   5.4056340  43.9807530  58.1263080   5.4951130  40.4412830  57.7038830
   5.9513910  41.2518080  57.9299020   5.1439340  40.1235970  58.5357320
   7.7983740  45.9519170  64.9331130   8.4425960  46.1578550  65.6104550
   8.1613180  45.1907570  64.4801980   9.0715820  43.9551520  63.6508580
   9.7138050  43.2544680  63.7640750   9.5965170  44.7349960  63.4705470
  12.9171540  44.2400140  53.3747720  12.6909120  43.5230580  53.9672360
  12.5267740  43.9912580  52.5369470  10.8453440  44.7546420  66.8544640
  11.1809680  45.3413110  67.5322560   9.9253780  44.6239130  67.0842430
  12.4987790  42.1572080  55.0361880  12.2109490  42.6184770  55.8239760
  13.2939960  41.6969850  55.3046100   6.6742020  44.8037750  70.0232700
   6.3538890  44.0846990  70.5678390   6.0000380  45.4792820  70.0968760
   4.7156190  45.6498200  54.9665850   4.7066290  46.3827890  54.3510360
   3.7954550  45.4029780  55.0592810   9.8895620  35.0363910  65.3869500
  10.2576440  34.2159120  65.7149070   9.0293820  35.0965800  65.8025150
  13.2557650  33.9920850  56.1957060  12.6270810  34.0966520  55.4815290
  12.7609570  34.2117630  56.9850940   7.7015790  45.7126440  53.6291040
   7.8027770  45.5090430  52.6993020   6.8017530  45.4584720  53.8338820
   5.2241680  36.2706800  57.6114940   4.5157830  36.7393140  58.0528550
   5.5086160  35.6128810  58.2460130   6.8497610  37.6903500  65.6107470
   7.3482860  38.1649320  66.2759320   6.9920560  36.7667020  65.8177500
   9.2557110  32.9957460  59.0510730   9.1324890  33.0143590  58.1020240
  10.2041670  33.0436400  59.1709130   6.3433900  48.2312760  58.3238710
   6.5975400  48.1934150  57.4018080   5.3946380  48.1046090  58.3166960
   3.4276700  34.5791880  54.9865650   4.2767230  35.0162030  54.9205840
   3.0607970  34.8912140  55.8137710  14.0564470  33.9071460  66.4535860
  13.5538070  34.6476860  66.7929670  14.8721130  34.2955460  66.1372650
  12.3486480  39.1504640  59.8997220  11.4076620  39.1654870  60.0744910
  12.6630550  38.3640600  60.3457520   2.3268120  40.8324240  53.4601180
   3.0931390  40.7205600  54.0226610   2.4042810  40.1362210  52.8077950
  14.3512060  46.3213490  61.5751480  14.4759480  47.1444660  62.0475290
  15.2177620  46.1104220  61.2275630   1.8229590  48.4144700  61.2468610
   2.5592070  47.8660160  61.5177180   2.2070510  49.2800710  61.1074600
   4.9331900  47.5875010  53.0694180   5.7260510  47.8763840  52.6175970
   4.4136250  47.1567180  52.3906660   9.6652500  43.7070640  70.3829600
   9.0590660  43.7302240  69.6425350   9.3606610  42.9753680  70.9196850
  11.0952870  47.4350930  68.9939010  12.0474620  47.3508950  68.9439250
  10.9481090  48.0992640  69.6672800  13.9862070  46.8145140  54.4930920
  13.7003580  46.4010280  53.6785100  13.7881620  47.7432850  54.3731440
   5.4509300  42.8078420  52.9336530   5.3459940  42.1930770  53.6597910
   5.2833520  42.2844310  52.1499540   5.6023620  41.4935220  68.9125760
   4.8369290  42.0620220  68.8280430   5.7839580  41.2011430  68.0193990
   8.6912030  41.8698450  53.5378520   8.1422130  42.3167750  54.1821260
   9.3131290  41.3647700  54.0616190  12.7446970  43.2240550  69.4700780
  13.4856440  43.5616310  68.9668240  11.9819650  43.3932610  68.9170550
   4.3587150  40.8289370  55.4343820   4.7803570  40.6629240  56.2775210
   4.4837990  40.0189600  54.9398960   2.5214570  36.8085920  68.2414800
   1.9911030  36.3176870  67.6138140   3.1902640  37.2370120  67.7072730
   6.8714790  39.8526980  52.6820920   7.3920450  39.1376000  52.3162070
   7.5183190  40.4912850  52.9821430  11.4192630  41.2755380  68.0055990
  11.8333650  41.4300460  68.8546410  10.4843630  41.4010600  68.1681770
  11.8914800  38.6151540  70.0095140  12.4735570  37.8603860  69.9215620
  12.0676570  39.1458980  69.2326620   3.0086870  33.7748290  68.3212090
   2.9143740  33.1569040  67.5962960   2.4284260  34.5014580  68.0942000
   5.7748310  32.3321530  65.3539480   5.3265610  32.3545790  64.5085030
   5.1413510  31.9340550  65.9509780   6.1807860  41.2275860  65.9751920
   6.5995970  42.0708590  65.8028160   5.2616490  41.3647900  65.7458700
   8.5171760  38.9592040  67.3589760   8.6367970  38.3633180  68.0984600
   9.3765760  38.9961730  66.9391060  10.8559660  39.5129230  65.9352270
  10.3294880  40.0371850  65.3317410  11.1991000  40.1456620  66.5662000
   3.2546050  36.9022600  52.3801980   3.0535110  36.0389960  52.7415320
   3.0838100  36.8155960  51.4423580   4.0315280  47.5328870  67.0909650
   3.4936370  48.2574930  66.7718350   4.2849240  47.0559210  66.3006990
   5.2840530  35.5013390  68.6165580   5.8740220  35.1929240  69.3043400
   4.4660770  35.0293140  68.7725480  10.1033960  35.1179200  68.8498600
   9.4149480  34.4560740  68.7848590  10.8239980  34.6717470  69.2947060
  10.7334360  31.7130830  54.9088860  11.0136650  30.8698730  55.2648280
   9.9600090  31.9453940  55.4227610   2.0528850  34.0023220  52.3679860
   2.3554750  34.0090650  51.4599010   2.7923440  33.6521080  52.8647520
   6.8877490  48.7680080  67.3496300   6.8136190  49.6715220  67.6568670
   5.9856330  48.4491980  67.3218370   5.2713780  32.9457840  53.3536060
   4.9235780  32.2681830  52.7738510   5.4726550  32.4847350  54.1679450
   7.4362820  47.9338590  54.9722660   8.3313610  48.2723560  54.9941420
   7.4680450  47.2118000  54.3446940   2.8866700  44.4263680  58.3131890
   2.5862240  44.3028650  59.2135800   2.7804190  43.5672270  57.9047620
  14.4157170  46.4642260  67.6788860  13.8159160  46.5234820  66.9352780
  14.5451070  45.5247240  67.8085710  15.6558620  44.2060080  53.0158570
  14.8251580  44.2736730  53.4865800  15.8330450  45.0964200  52.7125430
  15.1115080  40.9507560  55.5192770  15.8733990  41.5204210  55.6252460
  15.1269450  40.3834760  56.2901080  16.1175050  41.8057660  60.3634700
  16.4883880  41.0224980  59.9570670  16.7576980  42.4946760  60.1852000
  13.1008810  43.1894240  65.7765020  12.2868650  43.6191400  66.0390810
  13.5083010  43.8012650  65.1634070  15.1634250  41.2441930  52.6765290
  15.4383090  42.1520810  52.5484510  14.9744990  41.1804460  53.6127280
  11.5609860  34.2686780  53.9718920  11.9794740  34.0817760  53.1315580
  11.2545920  33.4165830  54.2821850  15.0599590  39.1810920  57.6694720
  14.6843190  38.4138850  57.2376010  14.3302710  39.5633620  58.1569650
  14.4499210  38.3282440  67.3034240  14.2185300  38.0995190  66.4032190
  14.7103760  39.2481990  67.2579130  12.8887280  33.5538870  70.0813940
  13.7657460  33.5622270  70.4647940  12.9008120  32.8169710  69.4706290
  14.3350550  37.4068410  60.9701960  14.8588030  36.9131060  60.3392130
  14.9209970  37.5418770  61.7149530  14.5140270  37.4908280  64.4921510
  13.5642980  37.4571820  64.6066500  14.6953280  38.4008390  64.2571280
  13.8250520  36.6641760  56.9094370  14.3209640  36.4312630  57.6943250
  13.6266590  35.8253600  56.4932010  15.2537680  35.3002710  59.4432050
  15.1436960  35.1458750  60.3814320  16.0145270  34.7723650  59.2007460
  13.6003400  31.2396840  65.9015050  14.2375620  31.8530980  66.2674240
  13.7478290  31.2757500  64.9564280  16.1427950  33.1310630  52.6838190
  17.0677260  32.9991810  52.4756480  16.1203740  33.2103450  53.6374640
  16.2166440  33.9021290  55.3094900  15.4217940  33.8366410  55.8387810
  16.4209720  34.8371930  55.2980250  13.1584860  47.9412840  59.3033290
  13.7543930  47.6197410  58.6267710  13.4163010  47.4684660  60.0946560
   4.7653460  45.9290340  65.0533640   4.5244820  46.1964900  64.1664160
   5.7056100  46.0996070  65.1084500   6.9707880  32.3923030  68.8090150
   6.9096770  32.9844860  69.5585560   7.9108260  32.2848990  68.6640410
   9.6082440  32.0493090  68.4482440  10.2222850  32.3672380  67.7863520
  10.1532000  31.5641680  69.0678300  16.0257620  47.9484720  65.8544280
  15.5315900  48.3453590  65.1371410  15.4170910  47.3233930  66.2481560
  10.3490480  30.6125230  64.7751730   9.4750320  30.9460340  64.5724660
  10.2401230  30.1398410  65.6003600  11.2562460  32.8196100  66.1593450
  10.9275820  32.0047860  65.7795180  12.2044760  32.7765910  66.0359140
  13.7097070  48.5908140  63.1331020  13.2500040  49.3423950  62.7589040
  13.0809530  47.8714610  63.0745820   4.1392790  46.8996380  62.3079150
   4.6557810  46.2883740  61.7827410   4.7890170  47.4025160  62.7990160
   6.8788290  47.7904870  63.1348130   7.1666100  47.5359170  62.2581140
   7.3911510  47.2382230  63.7253700   8.0965300  31.5295070  63.7144640
   7.3137090  32.0040570  63.9941400   7.8028230  30.6249900  63.6057820
  12.6486370  32.2318170  61.7593730  13.0894460  32.1763270  60.9115330
  12.3793960  33.1476180  61.8303910  14.5124940  31.8633410  59.7702550
  14.4513340  30.9194630  59.6233570  15.2916970  31.9713500  60.3156010
   5.9819520  33.9481820  59.2260670   5.1694030  33.5738710  58.8856550
   6.4861160  33.1926900  59.5281860  10.4844500  30.6124270  60.4643740
  11.0873870  31.1844480  60.9392260   9.7437490  31.1763710  60.2417640
  13.6279100  31.0145830  55.7384020  13.8229730  31.9129280  56.0051450
  12.8408970  30.7832910  56.2316970   1.8130860  32.3606600  54.7760330
   2.3423620  31.5736400  54.6468280   2.4459180  33.0397790  55.0095860
   4.0068700  32.0981740  57.8305720   3.3771440  31.3969050  57.9975850
   3.4673840  32.8585870  57.6138880   6.9460650  48.7120970  70.5016330
   7.8727960  48.4765240  70.5452290   6.9311080  49.5392970  70.0202360
  15.1805710  48.2546540  57.4990580  15.3557900  47.5684280  56.8551500
  14.4827280  48.7793590  57.1067250   4.1324260  31.3765720  70.2658210
   3.8508530  31.8799320  69.5019030   4.5143960  30.5787470  69.9000340
   3.0233360  48.6441380  55.0525890   3.7552180  48.3600660  54.5049780
   3.2827030  48.4054660  55.9425270   2.1848150  44.7606110  55.0572220
   1.5557030  45.2291210  55.6058050   2.2995980  43.9155330  55.4918410
  10.7339720  30.7919300  70.8438680  10.6205170  31.1113910  71.7390200
  11.5509460  31.1931810  70.5475960  13.5138210  47.9390830  70.3257370
  14.3063530  47.4440060  70.1183330  13.8071360  48.6180970  70.9332980
   9.6397870  38.8111770  41.2073420   9.5591920  37.8966380  40.9365130
   9.2262290  39.3078840  40.5013130   7.7715910  40.5890790  43.0882690
   6.9958010  40.1091230  43.3781260   8.4228840  39.9096440  42.9138850
  11.7923340  44.9950980  41.8681820  11.3304870  44.2238220  42.1968990
  12.6048890  45.0217050  42.3734270   1.7683000  44.9350690  44.1616470
   2.0711040  44.0448430  43.9826690   2.5126590  45.4920910  43.9338720
   8.0186650  47.2808990  41.4885810   7.3998090  47.7366490  40.9180250
   8.8738430  47.4360450  41.0875510   7.2124900  43.2647980  43.0952850
   7.1433180  42.3237920  42.9341980   7.9744760  43.3549390  43.6675420
   8.2430070  36.0718360  43.3221780   8.6194890  35.1990240  43.2095450
   8.1449580  36.4077060  42.4312220   2.3735080  34.4443990  38.7839220
   2.4801830  35.3447720  39.0907980   1.4627440  34.3961960  38.4933870
  12.0254190  33.5668800  40.2550120  12.8463810  33.0765370  40.2975600
  12.0588270  34.1566460  41.0081960   4.2142810  37.4130360  43.1164400
   4.7221030  37.9111330  43.7569420   4.7456050  36.6365560  42.9403760
  16.3153740  35.5835550  46.8193750  15.6105910  35.9717260  46.3008860
  16.5811660  36.2785840  47.4214680   2.4978910  32.0528920  47.3827820
   2.4997350  32.5701310  46.5773720   1.6683220  31.5759100  47.3597750
   8.8850000  42.1648230  38.8817720   8.2667270  42.6297680  38.3180440
   9.3973250  42.8575710  39.2987230   3.7481760  41.6924100  45.5601320
   3.4151140  42.3193020  46.2022390   3.9248440  42.2185980  44.7802990
  12.2615670  35.5069180  43.0277660  11.5571240  35.7954070  43.6080770
  12.6227830  36.3169290  42.6677220   2.1794240  33.7638880  45.3898270
   2.5211050  34.6080930  45.0952140   1.2410050  33.9122620  45.5063610
   2.9600860  43.6604900  47.3750500   3.5774860  44.3355980  47.0934950
   2.0993980  44.0692880  47.2838000  13.8778450  45.1244310  45.2905140
  13.1941970  45.7943420  45.2821810  14.4172740  45.3224960  44.5250000
  15.3302590  34.9523970  43.4186870  14.3827500  34.9862950  43.5502300
  15.6552580  35.7662920  43.8036230   5.8622130  31.2521150  41.7142860
   6.1697110  30.6968040  40.9978360   4.9322830  31.3865610  41.5315850
  11.4137190  46.9688440  44.0050320  11.4264350  46.5650730  43.1372580
  10.8612410  47.7435730  43.9011750  12.7082610  43.6904660  39.0940490
  12.5978940  42.7478990  39.2189910  12.7050860  44.0520300  39.9803250
  10.8122630  41.8718280  45.3332930  11.2291420  41.6578390  44.4986390
  11.5362450  42.1291070  45.9041550   8.2502890  39.3169980  38.4502980
   7.3232170  39.2507360  38.6791450   8.4027710  40.2550110  38.3358220
   8.2371970  35.5886980  35.4470140   7.2975640  35.7500940  35.5322600
   8.5555230  36.3072660  34.9006130  14.7584730  40.2705500  45.4249170
  13.9303360  40.3398590  44.9499300  15.3535210  40.8559810  44.9565000
  12.2800180  40.8790280  38.9538230  11.6612600  40.5409830  38.3064530
  12.2624630  40.2350040  39.6617420  11.7226740  37.0574820  46.3704040
  11.3097920  37.8828530  46.6244030  10.9902690  36.4719860  46.1780400
   3.8559530  39.8434720  41.2322710   3.4516530  39.1311970  40.7368610
   3.9422650  39.4987960  42.1210750   4.3241230  43.5302280  43.3961920
   4.0269520  42.9247750  42.7169700   5.2741050  43.5679590  43.2851280
   2.5688150  36.6177930  45.0121750   3.1202740  36.7273270  44.2375000
   3.0831660  36.9915530  45.7276980  12.4126840  47.1034150  47.0585020
  11.9357400  47.9106340  46.8657630  11.7288630  46.4512480  47.2111230
   3.4159660  43.2683970  50.0469720   2.5188190  43.4923940  50.2943120
   3.4412530  43.3918910  49.0981120  10.4564880  40.1177090  35.9610980
  10.8958160  39.2799520  35.8148800  11.1693300  40.7506490  36.0475120
   2.2430880  40.1397290  48.6227090   2.1038650  41.0120090  48.9914490
   1.3612240  39.7970100  48.4775030   8.5660260  45.0573160  39.9292220
   9.0056170  45.7997490  39.5147610   8.5047150  45.2999730  40.8531180
   4.0411230  46.0818990  50.8312240   4.0126660  46.4861940  49.9640670
   3.8776200  45.1529350  50.6683840  14.0382020  31.3719900  34.2752020
  13.7254680  31.4646730  35.1751090  14.7994490  31.9500930  34.2249450
  15.9926050  46.8646090  52.1276410  16.4685770  47.3428980  52.8065490
  16.6133210  46.7963580  51.4021910  15.3959300  44.0558940  49.2876420
  15.5222360  43.8170820  48.3693600  15.4380680  43.2243480  49.7598500
   9.2576040  47.7586940  47.8571230   9.7720710  47.6694950  48.6593660
   8.4145120  48.1046640  48.1499140  11.2330440  48.0442280  37.2855230
  11.0731580  47.7545220  38.1837060  11.0677150  47.2682410  36.7500460
   3.7118820  47.8240810  39.0626850   3.5361300  46.9076350  38.8494650
   2.8574560  48.1828100  39.3024650  10.9356570  45.5529840  35.8453230
  10.2421730  45.5507130  35.1855510  11.6779430  45.1289160  35.4147400
  10.5006500  47.1792550  39.9201720  10.9563450  46.3981930  40.2340340
  10.8399020  47.8899370  40.4642900  15.2483310  36.1091400  50.2526160
  14.6327580  36.6171070  49.7241620  14.9279730  35.2089730  50.1952100
   3.0227820  32.0814770  42.1153030   2.5795970  32.8624310  41.7837550
   3.5812810  32.4044660  42.8223970   7.3097630  34.9483290  47.7188350
   6.8477000  35.1566310  48.5308290   6.9075740  34.1342640  47.4159020
  12.3102140  36.1692240  48.8485010  11.4595730  35.8697990  49.1694080
  12.1503930  36.4134250  47.9368830   9.4051850  37.6693990  50.9483800
   9.7305260  36.8357740  50.6086030  10.1932180  38.1922510  51.0962130
   6.1386640  31.7025470  36.9958860   5.5140820  31.6985340  37.7212170
   6.0516760  30.8356430  36.5994830   5.0603720  32.6262100  43.9742630
   5.3576050  33.5324930  43.8934650   5.6089280  32.1380880  43.3602200
   2.8142040  37.2048340  39.8434280   2.5882960  36.9885510  40.7480900
   2.0334570  37.6376800  39.4980250  10.0439800  37.2111710  38.4424930
   9.4448690  37.9347510  38.2588550  10.5919410  37.1488490  37.6601380
   5.2541250  38.1033920  50.5094550   5.1584850  37.1628650  50.3594950
   6.0973230  38.3248990  50.1142620   8.6504670  35.8475250  40.4728210
   9.0434240  36.1647450  39.6596900   9.0121520  34.9687130  40.5872730
   6.9596840  34.5982560  51.7325070   6.2695160  34.4054760  52.3671160
   7.7029140  34.8817200  52.2649370   9.2359810  38.4381000  44.5678990
   8.5040930  38.9467810  44.9169090   8.8384150  37.6210980  44.2667770
   5.6737200  35.1135200  42.9731480   5.6773260  34.6725150  42.1236020
   6.5688320  35.4352530  43.0803300   5.7357350  36.1147280  35.9638240
   5.8570170  36.0733760  36.9124060   5.3505860  36.9771430  35.8084970
   9.6985720  33.8914680  43.9801930   9.7158460  34.3423330  44.8243780
   9.4501300  32.9920320  44.1935370   4.7478850  38.4248420  35.3621540
   4.1795750  37.9766670  34.7357450   5.4567850  38.7841200  34.8286690
  13.1256470  31.3046860  49.8188310  13.4502240  30.5736520  50.3446290
  13.1612980  30.9860500  48.9169300   5.9745170  39.1736980  44.7196890
   6.3415300  38.6995550  45.4658230   5.7850230  40.0478550  45.0605230
   3.7644540  38.2145620  47.0381100   3.4601610  39.0937600  47.2631460
   4.7191000  38.2745410  47.0738540   2.2926330  42.4206610  37.6347950
   1.5188590  41.8804230  37.4746670   3.0220960  41.9013220  37.2965710
  13.0514310  41.4171970  43.4274340  13.7713430  41.9127260  43.0370450
  12.8496130  40.7389860  42.7828210   8.5124250  32.8109930  37.5703730
   7.6988860  32.3123100  37.4949040   8.3186200  33.6508180  37.1540080
   8.4333110  41.4881030  49.3143340   8.3670420  40.5676700  49.0600930
   7.8038250  41.5856470  50.0287980  11.2272640  37.1829580  35.8665890
  12.1152260  37.4946810  35.6917230  11.1977730  36.3101830  35.4746470
   2.3363730  42.0886990  41.2726760   2.8542400  41.2855250  41.2183650
   1.8847750  42.0266130  42.1143590   7.2233230  43.3553270  36.5454060
   7.5648930  44.0995500  36.0497380   6.3945940  43.6684390  36.9078890
   3.0221390  39.5132600  51.0692010   2.7221530  39.6589780  50.1719830
   3.7932630  38.9537890  50.9765400   8.3649840  44.3101600  49.0647140
   8.3794380  43.3782560  48.8466050   7.6574940  44.3961360  49.7036910
  13.4986910  38.4941420  35.3345750  13.4150630  38.9255640  34.4842190
  14.2181100  38.9539770  35.7672570  14.5761050  40.9508940  48.4115720
  13.8509240  41.5437720  48.2145110  15.1036510  40.9432480  47.6129090
  14.5274160  45.3483680  38.0627880  13.8850320  44.6939300  38.3371600
  14.1404820  45.7538770  37.2868550  10.1060640  42.6769110  41.9099570
  10.4584460  42.0797240  41.2500940   9.2222970  42.3513340  42.0807820
   6.1923920  43.4366800  39.3169980   6.8795050  43.9836010  39.6977570
   5.4056340  43.9807530  39.3519590   5.4951130  40.4412830  38.9295340
   5.9513910  41.2518080  39.1555530   5.1439340  40.1235970  39.7613830
   7.7983740  45.9519170  46.1587640   8.4425960  46.1578550  46.8361060
   8.1613180  45.1907570  45.7058490   9.0715820  43.9551520  44.8765090
   9.7138050  43.2544680  44.9897260   9.5965170  44.7349960  44.6961980
  12.9171540  44.2400140  34.6004230  12.6909120  43.5230580  35.1928870
  12.5267740  43.9912580  33.7625980  10.8453440  44.7546420  48.0801150
  11.1809680  45.3413110  48.7579070   9.9253780  44.6239130  48.3098940
  12.4987790  42.1572080  36.2618390  12.2109490  42.6184770  37.0496270
  13.2939960  41.6969850  36.5302610   6.6742020  44.8037750  51.2489210
   6.3538890  44.0846990  51.7934900   6.0000380  45.4792820  51.3225270
   4.7156190  45.6498200  36.1922360   4.7066290  46.3827890  35.5766870
   3.7954550  45.4029780  36.2849320   9.8895620  35.0363910  46.6126010
  10.2576440  34.2159120  46.9405580   9.0293820  35.0965800  47.0281660
  13.2557650  33.9920850  37.4213570  12.6270810  34.0966520  36.7071800
  12.7609570  34.2117630  38.2107450   7.7015790  45.7126440  34.8547550
   7.8027770  45.5090430  33.9249530   6.8017530  45.4584720  35.0595330
   5.2241680  36.2706800  38.8371450   4.5157830  36.7393140  39.2785060
   5.5086160  35.6128810  39.4716640   6.8497610  37.6903500  46.8363980
   7.3482860  38.1649320  47.5015830   6.9920560  36.7667020  47.0434010
   9.2557110  32.9957460  40.2767240   9.1324890  33.0143590  39.3276750
  10.2041670  33.0436400  40.3965640   6.3433900  48.2312760  39.5495220
   6.5975400  48.1934150  38.6274590   5.3946380  48.1046090  39.5423470
   3.4276700  34.5791880  36.2122160   4.2767230  35.0162030  36.1462350
   3.0607970  34.8912140  37.0394220  14.0564470  33.9071460  47.6792370
  13.5538070  34.6476860  48.0186180  14.8721130  34.2955460  47.3629160
  12.3486480  39.1504640  41.1253730  11.4076620  39.1654870  41.3001420
  12.6630550  38.3640600  41.5714030   2.3268120  40.8324240  34.6857690
   3.0931390  40.7205600  35.2483120   2.4042810  40.1362210  34.0334460
  14.3512060  46.3213490  42.8007990  14.4759480  47.1444660  43.2731800
  15.2177620  46.1104220  42.4532140   1.8229590  48.4144700  42.4725120
   2.5592070  47.8660160  42.7433690   2.2070510  49.2800710  42.3331110
   4.9331900  47.5875010  34.2950690   5.7260510  47.8763840  33.8432480
   4.4136250  47.1567180  33.6163170   9.6652500  43.7070640  51.6086110
   9.0590660  43.7302240  50.8681860   9.3606610  42.9753680  52.1453360
  11.0952870  47.4350930  50.2195520  12.0474620  47.3508950  50.1695760
  10.9481090  48.0992640  50.8929310  13.9862070  46.8145140  35.7187430
  13.7003580  46.4010280  34.9041610  13.7881620  47.7432850  35.5987950
   5.4509300  42.8078420  34.1593040   5.3459940  42.1930770  34.8854420
   5.2833520  42.2844310  33.3756050   5.6023620  41.4935220  50.1382270
   4.8369290  42.0620220  50.0536940   5.7839580  41.2011430  49.2450500
   8.6912030  41.8698450  34.7635030   8.1422130  42.3167750  35.4077770
   9.3131290  41.3647700  35.2872700  12.7446970  43.2240550  50.6957290
  13.4856440  43.5616310  50.1924750  11.9819650  43.3932610  50.1427060
   4.3587150  40.8289370  36.6600330   4.7803570  40.6629240  37.5031720
   4.4837990  40.0189600  36.1655470   2.5214570  36.8085920  49.4671310
   1.9911030  36.3176870  48.8394650   3.1902640  37.2370120  48.9329240
   6.8714790  39.8526980  33.9077430   7.3920450  39.1376000  33.5418580
   7.5183190  40.4912850  34.2077940  11.4192630  41.2755380  49.2312500
  11.8333650  41.4300460  50.0802920  10.4843630  41.4010600  49.3938280
  11.8914800  38.6151540  51.2351650  12.4735570  37.8603860  51.1472130
  12.0676570  39.1458980  50.4583130   3.0086870  33.7748290  49.5468600
   2.9143740  33.1569040  48.8219470   2.4284260  34.5014580  49.3198510
   5.7748310  32.3321530  46.5795990   5.3265610  32.3545790  45.7341540
   5.1413510  31.9340550  47.1766290   6.1807860  41.2275860  47.2008430
   6.5995970  42.0708590  47.0284670   5.2616490  41.3647900  46.9715210
   8.5171760  38.9592040  48.5846270   8.6367970  38.3633180  49.3241110
   9.3765760  38.9961730  48.1647570  10.8559660  39.5129230  47.1608780
  10.3294880  40.0371850  46.5573920  11.1991000  40.1456620  47.7918510
   3.2546050  36.9022600  33.6058490   3.0535110  36.0389960  33.9671830
   3.0838100  36.8155960  32.6680090   4.0315280  47.5328870  48.3166160
   3.4936370  48.2574930  47.9974860   4.2849240  47.0559210  47.5263500
   5.2840530  35.5013390  49.8422090   5.8740220  35.1929240  50.5299910
   4.4660770  35.0293140  49.9981990  10.1033960  35.1179200  50.0755110
   9.4149480  34.4560740  50.0105100  10.8239980  34.6717470  50.5203570
  10.7334360  31.7130830  36.1345370  11.0136650  30.8698730  36.4904790
   9.9600090  31.9453940  36.6484120   2.0528850  34.0023220  33.5936370
   2.3554750  34.0090650  32.6855520   2.7923440  33.6521080  34.0904030
   6.8877490  48.7680080  48.5752810   6.8136190  49.6715220  48.8825180
   5.9856330  48.4491980  48.5474880   5.2713780  32.9457840  34.5792570
   4.9235780  32.2681830  33.9995020   5.4726550  32.4847350  35.3935960
   7.4362820  47.9338590  36.1979170   8.3313610  48.2723560  36.2197930
   7.4680450  47.2118000  35.5703450   2.8866700  44.4263680  39.5388400
   2.5862240  44.3028650  40.4392310   2.7804190  43.5672270  39.1304130
  14.4157170  46.4642260  48.9045370  13.8159160  46.5234820  48.1609290
  14.5451070  45.5247240  49.0342220  15.6558620  44.2060080  34.2415080
  14.8251580  44.2736730  34.7122310  15.8330450  45.0964200  33.9381940
  15.1115080  40.9507560  36.7449280  15.8733990  41.5204210  36.8508970
  15.1269450  40.3834760  37.5157590  16.1175050  41.8057660  41.5891210
  16.4883880  41.0224980  41.1827180  16.7576980  42.4946760  41.4108510
  13.1008810  43.1894240  47.0021530  12.2868650  43.6191400  47.2647320
  13.5083010  43.8012650  46.3890580  15.1634250  41.2441930  33.9021800
  15.4383090  42.1520810  33.7741020  14.9744990  41.1804460  34.8383790
  11.5609860  34.2686780  35.1975430  11.9794740  34.0817760  34.3572090
  11.2545920  33.4165830  35.5078360  15.0599590  39.1810920  38.8951230
  14.6843190  38.4138850  38.4632520  14.3302710  39.5633620  39.3826160
  14.4499210  38.3282440  48.5290750  14.2185300  38.0995190  47.6288700
  14.7103760  39.2481990  48.4835640  12.8887280  33.5538870  51.3070450
  13.7657460  33.5622270  51.6904450  12.9008120  32.8169710  50.6962800
  14.3350550  37.4068410  42.1958470  14.8588030  36.9131060  41.5648640
  14.9209970  37.5418770  42.9406040  14.5140270  37.4908280  45.7178020
  13.5642980  37.4571820  45.8323010  14.6953280  38.4008390  45.4827790
  13.8250520  36.6641760  38.1350880  14.3209640  36.4312630  38.9199760
  13.6266590  35.8253600  37.7188520  15.2537680  35.3002710  40.6688560
  15.1436960  35.1458750  41.6070830  16.0145270  34.7723650  40.4263970
  13.6003400  31.2396840  47.1271560  14.2375620  31.8530980  47.4930750
  13.7478290  31.2757500  46.1820790  16.1427950  33.1310630  33.9094700
  17.0677260  32.9991810  33.7012990  16.1203740  33.2103450  34.8631150
  16.2166440  33.9021290  36.5351410  15.4217940  33.8366410  37.0644320
  16.4209720  34.8371930  36.5236760  13.1584860  47.9412840  40.5289800
  13.7543930  47.6197410  39.8524220  13.4163010  47.4684660  41.3203070
   4.7653460  45.9290340  46.2790150   4.5244820  46.1964900  45.3920670
   5.7056100  46.0996070  46.3341010   6.9707880  32.3923030  50.0346660
   6.9096770  32.9844860  50.7842070   7.9108260  32.2848990  49.8896920
   9.6082440  32.0493090  49.6738950  10.2222850  32.3672380  49.0120030
  10.1532000  31.5641680  50.2934810  16.0257620  47.9484720  47.0800790
  15.5315900  48.3453590  46.3627920  15.4170910  47.3233930  47.4738070
  10.3490480  30.6125230  46.0008240   9.4750320  30.9460340  45.7981170
  10.2401230  30.1398410  46.8260110  11.2562460  32.8196100  47.3849960
  10.9275820  32.0047860  47.0051690  12.2044760  32.7765910  47.2615650
  13.7097070  48.5908140  44.3587530  13.2500040  49.3423950  43.9845550
  13.0809530  47.8714610  44.3002330   4.1392790  46.8996380  43.5335660
   4.6557810  46.2883740  43.0083920   4.7890170  47.4025160  44.0246670
   6.8788290  47.7904870  44.3604640   7.1666100  47.5359170  43.4837650
   7.3911510  47.2382230  44.9510210   8.0965300  31.5295070  44.9401150
   7.3137090  32.0040570  45.2197910   7.8028230  30.6249900  44.8314330
  12.6486370  32.2318170  42.9850240  13.0894460  32.1763270  42.1371840
  12.3793960  33.1476180  43.0560420  14.5124940  31.8633410  40.9959060
  14.4513340  30.9194630  40.8490080  15.2916970  31.9713500  41.5412520
   5.9819520  33.9481820  40.4517180   5.1694030  33.5738710  40.1113060
   6.4861160  33.1926900  40.7538370  10.4844500  30.6124270  41.6900250
  11.0873870  31.1844480  42.1648770   9.7437490  31.1763710  41.4674150
  13.6279100  31.0145830  36.9640530  13.8229730  31.9129280  37.2307960
  12.8408970  30.7832910  37.4573480   1.8130860  32.3606600  36.0016840
   2.3423620  31.5736400  35.8724790   2.4459180  33.0397790  36.2352370
   4.0068700  32.0981740  39.0562230   3.3771440  31.3969050  39.2232360
   3.4673840  32.8585870  38.8395390   6.9460650  48.7120970  51.7272840
   7.8727960  48.4765240  51.7708800   6.9311080  49.5392970  51.2458870
  15.1805710  48.2546540  38.7247090  15.3557900  47.5684280  38.0808010
  14.4827280  48.7793590  38.3323760   4.1324260  31.3765720  51.4914720
   3.8508530  31.8799320  50.7275540   4.5143960  30.5787470  51.1256850
   3.0233360  48.6441380  36.2782400   3.7552180  48.3600660  35.7306290
   3.2827030  48.4054660  37.1681780   2.1848150  44.7606110  36.2828730
   1.5557030  45.2291210  36.8314560   2.2995980  43.9155330  36.7174920
  10.7339720  30.7919300  52.0695190  10.6205170  31.1113910  52.9646710
  11.5509460  31.1931810  51.7732470  13.5138210  47.9390830  51.5513880
  14.3063530  47.4440060  51.3439840  13.8071360  48.6180970  52.1589490
   9.6397870  38.8111770  22.4329930   9.5591920  37.8966380  22.1621640
   9.2262290  39.3078840  21.7269640   7.7715910  40.5890790  24.3139200
   6.9958010  40.1091230  24.6037770   8.4228840  39.9096440  24.1395360
  11.7923340  44.9950980  23.0938330  11.3304870  44.2238220  23.4225500
  12.6048890  45.0217050  23.5990780   1.7683000  44.9350690  25.3872980
   2.0711040  44.0448430  25.2083200   2.5126590  45.4920910  25.1595230
   8.0186650  47.2808990  22.7142320   7.3998090  47.7366490  22.1436760
   8.8738430  47.4360450  22.3132020   7.2124900  43.2647980  24.3209360
   7.1433180  42.3237920  24.1598490   7.9744760  43.3549390  24.8931930
   8.2430070  36.0718360  24.5478290   8.6194890  35.1990240  24.4351960
   8.1449580  36.4077060  23.6568730   2.3735080  34.4443990  20.0095730
   2.4801830  35.3447720  20.3164490   1.4627440  34.3961960  19.7190380
  12.0254190  33.5668800  21.4806630  12.8463810  33.0765370  21.5232110
  12.0588270  34.1566460  22.2338470   4.2142810  37.4130360  24.3420910
   4.7221030  37.9111330  24.9825930   4.7456050  36.6365560  24.1660270
  16.3153740  35.5835550  28.0450260  15.6105910  35.9717260  27.5265370
  16.5811660  36.2785840  28.6471190   2.4978910  32.0528920  28.6084330
   2.4997350  32.5701310  27.8030230   1.6683220  31.5759100  28.5854260
   8.8850000  42.1648230  20.1074230   8.2667270  42.6297680  19.5436950
   9.3973250  42.8575710  20.5243740   3.7481760  41.6924100  26.7857830
   3.4151140  42.3193020  27.4278900   3.9248440  42.2185980  26.0059500
  12.2615670  35.5069180  24.2534170  11.5571240  35.7954070  24.8337280
  12.6227830  36.3169290  23.8933730   2.1794240  33.7638880  26.6154780
   2.5211050  34.6080930  26.3208650   1.2410050  33.9122620  26.7320120
   2.9600860  43.6604900  28.6007010   3.5774860  44.3355980  28.3191460
   2.0993980  44.0692880  28.5094510  13.8778450  45.1244310  26.5161650
  13.1941970  45.7943420  26.5078320  14.4172740  45.3224960  25.7506510
  15.3302590  34.9523970  24.6443380  14.3827500  34.9862950  24.7758810
  15.6552580  35.7662920  25.0292740   5.8622130  31.2521150  22.9399370
   6.1697110  30.6968040  22.2234870   4.9322830  31.3865610  22.7572360
  11.4137190  46.9688440  25.2306830  11.4264350  46.5650730  24.3629090
  10.8612410  47.7435730  25.1268260  12.7082610  43.6904660  20.3197000
  12.5978940  42.7478990  20.4446420  12.7050860  44.0520300  21.2059760
  10.8122630  41.8718280  26.5589440  11.2291420  41.6578390  25.7242900
  11.5362450  42.1291070  27.1298060   8.2502890  39.3169980  19.6759490
   7.3232170  39.2507360  19.9047960   8.4027710  40.2550110  19.5614730
   8.2371970  35.5886980  16.6726650   7.2975640  35.7500940  16.7579110
   8.5555230  36.3072660  16.1262640  14.7584730  40.2705500  26.6505680
  13.9303360  40.3398590  26.1755810  15.3535210  40.8559810  26.1821510
  12.2800180  40.8790280  20.1794740  11.6612600  40.5409830  19.5321040
  12.2624630  40.2350040  20.8873930  11.7226740  37.0574820  27.5960550
  11.3097920  37.8828530  27.8500540  10.9902690  36.4719860  27.4036910
   3.8559530  39.8434720  22.4579220   3.4516530  39.1311970  21.9625120
   3.9422650  39.4987960  23.3467260   4.3241230  43.5302280  24.6218430
   4.0269520  42.9247750  23.9426210   5.2741050  43.5679590  24.5107790
   2.5688150  36.6177930  26.2378260   3.1202740  36.7273270  25.4631510
   3.0831660  36.9915530  26.9533490  12.4126840  47.1034150  28.2841530
  11.9357400  47.9106340  28.0914140  11.7288630  46.4512480  28.4367740
   3.4159660  43.2683970  31.2726230   2.5188190  43.4923940  31.5199630
   3.4412530  43.3918910  30.3237630  10.4564880  40.1177090  17.1867490
  10.8958160  39.2799520  17.0405310  11.1693300  40.7506490  17.2731630
   2.2430880  40.1397290  29.8483600   2.1038650  41.0120090  30.2171000
   1.3612240  39.7970100  29.7031540   8.5660260  45.0573160  21.1548730
   9.0056170  45.7997490  20.7404120   8.5047150  45.2999730  22.0787690
   4.0411230  46.0818990  32.0568750   4.0126660  46.4861940  31.1897180
   3.8776200  45.1529350  31.8940350  14.0382020  31.3719900  15.5008530
  13.7254680  31.4646730  16.4007600  14.7994490  31.9500930  15.4505960
  15.9926050  46.8646090  33.3532920  16.4685770  47.3428980  34.0322000
  16.6133210  46.7963580  32.6278420  15.3959300  44.0558940  30.5132930
  15.5222360  43.8170820  29.5950110  15.4380680  43.2243480  30.9855010
   9.2576040  47.7586940  29.0827740   9.7720710  47.6694950  29.8850170
   8.4145120  48.1046640  29.3755650  11.2330440  48.0442280  18.5111740
  11.0731580  47.7545220  19.4093570  11.0677150  47.2682410  17.9756970
   3.7118820  47.8240810  20.2883360   3.5361300  46.9076350  20.0751160
   2.8574560  48.1828100  20.5281160  10.9356570  45.5529840  17.0709740
  10.2421730  45.5507130  16.4112020  11.6779430  45.1289160  16.6403910
  10.5006500  47.1792550  21.1458230  10.9563450  46.3981930  21.4596850
  10.8399020  47.8899370  21.6899410  15.2483310  36.1091400  31.4782670
  14.6327580  36.6171070  30.9498130  14.9279730  35.2089730  31.4208610
   3.0227820  32.0814770  23.3409540   2.5795970  32.8624310  23.0094060
   3.5812810  32.4044660  24.0480480   7.3097630  34.9483290  28.9444860
   6.8477000  35.1566310  29.7564800   6.9075740  34.1342640  28.6415530
  12.3102140  36.1692240  30.0741520  11.4595730  35.8697990  30.3950590
  12.1503930  36.4134250  29.1625340   9.4051850  37.6693990  32.1740310
   9.7305260  36.8357740  31.8342540  10.1932180  38.1922510  32.3218640
   6.1386640  31.7025470  18.2215370   5.5140820  31.6985340  18.9468680
   6.0516760  30.8356430  17.8251340   5.0603720  32.6262100  25.1999140
   5.3576050  33.5324930  25.1191160   5.6089280  32.1380880  24.5858710
   2.8142040  37.2048340  21.0690790   2.5882960  36.9885510  21.9737410
   2.0334570  37.6376800  20.7236760  10.0439800  37.2111710  19.6681440
   9.4448690  37.9347510  19.4845060  10.5919410  37.1488490  18.8857890
   5.2541250  38.1033920  31.7351060   5.1584850  37.1628650  31.5851460
   6.0973230  38.3248990  31.3399130   8.6504670  35.8475250  21.6984720
   9.0434240  36.1647450  20.8853410   9.0121520  34.9687130  21.8129240
   6.9596840  34.5982560  32.9581580   6.2695160  34.4054760  33.5927670
   7.7029140  34.8817200  33.4905880   9.2359810  38.4381000  25.7935500
   8.5040930  38.9467810  26.1425600   8.8384150  37.6210980  25.4924280
   5.6737200  35.1135200  24.1987990   5.6773260  34.6725150  23.3492530
   6.5688320  35.4352530  24.3059810   5.7357350  36.1147280  17.1894750
   5.8570170  36.0733760  18.1380570   5.3505860  36.9771430  17.0341480
   9.6985720  33.8914680  25.2058440   9.7158460  34.3423330  26.0500290
   9.4501300  32.9920320  25.4191880   4.7478850  38.4248420  16.5878050
   4.1795750  37.9766670  15.9613960   5.4567850  38.7841200  16.0543200
  13.1256470  31.3046860  31.0444820  13.4502240  30.5736520  31.5702800
  13.1612980  30.9860500  30.1425810   5.9745170  39.1736980  25.9453400
   6.3415300  38.6995550  26.6914740   5.7850230  40.0478550  26.2861740
   3.7644540  38.2145620  28.2637610   3.4601610  39.0937600  28.4887970
   4.7191000  38.2745410  28.2995050   2.2926330  42.4206610  18.8604460
   1.5188590  41.8804230  18.7003180   3.0220960  41.9013220  18.5222220
  13.0514310  41.4171970  24.6530850  13.7713430  41.9127260  24.2626960
  12.8496130  40.7389860  24.0084720   8.5124250  32.8109930  18.7960240
   7.6988860  32.3123100  18.7205550   8.3186200  33.6508180  18.3796590
   8.4333110  41.4881030  30.5399850   8.3670420  40.5676700  30.2857440
   7.8038250  41.5856470  31.2544490  11.2272640  37.1829580  17.0922400
  12.1152260  37.4946810  16.9173740  11.1977730  36.3101830  16.7002980
   2.3363730  42.0886990  22.4983270   2.8542400  41.2855250  22.4440160
   1.8847750  42.0266130  23.3400100   7.2233230  43.3553270  17.7710570
   7.5648930  44.0995500  17.2753890   6.3945940  43.6684390  18.1335400
   3.0221390  39.5132600  32.2948520   2.7221530  39.6589780  31.3976340
   3.7932630  38.9537890  32.2021910   8.3649840  44.3101600  30.2903650
   8.3794380  43.3782560  30.0722560   7.6574940  44.3961360  30.9293420
  13.4986910  38.4941420  16.5602260  13.4150630  38.9255640  15.7098700
  14.2181100  38.9539770  16.9929080  14.5761050  40.9508940  29.6372230
  13.8509240  41.5437720  29.4401620  15.1036510  40.9432480  28.8385600
  14.5274160  45.3483680  19.2884390  13.8850320  44.6939300  19.5628110
  14.1404820  45.7538770  18.5125060  10.1060640  42.6769110  23.1356080
  10.4584460  42.0797240  22.4757450   9.2222970  42.3513340  23.3064330
   6.1923920  43.4366800  20.5426490   6.8795050  43.9836010  20.9234080
   5.4056340  43.9807530  20.5776100   5.4951130  40.4412830  20.1551850
   5.9513910  41.2518080  20.3812040   5.1439340  40.1235970  20.9870340
   7.7983740  45.9519170  27.3844150   8.4425960  46.1578550  28.0617570
   8.1613180  45.1907570  26.9315000   9.0715820  43.9551520  26.1021600
   9.7138050  43.2544680  26.2153770   9.5965170  44.7349960  25.9218490
  12.9171540  44.2400140  15.8260740  12.6909120  43.5230580  16.4185380
  12.5267740  43.9912580  14.9882490  10.8453440  44.7546420  29.3057660
  11.1809680  45.3413110  29.9835580   9.9253780  44.6239130  29.5355450
  12.4987790  42.1572080  17.4874900  12.2109490  42.6184770  18.2752780
  13.2939960  41.6969850  17.7559120   6.6742020  44.8037750  32.4745720
   6.3538890  44.0846990  33.0191410   6.0000380  45.4792820  32.5481780
   4.7156190  45.6498200  17.4178870   4.7066290  46.3827890  16.8023380
   3.7954550  45.4029780  17.5105830   9.8895620  35.0363910  27.8382520
  10.2576440  34.2159120  28.1662090   9.0293820  35.0965800  28.2538170
  13.2557650  33.9920850  18.6470080  12.6270810  34.0966520  17.9328310
  12.7609570  34.2117630  19.4363960   7.7015790  45.7126440  16.0804060
   7.8027770  45.5090430  15.1506040   6.8017530  45.4584720  16.2851840
   5.2241680  36.2706800  20.0627960   4.5157830  36.7393140  20.5041570
   5.5086160  35.6128810  20.6973150   6.8497610  37.6903500  28.0620490
   7.3482860  38.1649320  28.7272340   6.9920560  36.7667020  28.2690520
   9.2557110  32.9957460  21.5023750   9.1324890  33.0143590  20.5533260
  10.2041670  33.0436400  21.6222150   6.3433900  48.2312760  20.7751730
   6.5975400  48.1934150  19.8531100   5.3946380  48.1046090  20.7679980
   3.4276700  34.5791880  17.4378670   4.2767230  35.0162030  17.3718860
   3.0607970  34.8912140  18.2650730  14.0564470  33.9071460  28.9048880
  13.5538070  34.6476860  29.2442690  14.8721130  34.2955460  28.5885670
  12.3486480  39.1504640  22.3510240  11.4076620  39.1654870  22.5257930
  12.6630550  38.3640600  22.7970540   2.3268120  40.8324240  15.9114200
   3.0931390  40.7205600  16.4739630   2.4042810  40.1362210  15.2590970
  14.3512060  46.3213490  24.0264500  14.4759480  47.1444660  24.4988310
  15.2177620  46.1104220  23.6788650   1.8229590  48.4144700  23.6981630
   2.5592070  47.8660160  23.9690200   2.2070510  49.2800710  23.5587620
   4.9331900  47.5875010  15.5207200   5.7260510  47.8763840  15.0688990
   4.4136250  47.1567180  14.8419680   9.6652500  43.7070640  32.8342620
   9.0590660  43.7302240  32.0938370   9.3606610  42.9753680  33.3709870
  11.0952870  47.4350930  31.4452030  12.0474620  47.3508950  31.3952270
  10.9481090  48.0992640  32.1185820  13.9862070  46.8145140  16.9443940
  13.7003580  46.4010280  16.1298120  13.7881620  47.7432850  16.8244460
   5.4509300  42.8078420  15.3849550   5.3459940  42.1930770  16.1110930
   5.2833520  42.2844310  14.6012560   5.6023620  41.4935220  31.3638780
   4.8369290  42.0620220  31.2793450   5.7839580  41.2011430  30.4707010
   8.6912030  41.8698450  15.9891540   8.1422130  42.3167750  16.6334280
   9.3131290  41.3647700  16.5129210  12.7446970  43.2240550  31.9213800
  13.4856440  43.5616310  31.4181260  11.9819650  43.3932610  31.3683570
   4.3587150  40.8289370  17.8856840   4.7803570  40.6629240  18.7288230
   4.4837990  40.0189600  17.3911980   2.5214570  36.8085920  30.6927820
   1.9911030  36.3176870  30.0651160   3.1902640  37.2370120  30.1585750
   6.8714790  39.8526980  15.1333940   7.3920450  39.1376000  14.7675090
   7.5183190  40.4912850  15.4334450  11.4192630  41.2755380  30.4569010
  11.8333650  41.4300460  31.3059430  10.4843630  41.4010600  30.6194790
  11.8914800  38.6151540  32.4608160  12.4735570  37.8603860  32.3728640
  12.0676570  39.1458980  31.6839640   3.0086870  33.7748290  30.7725110
   2.9143740  33.1569040  30.0475980   2.4284260  34.5014580  30.5455020
   5.7748310  32.3321530  27.8052500   5.3265610  32.3545790  26.9598050
   5.1413510  31.9340550  28.4022800   6.1807860  41.2275860  28.4264940
   6.5995970  42.0708590  28.2541180   5.2616490  41.3647900  28.1971720
   8.5171760  38.9592040  29.8102780   8.6367970  38.3633180  30.5497620
   9.3765760  38.9961730  29.3904080  10.8559660  39.5129230  28.3865290
  10.3294880  40.0371850  27.7830430  11.1991000  40.1456620  29.0175020
   3.2546050  36.9022600  14.8315000   3.0535110  36.0389960  15.1928340
   3.0838100  36.8155960  13.8936600   4.0315280  47.5328870  29.5422670
   3.4936370  48.2574930  29.2231370   4.2849240  47.0559210  28.7520010
   5.2840530  35.5013390  31.0678600   5.8740220  35.1929240  31.7556420
   4.4660770  35.0293140  31.2238500  10.1033960  35.1179200  31.3011620
   9.4149480  34.4560740  31.2361610  10.8239980  34.6717470  31.7460080
  10.7334360  31.7130830  17.3601880  11.0136650  30.8698730  17.7161300
   9.9600090  31.9453940  17.8740630   2.0528850  34.0023220  14.8192880
   2.3554750  34.0090650  13.9112030   2.7923440  33.6521080  15.3160540
   6.8877490  48.7680080  29.8009320   6.8136190  49.6715220  30.1081690
   5.9856330  48.4491980  29.7731390   5.2713780  32.9457840  15.8049080
   4.9235780  32.2681830  15.2251530   5.4726550  32.4847350  16.6192470
   7.4362820  47.9338590  17.4235680   8.3313610  48.2723560  17.4454440
   7.4680450  47.2118000  16.7959960   2.8866700  44.4263680  20.7644910
   2.5862240  44.3028650  21.6648820   2.7804190  43.5672270  20.3560640
  14.4157170  46.4642260  30.1301880  13.8159160  46.5234820  29.3865800
  14.5451070  45.5247240  30.2598730  15.6558620  44.2060080  15.4671590
  14.8251580  44.2736730  15.9378820  15.8330450  45.0964200  15.1638450
  15.1115080  40.9507560  17.9705790  15.8733990  41.5204210  18.0765480
  15.1269450  40.3834760  18.7414100  16.1175050  41.8057660  22.8147720
  16.4883880  41.0224980  22.4083690  16.7576980  42.4946760  22.6365020
  13.1008810  43.1894240  28.2278040  12.2868650  43.6191400  28.4903830
  13.5083010  43.8012650  27.6147090  15.1634250  41.2441930  15.1278310
  15.4383090  42.1520810  14.9997530  14.9744990  41.1804460  16.0640300
  11.5609860  34.2686780  16.4231940  11.9794740  34.0817760  15.5828600
  11.2545920  33.4165830  16.7334870  15.0599590  39.1810920  20.1207740
  14.6843190  38.4138850  19.6889030  14.3302710  39.5633620  20.6082670
  14.4499210  38.3282440  29.7547260  14.2185300  38.0995190  28.8545210
  14.7103760  39.2481990  29.7092150  12.8887280  33.5538870  32.5326960
  13.7657460  33.5622270  32.9160960  12.9008120  32.8169710  31.9219310
  14.3350550  37.4068410  23.4214980  14.8588030  36.9131060  22.7905150
  14.9209970  37.5418770  24.1662550  14.5140270  37.4908280  26.9434530
  13.5642980  37.4571820  27.0579520  14.6953280  38.4008390  26.7084300
  13.8250520  36.6641760  19.3607390  14.3209640  36.4312630  20.1456270
  13.6266590  35.8253600  18.9445030  15.2537680  35.3002710  21.8945070
  15.1436960  35.1458750  22.8327340  16.0145270  34.7723650  21.6520480
  13.6003400  31.2396840  28.3528070  14.2375620  31.8530980  28.7187260
  13.7478290  31.2757500  27.4077300  16.1427950  33.1310630  15.1351210
  17.0677260  32.9991810  14.9269500  16.1203740  33.2103450  16.0887660
  16.2166440  33.9021290  17.7607920  15.4217940  33.8366410  18.2900830
  16.4209720  34.8371930  17.7493270  13.1584860  47.9412840  21.7546310
  13.7543930  47.6197410  21.0780730  13.4163010  47.4684660  22.5459580
   4.7653460  45.9290340  27.5046660   4.5244820  46.1964900  26.6177180
   5.7056100  46.0996070  27.5597520   6.9707880  32.3923030  31.2603170
   6.9096770  32.9844860  32.0098580   7.9108260  32.2848990  31.1153430
   9.6082440  32.0493090  30.8995460  10.2222850  32.3672380  30.2376540
  10.1532000  31.5641680  31.5191320  16.0257620  47.9484720  28.3057300
  15.5315900  48.3453590  27.5884430  15.4170910  47.3233930  28.6994580
  10.3490480  30.6125230  27.2264750   9.4750320  30.9460340  27.0237680
  10.2401230  30.1398410  28.0516620  11.2562460  32.8196100  28.6106470
  10.9275820  32.0047860  28.2308200  12.2044760  32.7765910  28.4872160
  13.7097070  48.5908140  25.5844040  13.2500040  49.3423950  25.2102060
  13.0809530  47.8714610  25.5258840   4.1392790  46.8996380  24.7592170
   4.6557810  46.2883740  24.2340430   4.7890170  47.4025160  25.2503180
   6.8788290  47.7904870  25.5861150   7.1666100  47.5359170  24.7094160
   7.3911510  47.2382230  26.1766720   8.0965300  31.5295070  26.1657660
   7.3137090  32.0040570  26.4454420   7.8028230  30.6249900  26.0570840
  12.6486370  32.2318170  24.2106750  13.0894460  32.1763270  23.3628350
  12.3793960  33.1476180  24.2816930  14.5124940  31.8633410  22.2215570
  14.4513340  30.9194630  22.0746590  15.2916970  31.9713500  22.7669030
   5.9819520  33.9481820  21.6773690   5.1694030  33.5738710  21.3369570
   6.4861160  33.1926900  21.9794880  10.4844500  30.6124270  22.9156760
  11.0873870  31.1844480  23.3905280   9.7437490  31.1763710  22.6930660
  13.6279100  31.0145830  18.1897040  13.8229730  31.9129280  18.4564470
  12.8408970  30.7832910  18.6829990   1.8130860  32.3606600  17.2273350
   2.3423620  31.5736400  17.0981300   2.4459180  33.0397790  17.4608880
   4.0068700  32.0981740  20.2818740   3.3771440  31.3969050  20.4488870
   3.4673840  32.8585870  20.0651900   6.9460650  48.7120970  32.9529350
   7.8727960  48.4765240  32.9965310   6.9311080  49.5392970  32.4715380
  15.1805710  48.2546540  19.9503600  15.3557900  47.5684280  19.3064520
  14.4827280  48.7793590  19.5580270   4.1324260  31.3765720  32.7171230
   3.8508530  31.8799320  31.9532050   4.5143960  30.5787470  32.3513360
   3.0233360  48.6441380  17.5038910   3.7552180  48.3600660  16.9562800
   3.2827030  48.4054660  18.3938290   2.1848150  44.7606110  17.5085240
   1.5557030  45.2291210  18.0571070   2.2995980  43.9155330  17.9431430
  10.7339720  30.7919300  33.2951700  10.6205170  31.1113910  34.1903220
  11.5509460  31.1931810  32.9988980  13.5138210  47.9390830  32.7770390
  14.3063530  47.4440060  32.5696350  13.8071360  48.6180970  33.3846000
   9.6397870  38.8111770   3.6586440   9.5591920  37.8966380   3.3878150
   9.2262290  39.3078840   2.9526150   7.7715910  40.5890790   5.5395710
   6.9958010  40.1091230   5.8294280   8.4228840  39.9096440   5.3651870
  11.7923340  44.9950980   4.3194840  11.3304870  44.2238220   4.6482010
  12.6048890  45.0217050   4.8247290   1.7683000  44.9350690   6.6129490
   2.0711040  44.0448430   6.4339710   2.5126590  45.4920910   6.3851740
   8.0186650  47.2808990   3.9398830   7.3998090  47.7366490   3.3693270
   8.8738430  47.4360450   3.5388530   7.2124900  43.2647980   5.5465870
   7.1433180  42.3237920   5.3855000   7.9744760  43.3549390   6.1188440
   8.2430070  36.0718360   5.7734800   8.6194890  35.1990240   5.6608470
   8.1449580  36.4077060   4.8825240  12.0254190  33.5668800   2.7063140
  12.8463810  33.0765370   2.7488620  12.0588270  34.1566460   3.4594980
   4.2142810  37.4130360   5.5677420   4.7221030  37.9111330   6.2082440
   4.7456050  36.6365560   5.3916780  16.3153740  35.5835550   9.2706770
  15.6105910  35.9717260   8.7521880  16.5811660  36.2785840   9.8727700
   2.4978910  32.0528920   9.8340840   2.4997350  32.5701310   9.0286740
   1.6683220  31.5759100   9.8110770   3.7481760  41.6924100   8.0114340
   3.4151140  42.3193020   8.6535410   3.9248440  42.2185980   7.2316010
  12.2615670  35.5069180   5.4790680  11.5571240  35.7954070   6.0593790
  12.6227830  36.3169290   5.1190240   2.1794240  33.7638880   7.8411290
   2.5211050  34.6080930   7.5465160   1.2410050  33.9122620   7.9576630
   2.9600860  43.6604900   9.8263520   3.5774860  44.3355980   9.5447970
   2.0993980  44.0692880   9.7351020  13.8778450  45.1244310   7.7418160
  13.1941970  45.7943420   7.7334830  14.4172740  45.3224960   6.9763020
  15.3302590  34.9523970   5.8699890  14.3827500  34.9862950   6.0015320
  15.6552580  35.7662920   6.2549250   5.8622130  31.2521150   4.1655880
   6.1697110  30.6968040   3.4491380   4.9322830  31.3865610   3.9828870
  11.4137190  46.9688440   6.4563340  11.4264350  46.5650730   5.5885600
  10.8612410  47.7435730   6.3524770  10.8122630  41.8718280   7.7845950
  11.2291420  41.6578390   6.9499410  11.5362450  42.1291070   8.3554570
  14.7584730  40.2705500   7.8762190  13.9303360  40.3398590   7.4012320
  15.3535210  40.8559810   7.4078020  11.7226740  37.0574820   8.8217060
  11.3097920  37.8828530   9.0757050  10.9902690  36.4719860   8.6293420
   3.8559530  39.8434720   3.6835730   3.4516530  39.1311970   3.1881630
   3.9422650  39.4987960   4.5723770   4.3241230  43.5302280   5.8474940
   4.0269520  42.9247750   5.1682720   5.2741050  43.5679590   5.7364300
   2.5688150  36.6177930   7.4634770   3.1202740  36.7273270   6.6888020
   3.0831660  36.9915530   8.1790000  12.4126840  47.1034150   9.5098040
  11.9357400  47.9106340   9.3170650  11.7288630  46.4512480   9.6624250
   3.4159660  43.2683970  12.4982740   2.5188190  43.4923940  12.7456140
   3.4412530  43.3918910  11.5494140   2.2430880  40.1397290  11.0740110
   2.1038650  41.0120090  11.4427510   1.3612240  39.7970100  10.9288050
   8.5660260  45.0573160   2.3805240   9.0056170  45.7997490   1.9660630
   8.5047150  45.2999730   3.3044200   4.0411230  46.0818990  13.2825260
   4.0126660  46.4861940  12.4153690   3.8776200  45.1529350  13.1196860
  15.9926050  46.8646090  14.5789430  16.4685770  47.3428980  15.2578510
  16.6133210  46.7963580  13.8534930  15.3959300  44.0558940  11.7389440
  15.5222360  43.8170820  10.8206620  15.4380680  43.2243480  12.2111520
   9.2576040  47.7586940  10.3084250   9.7720710  47.6694950  11.1106680
   8.4145120  48.1046640  10.6012160  10.5006500  47.1792550   2.3714740
  10.9563450  46.3981930   2.6853360  10.8399020  47.8899370   2.9155920
  15.2483310  36.1091400  12.7039180  14.6327580  36.6171070  12.1754640
  14.9279730  35.2089730  12.6465120   3.0227820  32.0814770   4.5666050
   2.5795970  32.8624310   4.2350570   3.5812810  32.4044660   5.2736990
   7.3097630  34.9483290  10.1701370   6.8477000  35.1566310  10.9821310
   6.9075740  34.1342640   9.8672040  12.3102140  36.1692240  11.2998030
  11.4595730  35.8697990  11.6207100  12.1503930  36.4134250  10.3881850
   9.4051850  37.6693990  13.3996820   9.7305260  36.8357740  13.0599050
  10.1932180  38.1922510  13.5475150   5.0603720  32.6262100   6.4255650
   5.3576050  33.5324930   6.3447670   5.6089280  32.1380880   5.8115220
   2.8142040  37.2048340   2.2947300   2.5882960  36.9885510   3.1993920
   2.0334570  37.6376800   1.9493270   5.2541250  38.1033920  12.9607570
   5.1584850  37.1628650  12.8107970   6.0973230  38.3248990  12.5655640
   8.6504670  35.8475250   2.9241230   9.0434240  36.1647450   2.1109920
   9.0121520  34.9687130   3.0385750   6.9596840  34.5982560  14.1838090
   6.2695160  34.4054760  14.8184180   7.7029140  34.8817200  14.7162390
   9.2359810  38.4381000   7.0192010   8.5040930  38.9467810   7.3682110
   8.8384150  37.6210980   6.7180790   5.6737200  35.1135200   5.4244500
   5.6773260  34.6725150   4.5749040   6.5688320  35.4352530   5.5316320
   9.6985720  33.8914680   6.4314950   9.7158460  34.3423330   7.2756800
   9.4501300  32.9920320   6.6448390  13.1256470  31.3046860  12.2701330
  13.4502240  30.5736520  12.7959310  13.1612980  30.9860500  11.3682320
   5.9745170  39.1736980   7.1709910   6.3415300  38.6995550   7.9171250
   5.7850230  40.0478550   7.5118250   3.7644540  38.2145620   9.4894120
   3.4601610  39.0937600   9.7144480   4.7191000  38.2745410   9.5251560
  13.0514310  41.4171970   5.8787360  13.7713430  41.9127260   5.4883470
  12.8496130  40.7389860   5.2341230   8.4333110  41.4881030  11.7656360
   8.3670420  40.5676700  11.5113950   7.8038250  41.5856470  12.4801000
   2.3363730  42.0886990   3.7239780   2.8542400  41.2855250   3.6696670
   1.8847750  42.0266130   4.5656610   3.0221390  39.5132600  13.5205030
   2.7221530  39.6589780  12.6232850   3.7932630  38.9537890  13.4278420
   8.3649840  44.3101600  11.5160160   8.3794380  43.3782560  11.2979070
   7.6574940  44.3961360  12.1549930  14.5761050  40.9508940  10.8628740
  13.8509240  41.5437720  10.6658130  15.1036510  40.9432480  10.0642110
  10.1060640  42.6769110   4.3612590  10.4584460  42.0797240   3.7013960
   9.2222970  42.3513340   4.5320840   6.1923920  43.4366800   1.7683000
   6.8795050  43.9836010   2.1490590   5.4056340  43.9807530   1.8032610
   7.7983740  45.9519170   8.6100660   8.4425960  46.1578550   9.2874080
   8.1613180  45.1907570   8.1571510   9.0715820  43.9551520   7.3278110
   9.7138050  43.2544680   7.4410280   9.5965170  44.7349960   7.1475000
  10.8453440  44.7546420  10.5314170  11.1809680  45.3413110  11.2092090
   9.9253780  44.6239130  10.7611960   6.6742020  44.8037750  13.7002230
   6.3538890  44.0846990  14.2447920   6.0000380  45.4792820  13.7738290
   9.8895620  35.0363910   9.0639030  10.2576440  34.2159120   9.3918600
   9.0293820  35.0965800   9.4794680   6.8497610  37.6903500   9.2877000
   7.3482860  38.1649320   9.9528850   6.9920560  36.7667020   9.4947030
   9.2557110  32.9957460   2.7280260   9.1324890  33.0143590   1.7789770
  10.2041670  33.0436400   2.8478660  14.0564470  33.9071460  10.1305390
  13.5538070  34.6476860  10.4699200  14.8721130  34.2955460   9.8142180
  12.3486480  39.1504640   3.5766750  11.4076620  39.1654870   3.7514440
  12.6630550  38.3640600   4.0227050  14.3512060  46.3213490   5.2521010
  14.4759480  47.1444660   5.7244820  15.2177620  46.1104220   4.9045160
   1.8229590  48.4144700   4.9238140   2.5592070  47.8660160   5.1946710
   2.2070510  49.2800710   4.7844130   9.6652500  43.7070640  14.0599130
   9.0590660  43.7302240  13.3194880   9.3606610  42.9753680  14.5966380
  11.0952870  47.4350930  12.6708540  12.0474620  47.3508950  12.6208780
  10.9481090  48.0992640  13.3442330   5.6023620  41.4935220  12.5895290
   4.8369290  42.0620220  12.5049960   5.7839580  41.2011430  11.6963520
  12.7446970  43.2240550  13.1470310  13.4856440  43.5616310  12.6437770
  11.9819650  43.3932610  12.5940080   2.5214570  36.8085920  11.9184330
   1.9911030  36.3176870  11.2907670   3.1902640  37.2370120  11.3842260
  11.4192630  41.2755380  11.6825520  11.8333650  41.4300460  12.5315940
  10.4843630  41.4010600  11.8451300  11.8914800  38.6151540  13.6864670
  12.4735570  37.8603860  13.5985150  12.0676570  39.1458980  12.9096150
   3.0086870  33.7748290  11.9981620   2.9143740  33.1569040  11.2732490
   2.4284260  34.5014580  11.7711530   5.7748310  32.3321530   9.0309010
   5.3265610  32.3545790   8.1854560   5.1413510  31.9340550   9.6279310
   6.1807860  41.2275860   9.6521450   6.5995970  42.0708590   9.4797690
   5.2616490  41.3647900   9.4228230   8.5171760  38.9592040  11.0359290
   8.6367970  38.3633180  11.7754130   9.3765760  38.9961730  10.6160590
  10.8559660  39.5129230   9.6121800  10.3294880  40.0371850   9.0086940
  11.1991000  40.1456620  10.2431530   4.0315280  47.5328870  10.7679180
   3.4936370  48.2574930  10.4487880   4.2849240  47.0559210   9.9776520
   5.2840530  35.5013390  12.2935110   5.8740220  35.1929240  12.9812930
   4.4660770  35.0293140  12.4495010  10.1033960  35.1179200  12.5268130
   9.4149480  34.4560740  12.4618120  10.8239980  34.6717470  12.9716590
   6.8877490  48.7680080  11.0265830   6.8136190  49.6715220  11.3338200
   5.9856330  48.4491980  10.9987900  14.4157170  46.4642260  11.3558390
  13.8159160  46.5234820  10.6122310  14.5451070  45.5247240  11.4855240
  16.1175050  41.8057660   4.0404230  16.4883880  41.0224980   3.6340200
  16.7576980  42.4946760   3.8621530  13.1008810  43.1894240   9.4534550
  12.2868650  43.6191400   9.7160340  13.5083010  43.8012650   8.8403600
  14.4499210  38.3282440  10.9803770  14.2185300  38.0995190  10.0801720
  14.7103760  39.2481990  10.9348660  12.8887280  33.5538870  13.7583470
  13.7657460  33.5622270  14.1417470  12.9008120  32.8169710  13.1475820
  14.3350550  37.4068410   4.6471490  14.8588030  36.9131060   4.0161660
  14.9209970  37.5418770   5.3919060  14.5140270  37.4908280   8.1691040
  13.5642980  37.4571820   8.2836030  14.6953280  38.4008390   7.9340810
  15.2537680  35.3002710   3.1201580  15.1436960  35.1458750   4.0583850
  16.0145270  34.7723650   2.8776990  13.6003400  31.2396840   9.5784580
  14.2375620  31.8530980   9.9443770  13.7478290  31.2757500   8.6333810
  13.1584860  47.9412840   2.9802820  13.7543930  47.6197410   2.3037240
  13.4163010  47.4684660   3.7716090   4.7653460  45.9290340   8.7303170
   4.5244820  46.1964900   7.8433690   5.7056100  46.0996070   8.7854030
   6.9707880  32.3923030  12.4859680   6.9096770  32.9844860  13.2355090
   7.9108260  32.2848990  12.3409940   9.6082440  32.0493090  12.1251970
  10.2222850  32.3672380  11.4633050  10.1532000  31.5641680  12.7447830
  16.0257620  47.9484720   9.5313810  15.5315900  48.3453590   8.8140940
  15.4170910  47.3233930   9.9251090  10.3490480  30.6125230   8.4521260
   9.4750320  30.9460340   8.2494190  10.2401230  30.1398410   9.2773130
  11.2562460  32.8196100   9.8362980  10.9275820  32.0047860   9.4564710
  12.2044760  32.7765910   9.7128670  13.7097070  48.5908140   6.8100550
  13.2500040  49.3423950   6.4358570  13.0809530  47.8714610   6.7515350
   4.1392790  46.8996380   5.9848680   4.6557810  46.2883740   5.4596940
   4.7890170  47.4025160   6.4759690   6.8788290  47.7904870   6.8117660
   7.1666100  47.5359170   5.9350670   7.3911510  47.2382230   7.4023230
   8.0965300  31.5295070   7.3914170   7.3137090  32.0040570   7.6710930
   7.8028230  30.6249900   7.2827350  12.6486370  32.2318170   5.4363260
  13.0894460  32.1763270   4.5884860  12.3793960  33.1476180   5.5073440
  14.5124940  31.8633410   3.4472080  14.4513340  30.9194630   3.3003100
  15.2916970  31.9713500   3.9925540   5.9819520  33.9481820   2.9030200
   5.1694030  33.5738710   2.5626080   6.4861160  33.1926900   3.2051390
  10.4844500  30.6124270   4.1413270  11.0873870  31.1844480   4.6161790
   9.7437490  31.1763710   3.9187170   6.9460650  48.7120970  14.1785860
   7.8727960  48.4765240  14.2221820   6.9311080  49.5392970  13.6971890
   4.1324260  31.3765720  13.9427740   3.8508530  31.8799320  13.1788560
   4.5143960  30.5787470  13.5769870  10.7339720  30.7919300  14.5208210
  10.6205170  31.1113910  15.4159730  11.5509460  31.1931810  14.2245490
  13.5138210  47.9390830  14.0026900  14.3063530  47.4440060  13.7952860
  13.8071360  48.6180970  14.6102510   9.6397870  20.0368280  97.5303890
   9.5591920  19.1222890  97.2595600   9.2262290  20.5335350  96.8243600
   7.7715910  21.8147300  99.4113160   6.9958010  21.3347740  99.7011730
   8.4228840  21.1352950  99.2369320  11.7923340  26.2207490  98.1912290
  11.3304870  25.4494730  98.5199460  12.6048890  26.2473560  98.6964740
   1.7683000  26.1607200 100.4846940   2.0711040  25.2704940 100.3057160
   2.5126590  26.7177420 100.2569190   8.0186650  28.5065500  97.8116280
   7.3998090  28.9623000  97.2410720   8.8738430  28.6616960  97.4105980
   7.2124900  24.4904490  99.4183320   7.1433180  23.5494430  99.2572450
   7.9744760  24.5805900  99.9905890   8.2430070  17.2974870  99.6452250
   8.6194890  16.4246750  99.5325920   8.1449580  17.6333570  98.7542690
   2.3735080  15.6700500  95.1069690   2.4801830  16.5704230  95.4138450
   1.4627440  15.6218470  94.8164340  12.0254190  14.7925310  96.5780590
  12.8463810  14.3021880  96.6206070  12.0588270  15.3822970  97.3312430
   4.2142810  18.6386870  99.4394870   4.7221030  19.1367840 100.0799890
   4.7456050  17.8622070  99.2634230   8.8850000  23.3904740  95.2048190
   8.2667270  23.8554190  94.6410910   9.3973250  24.0832220  95.6217700
   3.7481760  22.9180610 101.8831790   3.4151140  23.5449530 102.5252860
   3.9248440  23.4442490 101.1033460  12.2615670  16.7325690  99.3508130
  11.5571240  17.0210580  99.9311240  12.6227830  17.5425800  98.9907690
   2.1794240  14.9895390 101.7128740   2.5211050  15.8337440 101.4182610
   1.2410050  15.1379130 101.8294080  13.8778450  26.3500820 101.6135610
  13.1941970  27.0199930 101.6052280  14.4172740  26.5481470 100.8480470
  15.3302590  16.1780480  99.7417340  14.3827500  16.2119460  99.8732770
  15.6552580  16.9919430 100.1266700   5.8622130  12.4777660  98.0373330
   6.1697110  11.9224550  97.3208830   4.9322830  12.6122120  97.8546320
  11.4137190  28.1944950 100.3280790  11.4264350  27.7907240  99.4603050
  10.8612410  28.9692240 100.2242220  12.7082610  24.9161170  95.4170960
  12.5978940  23.9735500  95.5420380  12.7050860  25.2776810  96.3033720
  10.8122630  23.0974790 101.6563400  11.2291420  22.8834900 100.8216860
  11.5362450  23.3547580 102.2272020   8.2502890  20.5426490  94.7733450
   7.3232170  20.4763870  95.0021920   8.4027710  21.4806620  94.6588690
   8.2371970  16.8143490  91.7700610   7.2975640  16.9757450  91.8553070
   8.5555230  17.5329170  91.2236600  14.7584730  21.4962010 101.7479640
  13.9303360  21.5655100 101.2729770  15.3535210  22.0816320 101.2795470
  12.2800180  22.1046790  95.2768700  11.6612600  21.7666340  94.6295000
  12.2624630  21.4606550  95.9847890   3.8559530  21.0691230  97.5553180
   3.4516530  20.3568480  97.0599080   3.9422650  20.7244470  98.4441220
   4.3241230  24.7558790  99.7192390   4.0269520  24.1504260  99.0400170
   5.2741050  24.7936100  99.6081750   2.5688150  17.8434440 101.3352220
   3.1202740  17.9529780 100.5605470   3.0831660  18.2172040 102.0507450
  10.4564880  21.3433600  92.2841450  10.8958160  20.5056030  92.1379270
  11.1693300  21.9763000  92.3705590   8.5660260  26.2829670  96.2522690
   9.0056170  27.0254000  95.8378080   8.5047150  26.5256240  97.1761650
  14.0382020  12.5976410  90.5982490  13.7254680  12.6903240  91.4981560
  14.7994490  13.1757440  90.5479920  11.2330440  29.2698790  93.6085700
  11.0731580  28.9801730  94.5067530  11.0677150  28.4938920  93.0730930
   3.7118820  29.0497320  95.3857320   3.5361300  28.1332860  95.1725120
   2.8574560  29.4084610  95.6255120  10.9356570  26.7786350  92.1683700
  10.2421730  26.7763640  91.5085980  11.6779430  26.3545670  91.7377870
  10.5006500  28.4049060  96.2432190  10.9563450  27.6238440  96.5570810
  10.8399020  29.1155880  96.7873370   3.0227820  13.3071280  98.4383500
   2.5795970  14.0880820  98.1068020   3.5812810  13.6301170  99.1454440
   6.1386640  12.9281980  93.3189330   5.5140820  12.9241850  94.0442640
   6.0516760  12.0612940  92.9225300   5.0603720  13.8518610 100.2973100
   5.3576050  14.7581440 100.2165120   5.6089280  13.3637390  99.6832670
   2.8142040  18.4304850  96.1664750   2.5882960  18.2142020  97.0711370
   2.0334570  18.8633310  95.8210720  10.0439800  18.4368220  94.7655400
   9.4448690  19.1604020  94.5819020  10.5919410  18.3745000  93.9831850
   8.6504670  17.0731760  96.7958680   9.0434240  17.3903960  95.9827370
   9.0121520  16.1943640  96.9103200   9.2359810  19.6637510 100.8909460
   8.5040930  20.1724320 101.2399560   8.8384150  18.8467490 100.5898240
   5.6737200  16.3391710  99.2961950   5.6773260  15.8981660  98.4466490
   6.5688320  16.6609040  99.4033770   5.7357350  17.3403790  92.2868710
   5.8570170  17.2990270  93.2354530   5.3505860  18.2027940  92.1315440
   9.6985720  15.1171190 100.3032400   9.7158460  15.5679840 101.1474250
   9.4501300  14.2176830 100.5165840   4.7478850  19.6504930  91.6852010
   4.1795750  19.2023180  91.0587920   5.4567850  20.0097710  91.1517160
   5.9745170  20.3993490 101.0427360   6.3415300  19.9252060 101.7888700
   5.7850230  21.2735060 101.3835700   2.2926330  23.6463120  93.9578420
   1.5188590  23.1060740  93.7977140   3.0220960  23.1269730  93.6196180
  13.0514310  22.6428480  99.7504810  13.7713430  23.1383770  99.3600920
  12.8496130  21.9646370  99.1058680   8.5124250  14.0366440  93.8934200
   7.6988860  13.5379610  93.8179510   8.3186200  14.8764690  93.4770550
  11.2272640  18.4086090  92.1896360  12.1152260  18.7203320  92.0147700
  11.1977730  17.5358340  91.7976940   2.3363730  23.3143500  97.5957230
   2.8542400  22.5111760  97.5414120   1.8847750  23.2522640  98.4374060
   7.2233230  24.5809780  92.8684530   7.5648930  25.3252010  92.3727850
   6.3945940  24.8940900  93.2309360  13.4986910  19.7197930  91.6576220
  13.4150630  20.1512150  90.8072660  14.2181100  20.1796280  92.0903040
  14.5274160  26.5740190  94.3858350  13.8850320  25.9195810  94.6602070
  14.1404820  26.9795280  93.6099020  10.1060640  23.9025620  98.2330040
  10.4584460  23.3053750  97.5731410   9.2222970  23.5769850  98.4038290
   6.1923920  24.6623310  95.6400450   6.8795050  25.2092520  96.0208040
   5.4056340  25.2064040  95.6750060   5.4951130  21.6669340  95.2525810
   5.9513910  22.4774590  95.4786000   5.1439340  21.3492480  96.0844300
   9.0715820  25.1808030 101.1995560   9.7138050  24.4801190 101.3127730
   9.5965170  25.9606470 101.0192450  12.9171540  25.4656650  90.9234700
  12.6909120  24.7487090  91.5159340  12.5267740  25.2169090  90.0856450
  12.4987790  23.3828590  92.5848860  12.2109490  23.8441280  93.3726740
  13.2939960  22.9226360  92.8533080   4.7156190  26.8754710  92.5152830
   4.7066290  27.6084400  91.8997340   3.7954550  26.6286290  92.6079790
  13.2557650  15.2177360  93.7444040  12.6270810  15.3223030  93.0302270
  12.7609570  15.4374140  94.5337920   7.7015790  26.9382950  91.1778020
   7.8027770  26.7346940  90.2480000   6.8017530  26.6841230  91.3825800
   5.2241680  17.4963310  95.1601920   4.5157830  17.9649650  95.6015530
   5.5086160  16.8385320  95.7947110   9.2557110  14.2213970  96.5997710
   9.1324890  14.2400100  95.6507220  10.2041670  14.2692910  96.7196110
   6.3433900  29.4569270  95.8725690   6.5975400  29.4190660  94.9505060
   5.3946380  29.3302600  95.8653940   3.4276700  15.8048390  92.5352630
   4.2767230  16.2418540  92.4692820   3.0607970  16.1168650  93.3624690
  12.3486480  20.3761150  97.4484200  11.4076620  20.3911380  97.6231890
  12.6630550  19.5897110  97.8944500   2.3268120  22.0580750  91.0088160
   3.0931390  21.9462110  91.5713590   2.4042810  21.3618720  90.3564930
  14.3512060  27.5470000  99.1238460  14.4759480  28.3701170  99.5962270
  15.2177620  27.3360730  98.7762610   1.8229590  29.6401210  98.7955590
   2.5592070  29.0916670  99.0664160   2.2070510  30.5057220  98.6561580
   4.9331900  28.8131520  90.6181160   5.7260510  29.1020350  90.1662950
   4.4136250  28.3823690  89.9393640  13.9862070  28.0401650  92.0417900
  13.7003580  27.6266790  91.2272080  13.7881620  28.9689360  91.9218420
   5.4509300  24.0334930  90.4823510   5.3459940  23.4187280  91.2084890
   5.2833520  23.5100820  89.6986520   8.6912030  23.0954960  91.0865500
   8.1422130  23.5424260  91.7308240   9.3131290  22.5904210  91.6103170
   4.3587150  22.0545880  92.9830800   4.7803570  21.8885750  93.8262190
   4.4837990  21.2446110  92.4885940   6.8714790  21.0783490  90.2307900
   7.3920450  20.3632510  89.8649050   7.5183190  21.7169360  90.5308410
   3.2546050  18.1279110  89.9288960   3.0535110  17.2646470  90.2902300
   3.0838100  18.0412470  88.9910560  10.7334360  12.9387340  92.4575840
  11.0136650  12.0955240  92.8135260   9.9600090  13.1710450  92.9714590
   2.0528850  15.2279730  89.9166840   2.3554750  15.2347160  89.0085990
   2.7923440  14.8777590  90.4134500   5.2713780  14.1714350  90.9023040
   4.9235780  13.4938340  90.3225490   5.4726550  13.7103860  91.7166430
   7.4362820  29.1595100  92.5209640   8.3313610  29.4980070  92.5428400
   7.4680450  28.4374510  91.8933920   2.8866700  25.6520190  95.8618870
   2.5862240  25.5285160  96.7622780   2.7804190  24.7928780  95.4534600
  15.6558620  25.4316590  90.5645550  14.8251580  25.4993240  91.0352780
  15.8330450  26.3220710  90.2612410  15.1115080  22.1764070  93.0679750
  15.8733990  22.7460720  93.1739440  15.1269450  21.6091270  93.8388060
  16.1175050  23.0314170  97.9121680  16.4883880  22.2481490  97.5057650
  16.7576980  23.7203270  97.7338980  15.1634250  22.4698440  90.2252270
  15.4383090  23.3777320  90.0971490  14.9744990  22.4060970  91.1614260
  11.5609860  15.4943290  91.5205900  11.9794740  15.3074270  90.6802560
  11.2545920  14.6422340  91.8308830  15.0599590  20.4067430  95.2181700
  14.6843190  19.6395360  94.7862990  14.3302710  20.7890130  95.7056630
  14.3350550  18.6324920  98.5188940  14.8588030  18.1387570  97.8879110
  14.9209970  18.7675280  99.2636510  14.5140270  18.7164790 102.0408490
  13.5642980  18.6828330 102.1553480  14.6953280  19.6264900 101.8058260
  13.8250520  17.8898270  94.4581350  14.3209640  17.6569140  95.2430230
  13.6266590  17.0510110  94.0418990  15.2537680  16.5259220  96.9919030
  15.1436960  16.3715260  97.9301300  16.0145270  15.9980160  96.7494440
  16.1427950  14.3567140  90.2325170  17.0677260  14.2248320  90.0243460
  16.1203740  14.4359960  91.1861620  16.2166440  15.1277800  92.8581880
  15.4217940  15.0622920  93.3874790  16.4209720  16.0628440  92.8467230
  13.1584860  29.1669350  96.8520270  13.7543930  28.8453920  96.1754690
  13.4163010  28.6941170  97.6433540   4.7653460  27.1546850 102.6020620
   4.5244820  27.4221410 101.7151140   5.7056100  27.3252580 102.6571480
  13.7097070  29.8164650 100.6818000  13.2500040  30.5680460 100.3076020
  13.0809530  29.0971120 100.6232800   4.1392790  28.1252890  99.8566130
   4.6557810  27.5140250  99.3314390   4.7890170  28.6281670 100.3477140
   6.8788290  29.0161380 100.6835110   7.1666100  28.7615680  99.8068120
   7.3911510  28.4638740 101.2740680   8.0965300  12.7551580 101.2631620
   7.3137090  13.2297080 101.5428380   7.8028230  11.8506410 101.1544800
  12.6486370  13.4574680  99.3080710  13.0894460  13.4019780  98.4602310
  12.3793960  14.3732690  99.3790890  14.5124940  13.0889920  97.3189530
  14.4513340  12.1451140  97.1720550  15.2916970  13.1970010  97.8642990
   5.9819520  15.1738330  96.7747650   5.1694030  14.7995220  96.4343530
   6.4861160  14.4183410  97.0768840  10.4844500  11.8380780  98.0130720
  11.0873870  12.4100990  98.4879240   9.7437490  12.4020220  97.7904620
  13.6279100  12.2402340  93.2871000  13.8229730  13.1385790  93.5538430
  12.8408970  12.0089420  93.7803950   1.8130860  13.5863110  92.3247310
   2.3423620  12.7992910  92.1955260   2.4459180  14.2654300  92.5582840
   4.0068700  13.3238250  95.3792700   3.3771440  12.6225560  95.5462830
   3.4673840  14.0842380  95.1625860  15.1805710  29.4803050  95.0477560
  15.3557900  28.7940790  94.4038480  14.4827280  30.0050100  94.6554230
   3.0233360  29.8697890  92.6012870   3.7552180  29.5857170  92.0536760
   3.2827030  29.6311170  93.4912250   2.1848150  25.9862620  92.6059200
   1.5557030  26.4547720  93.1545030   2.2995980  25.1411840  93.0405390
   9.6397870  20.0368280  78.7560400   9.5591920  19.1222890  78.4852110
   9.2262290  20.5335350  78.0500110   7.7715910  21.8147300  80.6369670
   6.9958010  21.3347740  80.9268240   8.4228840  21.1352950  80.4625830
  11.7923340  26.2207490  79.4168800  11.3304870  25.4494730  79.7455970
  12.6048890  26.2473560  79.9221250   1.7683000  26.1607200  81.7103450
   2.0711040  25.2704940  81.5313670   2.5126590  26.7177420  81.4825700
   8.0186650  28.5065500  79.0372790   7.3998090  28.9623000  78.4667230
   8.8738430  28.6616960  78.6362490   7.2124900  24.4904490  80.6439830
   7.1433180  23.5494430  80.4828960   7.9744760  24.5805900  81.2162400
   8.2430070  17.2974870  80.8708760   8.6194890  16.4246750  80.7582430
   8.1449580  17.6333570  79.9799200   2.3735080  15.6700500  76.3326200
   2.4801830  16.5704230  76.6394960   1.4627440  15.6218470  76.0420850
  12.0254190  14.7925310  77.8037100  12.8463810  14.3021880  77.8462580
  12.0588270  15.3822970  78.5568940   4.2142810  18.6386870  80.6651380
   4.7221030  19.1367840  81.3056400   4.7456050  17.8622070  80.4890740
  16.3153740  16.8092060  84.3680730  15.6105910  17.1973770  83.8495840
  16.5811660  17.5042350  84.9701660   2.4978910  13.2785430  84.9314800
   2.4997350  13.7957820  84.1260700   1.6683220  12.8015610  84.9084730
   8.8850000  23.3904740  76.4304700   8.2667270  23.8554190  75.8667420
   9.3973250  24.0832220  76.8474210   3.7481760  22.9180610  83.1088300
   3.4151140  23.5449530  83.7509370   3.9248440  23.4442490  82.3289970
  12.2615670  16.7325690  80.5764640  11.5571240  17.0210580  81.1567750
  12.6227830  17.5425800  80.2164200   2.1794240  14.9895390  82.9385250
   2.5211050  15.8337440  82.6439120   1.2410050  15.1379130  83.0550590
   2.9600860  24.8861410  84.9237480   3.5774860  25.5612490  84.6421930
   2.0993980  25.2949390  84.8324980  13.8778450  26.3500820  82.8392120
  13.1941970  27.0199930  82.8308790  14.4172740  26.5481470  82.0736980
  15.3302590  16.1780480  80.9673850  14.3827500  16.2119460  81.0989280
  15.6552580  16.9919430  81.3523210   5.8622130  12.4777660  79.2629840
   6.1697110  11.9224550  78.5465340   4.9322830  12.6122120  79.0802830
  11.4137190  28.1944950  81.5537300  11.4264350  27.7907240  80.6859560
  10.8612410  28.9692240  81.4498730  12.7082610  24.9161170  76.6427470
  12.5978940  23.9735500  76.7676890  12.7050860  25.2776810  77.5290230
  10.8122630  23.0974790  82.8819910  11.2291420  22.8834900  82.0473370
  11.5362450  23.3547580  83.4528530   8.2502890  20.5426490  75.9989960
   7.3232170  20.4763870  76.2278430   8.4027710  21.4806620  75.8845200
   8.2371970  16.8143490  72.9957120   7.2975640  16.9757450  73.0809580
   8.5555230  17.5329170  72.4493110  14.7584730  21.4962010  82.9736150
  13.9303360  21.5655100  82.4986280  15.3535210  22.0816320  82.5051980
  12.2800180  22.1046790  76.5025210  11.6612600  21.7666340  75.8551510
  12.2624630  21.4606550  77.2104400  11.7226740  18.2831330  83.9191020
  11.3097920  19.1085040  84.1731010  10.9902690  17.6976370  83.7267380
   3.8559530  21.0691230  78.7809690   3.4516530  20.3568480  78.2855590
   3.9422650  20.7244470  79.6697730   4.3241230  24.7558790  80.9448900
   4.0269520  24.1504260  80.2656680   5.2741050  24.7936100  80.8338260
   2.5688150  17.8434440  82.5608730   3.1202740  17.9529780  81.7861980
   3.0831660  18.2172040  83.2763960  12.4126840  28.3290660  84.6072000
  11.9357400  29.1362850  84.4144610  11.7288630  27.6768990  84.7598210
   3.4159660  24.4940480  87.5956700   2.5188190  24.7180450  87.8430100
   3.4412530  24.6175420  86.6468100  10.4564880  21.3433600  73.5097960
  10.8958160  20.5056030  73.3635780  11.1693300  21.9763000  73.5962100
   2.2430880  21.3653800  86.1714070   2.1038650  22.2376600  86.5401470
   1.3612240  21.0226610  86.0262010   8.5660260  26.2829670  77.4779200
   9.0056170  27.0254000  77.0634590   8.5047150  26.5256240  78.4018160
   4.0411230  27.3075500  88.3799220   4.0126660  27.7118450  87.5127650
   3.8776200  26.3785860  88.2170820  14.0382020  12.5976410  71.8239000
  13.7254680  12.6903240  72.7238070  14.7994490  13.1757440  71.7736430
  15.9926050  28.0902600  89.6763390  16.4685770  28.5685490  90.3552470
  16.6133210  28.0220090  88.9508890  15.3959300  25.2815450  86.8363400
  15.5222360  25.0427330  85.9180580  15.4380680  24.4499990  87.3085480
   9.2576040  28.9843450  85.4058210   9.7720710  28.8951460  86.2080640
   8.4145120  29.3303150  85.6986120  11.2330440  29.2698790  74.8342210
  11.0731580  28.9801730  75.7324040  11.0677150  28.4938920  74.2987440
   3.7118820  29.0497320  76.6113830   3.5361300  28.1332860  76.3981630
   2.8574560  29.4084610  76.8511630  10.9356570  26.7786350  73.3940210
  10.2421730  26.7763640  72.7342490  11.6779430  26.3545670  72.9634380
  10.5006500  28.4049060  77.4688700  10.9563450  27.6238440  77.7827320
  10.8399020  29.1155880  78.0129880  15.2483310  17.3347910  87.8013140
  14.6327580  17.8427580  87.2728600  14.9279730  16.4346240  87.7439080
   3.0227820  13.3071280  79.6640010   2.5795970  14.0880820  79.3324530
   3.5812810  13.6301170  80.3710950   7.3097630  16.1739800  85.2675330
   6.8477000  16.3822820  86.0795270   6.9075740  15.3599150  84.9646000
  12.3102140  17.3948750  86.3971990  11.4595730  17.0954500  86.7181060
  12.1503930  17.6390760  85.4855810   9.4051850  18.8950500  88.4970780
   9.7305260  18.0614250  88.1573010  10.1932180  19.4179020  88.6449110
   6.1386640  12.9281980  74.5445840   5.5140820  12.9241850  75.2699150
   6.0516760  12.0612940  74.1481810   5.0603720  13.8518610  81.5229610
   5.3576050  14.7581440  81.4421630   5.6089280  13.3637390  80.9089180
   2.8142040  18.4304850  77.3921260   2.5882960  18.2142020  78.2967880
   2.0334570  18.8633310  77.0467230  10.0439800  18.4368220  75.9911910
   9.4448690  19.1604020  75.8075530  10.5919410  18.3745000  75.2088360
   5.2541250  19.3290430  88.0581530   5.1584850  18.3885160  87.9081930
   6.0973230  19.5505500  87.6629600   8.6504670  17.0731760  78.0215190
   9.0434240  17.3903960  77.2083880   9.0121520  16.1943640  78.1359710
   6.9596840  15.8239070  89.2812050   6.2695160  15.6311270  89.9158140
   7.7029140  16.1073710  89.8136350   9.2359810  19.6637510  82.1165970
   8.5040930  20.1724320  82.4656070   8.8384150  18.8467490  81.8154750
   5.6737200  16.3391710  80.5218460   5.6773260  15.8981660  79.6723000
   6.5688320  16.6609040  80.6290280   5.7357350  17.3403790  73.5125220
   5.8570170  17.2990270  74.4611040   5.3505860  18.2027940  73.3571950
   9.6985720  15.1171190  81.5288910   9.7158460  15.5679840  82.3730760
   9.4501300  14.2176830  81.7422350   4.7478850  19.6504930  72.9108520
   4.1795750  19.2023180  72.2844430   5.4567850  20.0097710  72.3773670
  13.1256470  12.5303370  87.3675290  13.4502240  11.7993030  87.8933270
  13.1612980  12.2117010  86.4656280   5.9745170  20.3993490  82.2683870
   6.3415300  19.9252060  83.0145210   5.7850230  21.2735060  82.6092210
   3.7644540  19.4402130  84.5868080   3.4601610  20.3194110  84.8118440
   4.7191000  19.5001920  84.6225520   2.2926330  23.6463120  75.1834930
   1.5188590  23.1060740  75.0233650   3.0220960  23.1269730  74.8452690
  13.0514310  22.6428480  80.9761320  13.7713430  23.1383770  80.5857430
  12.8496130  21.9646370  80.3315190   8.5124250  14.0366440  75.1190710
   7.6988860  13.5379610  75.0436020   8.3186200  14.8764690  74.7027060
   8.4333110  22.7137540  86.8630320   8.3670420  21.7933210  86.6087910
   7.8038250  22.8112980  87.5774960  11.2272640  18.4086090  73.4152870
  12.1152260  18.7203320  73.2404210  11.1977730  17.5358340  73.0233450
   2.3363730  23.3143500  78.8213740   2.8542400  22.5111760  78.7670630
   1.8847750  23.2522640  79.6630570   7.2233230  24.5809780  74.0941040
   7.5648930  25.3252010  73.5984360   6.3945940  24.8940900  74.4565870
   3.0221390  20.7389110  88.6178990   2.7221530  20.8846290  87.7206810
   3.7932630  20.1794400  88.5252380   8.3649840  25.5358110  86.6134120
   8.3794380  24.6039070  86.3953030   7.6574940  25.6217870  87.2523890
  13.4986910  19.7197930  72.8832730  13.4150630  20.1512150  72.0329170
  14.2181100  20.1796280  73.3159550  14.5761050  22.1765450  85.9602700
  13.8509240  22.7694230  85.7632090  15.1036510  22.1688990  85.1616070
  14.5274160  26.5740190  75.6114860  13.8850320  25.9195810  75.8858580
  14.1404820  26.9795280  74.8355530  10.1060640  23.9025620  79.4586550
  10.4584460  23.3053750  78.7987920   9.2222970  23.5769850  79.6294800
   6.1923920  24.6623310  76.8656960   6.8795050  25.2092520  77.2464550
   5.4056340  25.2064040  76.9006570   5.4951130  21.6669340  76.4782320
   5.9513910  22.4774590  76.7042510   5.1439340  21.3492480  77.3100810
   7.7983740  27.1775680  83.7074620   8.4425960  27.3835060  84.3848040
   8.1613180  26.4164080  83.2545470   9.0715820  25.1808030  82.4252070
   9.7138050  24.4801190  82.5384240   9.5965170  25.9606470  82.2448960
  12.9171540  25.4656650  72.1491210  12.6909120  24.7487090  72.7415850
  12.5267740  25.2169090  71.3112960  10.8453440  25.9802930  85.6288130
  11.1809680  26.5669620  86.3066050   9.9253780  25.8495640  85.8585920
  12.4987790  23.3828590  73.8105370  12.2109490  23.8441280  74.5983250
  13.2939960  22.9226360  74.0789590   6.6742020  26.0294260  88.7976190
   6.3538890  25.3103500  89.3421880   6.0000380  26.7049330  88.8712250
   4.7156190  26.8754710  73.7409340   4.7066290  27.6084400  73.1253850
   3.7954550  26.6286290  73.8336300   9.8895620  16.2620420  84.1612990
  10.2576440  15.4415630  84.4892560   9.0293820  16.3222310  84.5768640
  13.2557650  15.2177360  74.9700550  12.6270810  15.3223030  74.2558780
  12.7609570  15.4374140  75.7594430   7.7015790  26.9382950  72.4034530
   7.8027770  26.7346940  71.4736510   6.8017530  26.6841230  72.6082310
   5.2241680  17.4963310  76.3858430   4.5157830  17.9649650  76.8272040
   5.5086160  16.8385320  77.0203620   6.8497610  18.9160010  84.3850960
   7.3482860  19.3905830  85.0502810   6.9920560  17.9923530  84.5920990
   9.2557110  14.2213970  77.8254220   9.1324890  14.2400100  76.8763730
  10.2041670  14.2692910  77.9452620   6.3433900  29.4569270  77.0982200
   6.5975400  29.4190660  76.1761570   5.3946380  29.3302600  77.0910450
   3.4276700  15.8048390  73.7609140   4.2767230  16.2418540  73.6949330
   3.0607970  16.1168650  74.5881200  14.0564470  15.1327970  85.2279350
  13.5538070  15.8733370  85.5673160  14.8721130  15.5211970  84.9116140
  12.3486480  20.3761150  78.6740710  11.4076620  20.3911380  78.8488400
  12.6630550  19.5897110  79.1201010   2.3268120  22.0580750  72.2344670
   3.0931390  21.9462110  72.7970100   2.4042810  21.3618720  71.5821440
  14.3512060  27.5470000  80.3494970  14.4759480  28.3701170  80.8218780
  15.2177620  27.3360730  80.0019120   1.8229590  29.6401210  80.0212100
   2.5592070  29.0916670  80.2920670   2.2070510  30.5057220  79.8818090
   4.9331900  28.8131520  71.8437670   5.7260510  29.1020350  71.3919460
   4.4136250  28.3823690  71.1650150   9.6652500  24.9327150  89.1573090
   9.0590660  24.9558750  88.4168840   9.3606610  24.2010190  89.6940340
  11.0952870  28.6607440  87.7682500  12.0474620  28.5765460  87.7182740
  10.9481090  29.3249150  88.4416290  13.9862070  28.0401650  73.2674410
  13.7003580  27.6266790  72.4528590  13.7881620  28.9689360  73.1474930
   5.4509300  24.0334930  71.7080020   5.3459940  23.4187280  72.4341400
   5.2833520  23.5100820  70.9243030   5.6023620  22.7191730  87.6869250
   4.8369290  23.2876730  87.6023920   5.7839580  22.4267940  86.7937480
   8.6912030  23.0954960  72.3122010   8.1422130  23.5424260  72.9564750
   9.3131290  22.5904210  72.8359680  12.7446970  24.4497060  88.2444270
  13.4856440  24.7872820  87.7411730  11.9819650  24.6189120  87.6914040
   4.3587150  22.0545880  74.2087310   4.7803570  21.8885750  75.0518700
   4.4837990  21.2446110  73.7142450   2.5214570  18.0342430  87.0158290
   1.9911030  17.5433380  86.3881630   3.1902640  18.4626630  86.4816220
   6.8714790  21.0783490  71.4564410   7.3920450  20.3632510  71.0905560
   7.5183190  21.7169360  71.7564920  11.4192630  22.5011890  86.7799480
  11.8333650  22.6556970  87.6289900  10.4843630  22.6267110  86.9425260
  11.8914800  19.8408050  88.7838630  12.4735570  19.0860370  88.6959110
  12.0676570  20.3715490  88.0070110   3.0086870  15.0004800  87.0955580
   2.9143740  14.3825550  86.3706450   2.4284260  15.7271090  86.8685490
   5.7748310  13.5578040  84.1282970   5.3265610  13.5802300  83.2828520
   5.1413510  13.1597060  84.7253270   6.1807860  22.4532370  84.7495410
   6.5995970  23.2965100  84.5771650   5.2616490  22.5904410  84.5202190
   8.5171760  20.1848550  86.1333250   8.6367970  19.5889690  86.8728090
   9.3765760  20.2218240  85.7134550  10.8559660  20.7385740  84.7095760
  10.3294880  21.2628360  84.1060900  11.1991000  21.3713130  85.3405490
   3.2546050  18.1279110  71.1545470   3.0535110  17.2646470  71.5158810
   3.0838100  18.0412470  70.2167070   4.0315280  28.7585380  85.8653140
   3.4936370  29.4831440  85.5461840   4.2849240  28.2815720  85.0750480
   5.2840530  16.7269900  87.3909070   5.8740220  16.4185750  88.0786890
   4.4660770  16.2549650  87.5468970  10.1033960  16.3435710  87.6242090
   9.4149480  15.6817250  87.5592080  10.8239980  15.8973980  88.0690550
  10.7334360  12.9387340  73.6832350  11.0136650  12.0955240  74.0391770
   9.9600090  13.1710450  74.1971100   2.0528850  15.2279730  71.1423350
   2.3554750  15.2347160  70.2342500   2.7923440  14.8777590  71.6391010
   6.8877490  29.9936590  86.1239790   6.8136190  30.8971730  86.4312160
   5.9856330  29.6748490  86.0961860   5.2713780  14.1714350  72.1279550
   4.9235780  13.4938340  71.5482000   5.4726550  13.7103860  72.9422940
   7.4362820  29.1595100  73.7466150   8.3313610  29.4980070  73.7684910
   7.4680450  28.4374510  73.1190430   2.8866700  25.6520190  77.0875380
   2.5862240  25.5285160  77.9879290   2.7804190  24.7928780  76.6791110
  14.4157170  27.6898770  86.4532350  13.8159160  27.7491330  85.7096270
  14.5451070  26.7503750  86.5829200  15.6558620  25.4316590  71.7902060
  14.8251580  25.4993240  72.2609290  15.8330450  26.3220710  71.4868920
  15.1115080  22.1764070  74.2936260  15.8733990  22.7460720  74.3995950
  15.1269450  21.6091270  75.0644570  16.1175050  23.0314170  79.1378190
  16.4883880  22.2481490  78.7314160  16.7576980  23.7203270  78.9595490
  13.1008810  24.4150750  84.5508510  12.2868650  24.8447910  84.8134300
  13.5083010  25.0269160  83.9377560  15.1634250  22.4698440  71.4508780
  15.4383090  23.3777320  71.3228000  14.9744990  22.4060970  72.3870770
  11.5609860  15.4943290  72.7462410  11.9794740  15.3074270  71.9059070
  11.2545920  14.6422340  73.0565340  15.0599590  20.4067430  76.4438210
  14.6843190  19.6395360  76.0119500  14.3302710  20.7890130  76.9313140
  14.4499210  19.5538950  86.0777730  14.2185300  19.3251700  85.1775680
  14.7103760  20.4738500  86.0322620  12.8887280  14.7795380  88.8557430
  13.7657460  14.7878780  89.2391430  12.9008120  14.0426220  88.2449780
  14.3350550  18.6324920  79.7445450  14.8588030  18.1387570  79.1135620
  14.9209970  18.7675280  80.4893020  14.5140270  18.7164790  83.2665000
  13.5642980  18.6828330  83.3809990  14.6953280  19.6264900  83.0314770
  13.8250520  17.8898270  75.6837860  14.3209640  17.6569140  76.4686740
  13.6266590  17.0510110  75.2675500  15.2537680  16.5259220  78.2175540
  15.1436960  16.3715260  79.1557810  16.0145270  15.9980160  77.9750950
  13.6003400  12.4653350  84.6758540  14.2375620  13.0787490  85.0417730
  13.7478290  12.5014010  83.7307770  16.1427950  14.3567140  71.4581680
  17.0677260  14.2248320  71.2499970  16.1203740  14.4359960  72.4118130
  16.2166440  15.1277800  74.0838390  15.4217940  15.0622920  74.6131300
  16.4209720  16.0628440  74.0723740  13.1584860  29.1669350  78.0776780
  13.7543930  28.8453920  77.4011200  13.4163010  28.6941170  78.8690050
   4.7653460  27.1546850  83.8277130   4.5244820  27.4221410  82.9407650
   5.7056100  27.3252580  83.8827990   6.9707880  13.6179540  87.5833640
   6.9096770  14.2101370  88.3329050   7.9108260  13.5105500  87.4383900
   9.6082440  13.2749600  87.2225930  10.2222850  13.5928890  86.5607010
  10.1532000  12.7898190  87.8421790  16.0257620  29.1741230  84.6287770
  15.5315900  29.5710100  83.9114900  15.4170910  28.5490440  85.0225050
  10.3490480  11.8381740  83.5495220   9.4750320  12.1716850  83.3468150
  10.2401230  11.3654920  84.3747090  11.2562460  14.0452610  84.9336940
  10.9275820  13.2304370  84.5538670  12.2044760  14.0022420  84.8102630
  13.7097070  29.8164650  81.9074510  13.2500040  30.5680460  81.5332530
  13.0809530  29.0971120  81.8489310   4.1392790  28.1252890  81.0822640
   4.6557810  27.5140250  80.5570900   4.7890170  28.6281670  81.5733650
   6.8788290  29.0161380  81.9091620   7.1666100  28.7615680  81.0324630
   7.3911510  28.4638740  82.4997190   8.0965300  12.7551580  82.4888130
   7.3137090  13.2297080  82.7684890   7.8028230  11.8506410  82.3801310
  12.6486370  13.4574680  80.5337220  13.0894460  13.4019780  79.6858820
  12.3793960  14.3732690  80.6047400  14.5124940  13.0889920  78.5446040
  14.4513340  12.1451140  78.3977060  15.2916970  13.1970010  79.0899500
   5.9819520  15.1738330  78.0004160   5.1694030  14.7995220  77.6600040
   6.4861160  14.4183410  78.3025350  10.4844500  11.8380780  79.2387230
  11.0873870  12.4100990  79.7135750   9.7437490  12.4020220  79.0161130
  13.6279100  12.2402340  74.5127510  13.8229730  13.1385790  74.7794940
  12.8408970  12.0089420  75.0060460   1.8130860  13.5863110  73.5503820
   2.3423620  12.7992910  73.4211770   2.4459180  14.2654300  73.7839350
   4.0068700  13.3238250  76.6049210   3.3771440  12.6225560  76.7719340
   3.4673840  14.0842380  76.3882370   6.9460650  29.9377480  89.2759820
   7.8727960  29.7021750  89.3195780   6.9311080  30.7649480  88.7945850
  15.1805710  29.4803050  76.2734070  15.3557900  28.7940790  75.6294990
  14.4827280  30.0050100  75.8810740   4.1324260  12.6022230  89.0401700
   3.8508530  13.1055830  88.2762520   4.5143960  11.8043980  88.6743830
   3.0233360  29.8697890  73.8269380   3.7552180  29.5857170  73.2793270
   3.2827030  29.6311170  74.7168760   2.1848150  25.9862620  73.8315710
   1.5557030  26.4547720  74.3801540   2.2995980  25.1411840  74.2661900
  10.7339720  12.0175810  89.6182170  10.6205170  12.3370420  90.5133690
  11.5509460  12.4188320  89.3219450  13.5138210  29.1647340  89.1000860
  14.3063530  28.6696570  88.8926820  13.8071360  29.8437480  89.7076470
   9.6397870  20.0368280  59.9816910   9.5591920  19.1222890  59.7108620
   9.2262290  20.5335350  59.2756620   7.7715910  21.8147300  61.8626180
   6.9958010  21.3347740  62.1524750   8.4228840  21.1352950  61.6882340
  11.7923340  26.2207490  60.6425310  11.3304870  25.4494730  60.9712480
  12.6048890  26.2473560  61.1477760   1.7683000  26.1607200  62.9359960
   2.0711040  25.2704940  62.7570180   2.5126590  26.7177420  62.7082210
   8.0186650  28.5065500  60.2629300   7.3998090  28.9623000  59.6923740
   8.8738430  28.6616960  59.8619000   7.2124900  24.4904490  61.8696340
   7.1433180  23.5494430  61.7085470   7.9744760  24.5805900  62.4418910
   8.2430070  17.2974870  62.0965270   8.6194890  16.4246750  61.9838940
   8.1449580  17.6333570  61.2055710   2.3735080  15.6700500  57.5582710
   2.4801830  16.5704230  57.8651470   1.4627440  15.6218470  57.2677360
  12.0254190  14.7925310  59.0293610  12.8463810  14.3021880  59.0719090
  12.0588270  15.3822970  59.7825450   4.2142810  18.6386870  61.8907890
   4.7221030  19.1367840  62.5312910   4.7456050  17.8622070  61.7147250
  16.3153740  16.8092060  65.5937240  15.6105910  17.1973770  65.0752350
  16.5811660  17.5042350  66.1958170   2.4978910  13.2785430  66.1571310
   2.4997350  13.7957820  65.3517210   1.6683220  12.8015610  66.1341240
   8.8850000  23.3904740  57.6561210   8.2667270  23.8554190  57.0923930
   9.3973250  24.0832220  58.0730720   3.7481760  22.9180610  64.3344810
   3.4151140  23.5449530  64.9765880   3.9248440  23.4442490  63.5546480
  12.2615670  16.7325690  61.8021150  11.5571240  17.0210580  62.3824260
  12.6227830  17.5425800  61.4420710   2.1794240  14.9895390  64.1641760
   2.5211050  15.8337440  63.8695630   1.2410050  15.1379130  64.2807100
   2.9600860  24.8861410  66.1493990   3.5774860  25.5612490  65.8678440
   2.0993980  25.2949390  66.0581490  13.8778450  26.3500820  64.0648630
  13.1941970  27.0199930  64.0565300  14.4172740  26.5481470  63.2993490
  15.3302590  16.1780480  62.1930360  14.3827500  16.2119460  62.3245790
  15.6552580  16.9919430  62.5779720   5.8622130  12.4777660  60.4886350
   6.1697110  11.9224550  59.7721850   4.9322830  12.6122120  60.3059340
  11.4137190  28.1944950  62.7793810  11.4264350  27.7907240  61.9116070
  10.8612410  28.9692240  62.6755240  12.7082610  24.9161170  57.8683980
  12.5978940  23.9735500  57.9933400  12.7050860  25.2776810  58.7546740
  10.8122630  23.0974790  64.1076420  11.2291420  22.8834900  63.2729880
  11.5362450  23.3547580  64.6785040   8.2502890  20.5426490  57.2246470
   7.3232170  20.4763870  57.4534940   8.4027710  21.4806620  57.1101710
   8.2371970  16.8143490  54.2213630   7.2975640  16.9757450  54.3066090
   8.5555230  17.5329170  53.6749620  14.7584730  21.4962010  64.1992660
  13.9303360  21.5655100  63.7242790  15.3535210  22.0816320  63.7308490
  12.2800180  22.1046790  57.7281720  11.6612600  21.7666340  57.0808020
  12.2624630  21.4606550  58.4360910  11.7226740  18.2831330  65.1447530
  11.3097920  19.1085040  65.3987520  10.9902690  17.6976370  64.9523890
   3.8559530  21.0691230  60.0066200   3.4516530  20.3568480  59.5112100
   3.9422650  20.7244470  60.8954240   4.3241230  24.7558790  62.1705410
   4.0269520  24.1504260  61.4913190   5.2741050  24.7936100  62.0594770
   2.5688150  17.8434440  63.7865240   3.1202740  17.9529780  63.0118490
   3.0831660  18.2172040  64.5020470  12.4126840  28.3290660  65.8328510
  11.9357400  29.1362850  65.6401120  11.7288630  27.6768990  65.9854720
   3.4159660  24.4940480  68.8213210   2.5188190  24.7180450  69.0686610
   3.4412530  24.6175420  67.8724610  10.4564880  21.3433600  54.7354470
  10.8958160  20.5056030  54.5892290  11.1693300  21.9763000  54.8218610
   2.2430880  21.3653800  67.3970580   2.1038650  22.2376600  67.7657980
   1.3612240  21.0226610  67.2518520   8.5660260  26.2829670  58.7035710
   9.0056170  27.0254000  58.2891100   8.5047150  26.5256240  59.6274670
   4.0411230  27.3075500  69.6055730   4.0126660  27.7118450  68.7384160
   3.8776200  26.3785860  69.4427330  14.0382020  12.5976410  53.0495510
  13.7254680  12.6903240  53.9494580  14.7994490  13.1757440  52.9992940
  15.9926050  28.0902600  70.9019900  16.4685770  28.5685490  71.5808980
  16.6133210  28.0220090  70.1765400  15.3959300  25.2815450  68.0619910
  15.5222360  25.0427330  67.1437090  15.4380680  24.4499990  68.5341990
   9.2576040  28.9843450  66.6314720   9.7720710  28.8951460  67.4337150
   8.4145120  29.3303150  66.9242630  11.2330440  29.2698790  56.0598720
  11.0731580  28.9801730  56.9580550  11.0677150  28.4938920  55.5243950
   3.7118820  29.0497320  57.8370340   3.5361300  28.1332860  57.6238140
   2.8574560  29.4084610  58.0768140  10.9356570  26.7786350  54.6196720
  10.2421730  26.7763640  53.9599000  11.6779430  26.3545670  54.1890890
  10.5006500  28.4049060  58.6945210  10.9563450  27.6238440  59.0083830
  10.8399020  29.1155880  59.2386390  15.2483310  17.3347910  69.0269650
  14.6327580  17.8427580  68.4985110  14.9279730  16.4346240  68.9695590
   3.0227820  13.3071280  60.8896520   2.5795970  14.0880820  60.5581040
   3.5812810  13.6301170  61.5967460   7.3097630  16.1739800  66.4931840
   6.8477000  16.3822820  67.3051780   6.9075740  15.3599150  66.1902510
  12.3102140  17.3948750  67.6228500  11.4595730  17.0954500  67.9437570
  12.1503930  17.6390760  66.7112320   9.4051850  18.8950500  69.7227290
   9.7305260  18.0614250  69.3829520  10.1932180  19.4179020  69.8705620
   6.1386640  12.9281980  55.7702350   5.5140820  12.9241850  56.4955660
   6.0516760  12.0612940  55.3738320   5.0603720  13.8518610  62.7486120
   5.3576050  14.7581440  62.6678140   5.6089280  13.3637390  62.1345690
   2.8142040  18.4304850  58.6177770   2.5882960  18.2142020  59.5224390
   2.0334570  18.8633310  58.2723740  10.0439800  18.4368220  57.2168420
   9.4448690  19.1604020  57.0332040  10.5919410  18.3745000  56.4344870
   5.2541250  19.3290430  69.2838040   5.1584850  18.3885160  69.1338440
   6.0973230  19.5505500  68.8886110   8.6504670  17.0731760  59.2471700
   9.0434240  17.3903960  58.4340390   9.0121520  16.1943640  59.3616220
   6.9596840  15.8239070  70.5068560   6.2695160  15.6311270  71.1414650
   7.7029140  16.1073710  71.0392860   9.2359810  19.6637510  63.3422480
   8.5040930  20.1724320  63.6912580   8.8384150  18.8467490  63.0411260
   5.6737200  16.3391710  61.7474970   5.6773260  15.8981660  60.8979510
   6.5688320  16.6609040  61.8546790   5.7357350  17.3403790  54.7381730
   5.8570170  17.2990270  55.6867550   5.3505860  18.2027940  54.5828460
   9.6985720  15.1171190  62.7545420   9.7158460  15.5679840  63.5987270
   9.4501300  14.2176830  62.9678860   4.7478850  19.6504930  54.1365030
   4.1795750  19.2023180  53.5100940   5.4567850  20.0097710  53.6030180
  13.1256470  12.5303370  68.5931800  13.4502240  11.7993030  69.1189780
  13.1612980  12.2117010  67.6912790   5.9745170  20.3993490  63.4940380
   6.3415300  19.9252060  64.2401720   5.7850230  21.2735060  63.8348720
   3.7644540  19.4402130  65.8124590   3.4601610  20.3194110  66.0374950
   4.7191000  19.5001920  65.8482030   2.2926330  23.6463120  56.4091440
   1.5188590  23.1060740  56.2490160   3.0220960  23.1269730  56.0709200
  13.0514310  22.6428480  62.2017830  13.7713430  23.1383770  61.8113940
  12.8496130  21.9646370  61.5571700   8.5124250  14.0366440  56.3447220
   7.6988860  13.5379610  56.2692530   8.3186200  14.8764690  55.9283570
   8.4333110  22.7137540  68.0886830   8.3670420  21.7933210  67.8344420
   7.8038250  22.8112980  68.8031470  11.2272640  18.4086090  54.6409380
  12.1152260  18.7203320  54.4660720  11.1977730  17.5358340  54.2489960
   2.3363730  23.3143500  60.0470250   2.8542400  22.5111760  59.9927140
   1.8847750  23.2522640  60.8887080   7.2233230  24.5809780  55.3197550
   7.5648930  25.3252010  54.8240870   6.3945940  24.8940900  55.6822380
   3.0221390  20.7389110  69.8435500   2.7221530  20.8846290  68.9463320
   3.7932630  20.1794400  69.7508890   8.3649840  25.5358110  67.8390630
   8.3794380  24.6039070  67.6209540   7.6574940  25.6217870  68.4780400
  13.4986910  19.7197930  54.1089240  13.4150630  20.1512150  53.2585680
  14.2181100  20.1796280  54.5416060  14.5761050  22.1765450  67.1859210
  13.8509240  22.7694230  66.9888600  15.1036510  22.1688990  66.3872580
  14.5274160  26.5740190  56.8371370  13.8850320  25.9195810  57.1115090
  14.1404820  26.9795280  56.0612040  10.1060640  23.9025620  60.6843060
  10.4584460  23.3053750  60.0244430   9.2222970  23.5769850  60.8551310
   6.1923920  24.6623310  58.0913470   6.8795050  25.2092520  58.4721060
   5.4056340  25.2064040  58.1263080   5.4951130  21.6669340  57.7038830
   5.9513910  22.4774590  57.9299020   5.1439340  21.3492480  58.5357320
   7.7983740  27.1775680  64.9331130   8.4425960  27.3835060  65.6104550
   8.1613180  26.4164080  64.4801980   9.0715820  25.1808030  63.6508580
   9.7138050  24.4801190  63.7640750   9.5965170  25.9606470  63.4705470
  12.9171540  25.4656650  53.3747720  12.6909120  24.7487090  53.9672360
  12.5267740  25.2169090  52.5369470  10.8453440  25.9802930  66.8544640
  11.1809680  26.5669620  67.5322560   9.9253780  25.8495640  67.0842430
  12.4987790  23.3828590  55.0361880  12.2109490  23.8441280  55.8239760
  13.2939960  22.9226360  55.3046100   6.6742020  26.0294260  70.0232700
   6.3538890  25.3103500  70.5678390   6.0000380  26.7049330  70.0968760
   4.7156190  26.8754710  54.9665850   4.7066290  27.6084400  54.3510360
   3.7954550  26.6286290  55.0592810   9.8895620  16.2620420  65.3869500
  10.2576440  15.4415630  65.7149070   9.0293820  16.3222310  65.8025150
  13.2557650  15.2177360  56.1957060  12.6270810  15.3223030  55.4815290
  12.7609570  15.4374140  56.9850940   7.7015790  26.9382950  53.6291040
   7.8027770  26.7346940  52.6993020   6.8017530  26.6841230  53.8338820
   5.2241680  17.4963310  57.6114940   4.5157830  17.9649650  58.0528550
   5.5086160  16.8385320  58.2460130   6.8497610  18.9160010  65.6107470
   7.3482860  19.3905830  66.2759320   6.9920560  17.9923530  65.8177500
   9.2557110  14.2213970  59.0510730   9.1324890  14.2400100  58.1020240
  10.2041670  14.2692910  59.1709130   6.3433900  29.4569270  58.3238710
   6.5975400  29.4190660  57.4018080   5.3946380  29.3302600  58.3166960
   3.4276700  15.8048390  54.9865650   4.2767230  16.2418540  54.9205840
   3.0607970  16.1168650  55.8137710  14.0564470  15.1327970  66.4535860
  13.5538070  15.8733370  66.7929670  14.8721130  15.5211970  66.1372650
  12.3486480  20.3761150  59.8997220  11.4076620  20.3911380  60.0744910
  12.6630550  19.5897110  60.3457520   2.3268120  22.0580750  53.4601180
   3.0931390  21.9462110  54.0226610   2.4042810  21.3618720  52.8077950
  14.3512060  27.5470000  61.5751480  14.4759480  28.3701170  62.0475290
  15.2177620  27.3360730  61.2275630   1.8229590  29.6401210  61.2468610
   2.5592070  29.0916670  61.5177180   2.2070510  30.5057220  61.1074600
   4.9331900  28.8131520  53.0694180   5.7260510  29.1020350  52.6175970
   4.4136250  28.3823690  52.3906660   9.6652500  24.9327150  70.3829600
   9.0590660  24.9558750  69.6425350   9.3606610  24.2010190  70.9196850
  11.0952870  28.6607440  68.9939010  12.0474620  28.5765460  68.9439250
  10.9481090  29.3249150  69.6672800  13.9862070  28.0401650  54.4930920
  13.7003580  27.6266790  53.6785100  13.7881620  28.9689360  54.3731440
   5.4509300  24.0334930  52.9336530   5.3459940  23.4187280  53.6597910
   5.2833520  23.5100820  52.1499540   5.6023620  22.7191730  68.9125760
   4.8369290  23.2876730  68.8280430   5.7839580  22.4267940  68.0193990
   8.6912030  23.0954960  53.5378520   8.1422130  23.5424260  54.1821260
   9.3131290  22.5904210  54.0616190  12.7446970  24.4497060  69.4700780
  13.4856440  24.7872820  68.9668240  11.9819650  24.6189120  68.9170550
   4.3587150  22.0545880  55.4343820   4.7803570  21.8885750  56.2775210
   4.4837990  21.2446110  54.9398960   2.5214570  18.0342430  68.2414800
   1.9911030  17.5433380  67.6138140   3.1902640  18.4626630  67.7072730
   6.8714790  21.0783490  52.6820920   7.3920450  20.3632510  52.3162070
   7.5183190  21.7169360  52.9821430  11.4192630  22.5011890  68.0055990
  11.8333650  22.6556970  68.8546410  10.4843630  22.6267110  68.1681770
  11.8914800  19.8408050  70.0095140  12.4735570  19.0860370  69.9215620
  12.0676570  20.3715490  69.2326620   3.0086870  15.0004800  68.3212090
   2.9143740  14.3825550  67.5962960   2.4284260  15.7271090  68.0942000
   5.7748310  13.5578040  65.3539480   5.3265610  13.5802300  64.5085030
   5.1413510  13.1597060  65.9509780   6.1807860  22.4532370  65.9751920
   6.5995970  23.2965100  65.8028160   5.2616490  22.5904410  65.7458700
   8.5171760  20.1848550  67.3589760   8.6367970  19.5889690  68.0984600
   9.3765760  20.2218240  66.9391060  10.8559660  20.7385740  65.9352270
  10.3294880  21.2628360  65.3317410  11.1991000  21.3713130  66.5662000
   3.2546050  18.1279110  52.3801980   3.0535110  17.2646470  52.7415320
   3.0838100  18.0412470  51.4423580   4.0315280  28.7585380  67.0909650
   3.4936370  29.4831440  66.7718350   4.2849240  28.2815720  66.3006990
   5.2840530  16.7269900  68.6165580   5.8740220  16.4185750  69.3043400
   4.4660770  16.2549650  68.7725480  10.1033960  16.3435710  68.8498600
   9.4149480  15.6817250  68.7848590  10.8239980  15.8973980  69.2947060
  10.7334360  12.9387340  54.9088860  11.0136650  12.0955240  55.2648280
   9.9600090  13.1710450  55.4227610   2.0528850  15.2279730  52.3679860
   2.3554750  15.2347160  51.4599010   2.7923440  14.8777590  52.8647520
   6.8877490  29.9936590  67.3496300   6.8136190  30.8971730  67.6568670
   5.9856330  29.6748490  67.3218370   5.2713780  14.1714350  53.3536060
   4.9235780  13.4938340  52.7738510   5.4726550  13.7103860  54.1679450
   7.4362820  29.1595100  54.9722660   8.3313610  29.4980070  54.9941420
   7.4680450  28.4374510  54.3446940   2.8866700  25.6520190  58.3131890
   2.5862240  25.5285160  59.2135800   2.7804190  24.7928780  57.9047620
  14.4157170  27.6898770  67.6788860  13.8159160  27.7491330  66.9352780
  14.5451070  26.7503750  67.8085710  15.6558620  25.4316590  53.0158570
  14.8251580  25.4993240  53.4865800  15.8330450  26.3220710  52.7125430
  15.1115080  22.1764070  55.5192770  15.8733990  22.7460720  55.6252460
  15.1269450  21.6091270  56.2901080  16.1175050  23.0314170  60.3634700
  16.4883880  22.2481490  59.9570670  16.7576980  23.7203270  60.1852000
  13.1008810  24.4150750  65.7765020  12.2868650  24.8447910  66.0390810
  13.5083010  25.0269160  65.1634070  15.1634250  22.4698440  52.6765290
  15.4383090  23.3777320  52.5484510  14.9744990  22.4060970  53.6127280
  11.5609860  15.4943290  53.9718920  11.9794740  15.3074270  53.1315580
  11.2545920  14.6422340  54.2821850  15.0599590  20.4067430  57.6694720
  14.6843190  19.6395360  57.2376010  14.3302710  20.7890130  58.1569650
  14.4499210  19.5538950  67.3034240  14.2185300  19.3251700  66.4032190
  14.7103760  20.4738500  67.2579130  12.8887280  14.7795380  70.0813940
  13.7657460  14.7878780  70.4647940  12.9008120  14.0426220  69.4706290
  14.3350550  18.6324920  60.9701960  14.8588030  18.1387570  60.3392130
  14.9209970  18.7675280  61.7149530  14.5140270  18.7164790  64.4921510
  13.5642980  18.6828330  64.6066500  14.6953280  19.6264900  64.2571280
  13.8250520  17.8898270  56.9094370  14.3209640  17.6569140  57.6943250
  13.6266590  17.0510110  56.4932010  15.2537680  16.5259220  59.4432050
  15.1436960  16.3715260  60.3814320  16.0145270  15.9980160  59.2007460
  13.6003400  12.4653350  65.9015050  14.2375620  13.0787490  66.2674240
  13.7478290  12.5014010  64.9564280  16.1427950  14.3567140  52.6838190
  17.0677260  14.2248320  52.4756480  16.1203740  14.4359960  53.6374640
  16.2166440  15.1277800  55.3094900  15.4217940  15.0622920  55.8387810
  16.4209720  16.0628440  55.2980250  13.1584860  29.1669350  59.3033290
  13.7543930  28.8453920  58.6267710  13.4163010  28.6941170  60.0946560
   4.7653460  27.1546850  65.0533640   4.5244820  27.4221410  64.1664160
   5.7056100  27.3252580  65.1084500   6.9707880  13.6179540  68.8090150
   6.9096770  14.2101370  69.5585560   7.9108260  13.5105500  68.6640410
   9.6082440  13.2749600  68.4482440  10.2222850  13.5928890  67.7863520
  10.1532000  12.7898190  69.0678300  16.0257620  29.1741230  65.8544280
  15.5315900  29.5710100  65.1371410  15.4170910  28.5490440  66.2481560
  10.3490480  11.8381740  64.7751730   9.4750320  12.1716850  64.5724660
  10.2401230  11.3654920  65.6003600  11.2562460  14.0452610  66.1593450
  10.9275820  13.2304370  65.7795180  12.2044760  14.0022420  66.0359140
  13.7097070  29.8164650  63.1331020  13.2500040  30.5680460  62.7589040
  13.0809530  29.0971120  63.0745820   4.1392790  28.1252890  62.3079150
   4.6557810  27.5140250  61.7827410   4.7890170  28.6281670  62.7990160
   6.8788290  29.0161380  63.1348130   7.1666100  28.7615680  62.2581140
   7.3911510  28.4638740  63.7253700   8.0965300  12.7551580  63.7144640
   7.3137090  13.2297080  63.9941400   7.8028230  11.8506410  63.6057820
  12.6486370  13.4574680  61.7593730  13.0894460  13.4019780  60.9115330
  12.3793960  14.3732690  61.8303910  14.5124940  13.0889920  59.7702550
  14.4513340  12.1451140  59.6233570  15.2916970  13.1970010  60.3156010
   5.9819520  15.1738330  59.2260670   5.1694030  14.7995220  58.8856550
   6.4861160  14.4183410  59.5281860  10.4844500  11.8380780  60.4643740
  11.0873870  12.4100990  60.9392260   9.7437490  12.4020220  60.2417640
  13.6279100  12.2402340  55.7384020  13.8229730  13.1385790  56.0051450
  12.8408970  12.0089420  56.2316970   1.8130860  13.5863110  54.7760330
   2.3423620  12.7992910  54.6468280   2.4459180  14.2654300  55.0095860
   4.0068700  13.3238250  57.8305720   3.3771440  12.6225560  57.9975850
   3.4673840  14.0842380  57.6138880   6.9460650  29.9377480  70.5016330
   7.8727960  29.7021750  70.5452290   6.9311080  30.7649480  70.0202360
  15.1805710  29.4803050  57.4990580  15.3557900  28.7940790  56.8551500
  14.4827280  30.0050100  57.1067250   4.1324260  12.6022230  70.2658210
   3.8508530  13.1055830  69.5019030   4.5143960  11.8043980  69.9000340
   3.0233360  29.8697890  55.0525890   3.7552180  29.5857170  54.5049780
   3.2827030  29.6311170  55.9425270   2.1848150  25.9862620  55.0572220
   1.5557030  26.4547720  55.6058050   2.2995980  25.1411840  55.4918410
  10.7339720  12.0175810  70.8438680  10.6205170  12.3370420  71.7390200
  11.5509460  12.4188320  70.5475960  13.5138210  29.1647340  70.3257370
  14.3063530  28.6696570  70.1183330  13.8071360  29.8437480  70.9332980
   9.6397870  20.0368280  41.2073420   9.5591920  19.1222890  40.9365130
   9.2262290  20.5335350  40.5013130   7.7715910  21.8147300  43.0882690
   6.9958010  21.3347740  43.3781260   8.4228840  21.1352950  42.9138850
  11.7923340  26.2207490  41.8681820  11.3304870  25.4494730  42.1968990
  12.6048890  26.2473560  42.3734270   1.7683000  26.1607200  44.1616470
   2.0711040  25.2704940  43.9826690   2.5126590  26.7177420  43.9338720
   8.0186650  28.5065500  41.4885810   7.3998090  28.9623000  40.9180250
   8.8738430  28.6616960  41.0875510   7.2124900  24.4904490  43.0952850
   7.1433180  23.5494430  42.9341980   7.9744760  24.5805900  43.6675420
   8.2430070  17.2974870  43.3221780   8.6194890  16.4246750  43.2095450
   8.1449580  17.6333570  42.4312220   2.3735080  15.6700500  38.7839220
   2.4801830  16.5704230  39.0907980   1.4627440  15.6218470  38.4933870
  12.0254190  14.7925310  40.2550120  12.8463810  14.3021880  40.2975600
  12.0588270  15.3822970  41.0081960   4.2142810  18.6386870  43.1164400
   4.7221030  19.1367840  43.7569420   4.7456050  17.8622070  42.9403760
  16.3153740  16.8092060  46.8193750  15.6105910  17.1973770  46.3008860
  16.5811660  17.5042350  47.4214680   2.4978910  13.2785430  47.3827820
   2.4997350  13.7957820  46.5773720   1.6683220  12.8015610  47.3597750
   8.8850000  23.3904740  38.8817720   8.2667270  23.8554190  38.3180440
   9.3973250  24.0832220  39.2987230   3.7481760  22.9180610  45.5601320
   3.4151140  23.5449530  46.2022390   3.9248440  23.4442490  44.7802990
  12.2615670  16.7325690  43.0277660  11.5571240  17.0210580  43.6080770
  12.6227830  17.5425800  42.6677220   2.1794240  14.9895390  45.3898270
   2.5211050  15.8337440  45.0952140   1.2410050  15.1379130  45.5063610
   2.9600860  24.8861410  47.3750500   3.5774860  25.5612490  47.0934950
   2.0993980  25.2949390  47.2838000  13.8778450  26.3500820  45.2905140
  13.1941970  27.0199930  45.2821810  14.4172740  26.5481470  44.5250000
  15.3302590  16.1780480  43.4186870  14.3827500  16.2119460  43.5502300
  15.6552580  16.9919430  43.8036230   5.8622130  12.4777660  41.7142860
   6.1697110  11.9224550  40.9978360   4.9322830  12.6122120  41.5315850
  11.4137190  28.1944950  44.0050320  11.4264350  27.7907240  43.1372580
  10.8612410  28.9692240  43.9011750  12.7082610  24.9161170  39.0940490
  12.5978940  23.9735500  39.2189910  12.7050860  25.2776810  39.9803250
  10.8122630  23.0974790  45.3332930  11.2291420  22.8834900  44.4986390
  11.5362450  23.3547580  45.9041550   8.2502890  20.5426490  38.4502980
   7.3232170  20.4763870  38.6791450   8.4027710  21.4806620  38.3358220
   8.2371970  16.8143490  35.4470140   7.2975640  16.9757450  35.5322600
   8.5555230  17.5329170  34.9006130  14.7584730  21.4962010  45.4249170
  13.9303360  21.5655100  44.9499300  15.3535210  22.0816320  44.9565000
  12.2800180  22.1046790  38.9538230  11.6612600  21.7666340  38.3064530
  12.2624630  21.4606550  39.6617420  11.7226740  18.2831330  46.3704040
  11.3097920  19.1085040  46.6244030  10.9902690  17.6976370  46.1780400
   3.8559530  21.0691230  41.2322710   3.4516530  20.3568480  40.7368610
   3.9422650  20.7244470  42.1210750   4.3241230  24.7558790  43.3961920
   4.0269520  24.1504260  42.7169700   5.2741050  24.7936100  43.2851280
   2.5688150  17.8434440  45.0121750   3.1202740  17.9529780  44.2375000
   3.0831660  18.2172040  45.7276980  12.4126840  28.3290660  47.0585020
  11.9357400  29.1362850  46.8657630  11.7288630  27.6768990  47.2111230
   3.4159660  24.4940480  50.0469720   2.5188190  24.7180450  50.2943120
   3.4412530  24.6175420  49.0981120  10.4564880  21.3433600  35.9610980
  10.8958160  20.5056030  35.8148800  11.1693300  21.9763000  36.0475120
   2.2430880  21.3653800  48.6227090   2.1038650  22.2376600  48.9914490
   1.3612240  21.0226610  48.4775030   8.5660260  26.2829670  39.9292220
   9.0056170  27.0254000  39.5147610   8.5047150  26.5256240  40.8531180
   4.0411230  27.3075500  50.8312240   4.0126660  27.7118450  49.9640670
   3.8776200  26.3785860  50.6683840  14.0382020  12.5976410  34.2752020
  13.7254680  12.6903240  35.1751090  14.7994490  13.1757440  34.2249450
  15.9926050  28.0902600  52.1276410  16.4685770  28.5685490  52.8065490
  16.6133210  28.0220090  51.4021910  15.3959300  25.2815450  49.2876420
  15.5222360  25.0427330  48.3693600  15.4380680  24.4499990  49.7598500
   9.2576040  28.9843450  47.8571230   9.7720710  28.8951460  48.6593660
   8.4145120  29.3303150  48.1499140  11.2330440  29.2698790  37.2855230
  11.0731580  28.9801730  38.1837060  11.0677150  28.4938920  36.7500460
   3.7118820  29.0497320  39.0626850   3.5361300  28.1332860  38.8494650
   2.8574560  29.4084610  39.3024650  10.9356570  26.7786350  35.8453230
  10.2421730  26.7763640  35.1855510  11.6779430  26.3545670  35.4147400
  10.5006500  28.4049060  39.9201720  10.9563450  27.6238440  40.2340340
  10.8399020  29.1155880  40.4642900  15.2483310  17.3347910  50.2526160
  14.6327580  17.8427580  49.7241620  14.9279730  16.4346240  50.1952100
   3.0227820  13.3071280  42.1153030   2.5795970  14.0880820  41.7837550
   3.5812810  13.6301170  42.8223970   7.3097630  16.1739800  47.7188350
   6.8477000  16.3822820  48.5308290   6.9075740  15.3599150  47.4159020
  12.3102140  17.3948750  48.8485010  11.4595730  17.0954500  49.1694080
  12.1503930  17.6390760  47.9368830   9.4051850  18.8950500  50.9483800
   9.7305260  18.0614250  50.6086030  10.1932180  19.4179020  51.0962130
   6.1386640  12.9281980  36.9958860   5.5140820  12.9241850  37.7212170
   6.0516760  12.0612940  36.5994830   5.0603720  13.8518610  43.9742630
   5.3576050  14.7581440  43.8934650   5.6089280  13.3637390  43.3602200
   2.8142040  18.4304850  39.8434280   2.5882960  18.2142020  40.7480900
   2.0334570  18.8633310  39.4980250  10.0439800  18.4368220  38.4424930
   9.4448690  19.1604020  38.2588550  10.5919410  18.3745000  37.6601380
   5.2541250  19.3290430  50.5094550   5.1584850  18.3885160  50.3594950
   6.0973230  19.5505500  50.1142620   8.6504670  17.0731760  40.4728210
   9.0434240  17.3903960  39.6596900   9.0121520  16.1943640  40.5872730
   6.9596840  15.8239070  51.7325070   6.2695160  15.6311270  52.3671160
   7.7029140  16.1073710  52.2649370   9.2359810  19.6637510  44.5678990
   8.5040930  20.1724320  44.9169090   8.8384150  18.8467490  44.2667770
   5.6737200  16.3391710  42.9731480   5.6773260  15.8981660  42.1236020
   6.5688320  16.6609040  43.0803300   5.7357350  17.3403790  35.9638240
   5.8570170  17.2990270  36.9124060   5.3505860  18.2027940  35.8084970
   9.6985720  15.1171190  43.9801930   9.7158460  15.5679840  44.8243780
   9.4501300  14.2176830  44.1935370   4.7478850  19.6504930  35.3621540
   4.1795750  19.2023180  34.7357450   5.4567850  20.0097710  34.8286690
  13.1256470  12.5303370  49.8188310  13.4502240  11.7993030  50.3446290
  13.1612980  12.2117010  48.9169300   5.9745170  20.3993490  44.7196890
   6.3415300  19.9252060  45.4658230   5.7850230  21.2735060  45.0605230
   3.7644540  19.4402130  47.0381100   3.4601610  20.3194110  47.2631460
   4.7191000  19.5001920  47.0738540   2.2926330  23.6463120  37.6347950
   1.5188590  23.1060740  37.4746670   3.0220960  23.1269730  37.2965710
  13.0514310  22.6428480  43.4274340  13.7713430  23.1383770  43.0370450
  12.8496130  21.9646370  42.7828210   8.5124250  14.0366440  37.5703730
   7.6988860  13.5379610  37.4949040   8.3186200  14.8764690  37.1540080
   8.4333110  22.7137540  49.3143340   8.3670420  21.7933210  49.0600930
   7.8038250  22.8112980  50.0287980  11.2272640  18.4086090  35.8665890
  12.1152260  18.7203320  35.6917230  11.1977730  17.5358340  35.4746470
   2.3363730  23.3143500  41.2726760   2.8542400  22.5111760  41.2183650
   1.8847750  23.2522640  42.1143590   7.2233230  24.5809780  36.5454060
   7.5648930  25.3252010  36.0497380   6.3945940  24.8940900  36.9078890
   3.0221390  20.7389110  51.0692010   2.7221530  20.8846290  50.1719830
   3.7932630  20.1794400  50.9765400   8.3649840  25.5358110  49.0647140
   8.3794380  24.6039070  48.8466050   7.6574940  25.6217870  49.7036910
  13.4986910  19.7197930  35.3345750  13.4150630  20.1512150  34.4842190
  14.2181100  20.1796280  35.7672570  14.5761050  22.1765450  48.4115720
  13.8509240  22.7694230  48.2145110  15.1036510  22.1688990  47.6129090
  14.5274160  26.5740190  38.0627880  13.8850320  25.9195810  38.3371600
  14.1404820  26.9795280  37.2868550  10.1060640  23.9025620  41.9099570
  10.4584460  23.3053750  41.2500940   9.2222970  23.5769850  42.0807820
   6.1923920  24.6623310  39.3169980   6.8795050  25.2092520  39.6977570
   5.4056340  25.2064040  39.3519590   5.4951130  21.6669340  38.9295340
   5.9513910  22.4774590  39.1555530   5.1439340  21.3492480  39.7613830
   7.7983740  27.1775680  46.1587640   8.4425960  27.3835060  46.8361060
   8.1613180  26.4164080  45.7058490   9.0715820  25.1808030  44.8765090
   9.7138050  24.4801190  44.9897260   9.5965170  25.9606470  44.6961980
  12.9171540  25.4656650  34.6004230  12.6909120  24.7487090  35.1928870
  12.5267740  25.2169090  33.7625980  10.8453440  25.9802930  48.0801150
  11.1809680  26.5669620  48.7579070   9.9253780  25.8495640  48.3098940
  12.4987790  23.3828590  36.2618390  12.2109490  23.8441280  37.0496270
  13.2939960  22.9226360  36.5302610   6.6742020  26.0294260  51.2489210
   6.3538890  25.3103500  51.7934900   6.0000380  26.7049330  51.3225270
   4.7156190  26.8754710  36.1922360   4.7066290  27.6084400  35.5766870
   3.7954550  26.6286290  36.2849320   9.8895620  16.2620420  46.6126010
  10.2576440  15.4415630  46.9405580   9.0293820  16.3222310  47.0281660
  13.2557650  15.2177360  37.4213570  12.6270810  15.3223030  36.7071800
  12.7609570  15.4374140  38.2107450   7.7015790  26.9382950  34.8547550
   7.8027770  26.7346940  33.9249530   6.8017530  26.6841230  35.0595330
   5.2241680  17.4963310  38.8371450   4.5157830  17.9649650  39.2785060
   5.5086160  16.8385320  39.4716640   6.8497610  18.9160010  46.8363980
   7.3482860  19.3905830  47.5015830   6.9920560  17.9923530  47.0434010
   9.2557110  14.2213970  40.2767240   9.1324890  14.2400100  39.3276750
  10.2041670  14.2692910  40.3965640   6.3433900  29.4569270  39.5495220
   6.5975400  29.4190660  38.6274590   5.3946380  29.3302600  39.5423470
   3.4276700  15.8048390  36.2122160   4.2767230  16.2418540  36.1462350
   3.0607970  16.1168650  37.0394220  14.0564470  15.1327970  47.6792370
  13.5538070  15.8733370  48.0186180  14.8721130  15.5211970  47.3629160
  12.3486480  20.3761150  41.1253730  11.4076620  20.3911380  41.3001420
  12.6630550  19.5897110  41.5714030   2.3268120  22.0580750  34.6857690
   3.0931390  21.9462110  35.2483120   2.4042810  21.3618720  34.0334460
  14.3512060  27.5470000  42.8007990  14.4759480  28.3701170  43.2731800
  15.2177620  27.3360730  42.4532140   1.8229590  29.6401210  42.4725120
   2.5592070  29.0916670  42.7433690   2.2070510  30.5057220  42.3331110
   4.9331900  28.8131520  34.2950690   5.7260510  29.1020350  33.8432480
   4.4136250  28.3823690  33.6163170   9.6652500  24.9327150  51.6086110
   9.0590660  24.9558750  50.8681860   9.3606610  24.2010190  52.1453360
  11.0952870  28.6607440  50.2195520  12.0474620  28.5765460  50.1695760
  10.9481090  29.3249150  50.8929310  13.9862070  28.0401650  35.7187430
  13.7003580  27.6266790  34.9041610  13.7881620  28.9689360  35.5987950
   5.4509300  24.0334930  34.1593040   5.3459940  23.4187280  34.8854420
   5.2833520  23.5100820  33.3756050   5.6023620  22.7191730  50.1382270
   4.8369290  23.2876730  50.0536940   5.7839580  22.4267940  49.2450500
   8.6912030  23.0954960  34.7635030   8.1422130  23.5424260  35.4077770
   9.3131290  22.5904210  35.2872700  12.7446970  24.4497060  50.6957290
  13.4856440  24.7872820  50.1924750  11.9819650  24.6189120  50.1427060
   4.3587150  22.0545880  36.6600330   4.7803570  21.8885750  37.5031720
   4.4837990  21.2446110  36.1655470   2.5214570  18.0342430  49.4671310
   1.9911030  17.5433380  48.8394650   3.1902640  18.4626630  48.9329240
   6.8714790  21.0783490  33.9077430   7.3920450  20.3632510  33.5418580
   7.5183190  21.7169360  34.2077940  11.4192630  22.5011890  49.2312500
  11.8333650  22.6556970  50.0802920  10.4843630  22.6267110  49.3938280
  11.8914800  19.8408050  51.2351650  12.4735570  19.0860370  51.1472130
  12.0676570  20.3715490  50.4583130   3.0086870  15.0004800  49.5468600
   2.9143740  14.3825550  48.8219470   2.4284260  15.7271090  49.3198510
   5.7748310  13.5578040  46.5795990   5.3265610  13.5802300  45.7341540
   5.1413510  13.1597060  47.1766290   6.1807860  22.4532370  47.2008430
   6.5995970  23.2965100  47.0284670   5.2616490  22.5904410  46.9715210
   8.5171760  20.1848550  48.5846270   8.6367970  19.5889690  49.3241110
   9.3765760  20.2218240  48.1647570  10.8559660  20.7385740  47.1608780
  10.3294880  21.2628360  46.5573920  11.1991000  21.3713130  47.7918510
   3.2546050  18.1279110  33.6058490   3.0535110  17.2646470  33.9671830
   3.0838100  18.0412470  32.6680090   4.0315280  28.7585380  48.3166160
   3.4936370  29.4831440  47.9974860   4.2849240  28.2815720  47.5263500
   5.2840530  16.7269900  49.8422090   5.8740220  16.4185750  50.5299910
   4.4660770  16.2549650  49.9981990  10.1033960  16.3435710  50.0755110
   9.4149480  15.6817250  50.0105100  10.8239980  15.8973980  50.5203570
  10.7334360  12.9387340  36.1345370  11.0136650  12.0955240  36.4904790
   9.9600090  13.1710450  36.6484120   2.0528850  15.2279730  33.5936370
   2.3554750  15.2347160  32.6855520   2.7923440  14.8777590  34.0904030
   6.8877490  29.9936590  48.5752810   6.8136190  30.8971730  48.8825180
   5.9856330  29.6748490  48.5474880   5.2713780  14.1714350  34.5792570
   4.9235780  13.4938340  33.9995020   5.4726550  13.7103860  35.3935960
   7.4362820  29.1595100  36.1979170   8.3313610  29.4980070  36.2197930
   7.4680450  28.4374510  35.5703450   2.8866700  25.6520190  39.5388400
   2.5862240  25.5285160  40.4392310   2.7804190  24.7928780  39.1304130
  14.4157170  27.6898770  48.9045370  13.8159160  27.7491330  48.1609290
  14.5451070  26.7503750  49.0342220  15.6558620  25.4316590  34.2415080
  14.8251580  25.4993240  34.7122310  15.8330450  26.3220710  33.9381940
  15.1115080  22.1764070  36.7449280  15.8733990  22.7460720  36.8508970
  15.1269450  21.6091270  37.5157590  16.1175050  23.0314170  41.5891210
  16.4883880  22.2481490  41.1827180  16.7576980  23.7203270  41.4108510
  13.1008810  24.4150750  47.0021530  12.2868650  24.8447910  47.2647320
  13.5083010  25.0269160  46.3890580  15.1634250  22.4698440  33.9021800
  15.4383090  23.3777320  33.7741020  14.9744990  22.4060970  34.8383790
  11.5609860  15.4943290  35.1975430  11.9794740  15.3074270  34.3572090
  11.2545920  14.6422340  35.5078360  15.0599590  20.4067430  38.8951230
  14.6843190  19.6395360  38.4632520  14.3302710  20.7890130  39.3826160
  14.4499210  19.5538950  48.5290750  14.2185300  19.3251700  47.6288700
  14.7103760  20.4738500  48.4835640  12.8887280  14.7795380  51.3070450
  13.7657460  14.7878780  51.6904450  12.9008120  14.0426220  50.6962800
  14.3350550  18.6324920  42.1958470  14.8588030  18.1387570  41.5648640
  14.9209970  18.7675280  42.9406040  14.5140270  18.7164790  45.7178020
  13.5642980  18.6828330  45.8323010  14.6953280  19.6264900  45.4827790
  13.8250520  17.8898270  38.1350880  14.3209640  17.6569140  38.9199760
  13.6266590  17.0510110  37.7188520  15.2537680  16.5259220  40.6688560
  15.1436960  16.3715260  41.6070830  16.0145270  15.9980160  40.4263970
  13.6003400  12.4653350  47.1271560  14.2375620  13.0787490  47.4930750
  13.7478290  12.5014010  46.1820790  16.1427950  14.3567140  33.9094700
  17.0677260  14.2248320  33.7012990  16.1203740  14.4359960  34.8631150
  16.2166440  15.1277800  36.5351410  15.4217940  15.0622920  37.0644320
  16.4209720  16.0628440  36.5236760  13.1584860  29.1669350  40.5289800
  13.7543930  28.8453920  39.8524220  13.4163010  28.6941170  41.3203070
   4.7653460  27.1546850  46.2790150   4.5244820  27.4221410  45.3920670
   5.7056100  27.3252580  46.3341010   6.9707880  13.6179540  50.0346660
   6.9096770  14.2101370  50.7842070   7.9108260  13.5105500  49.8896920
   9.6082440  13.2749600  49.6738950  10.2222850  13.5928890  49.0120030
  10.1532000  12.7898190  50.2934810  16.0257620  29.1741230  47.0800790
  15.5315900  29.5710100  46.3627920  15.4170910  28.5490440  47.4738070
  10.3490480  11.8381740  46.0008240   9.4750320  12.1716850  45.7981170
  10.2401230  11.3654920  46.8260110  11.2562460  14.0452610  47.3849960
  10.9275820  13.2304370  47.0051690  12.2044760  14.0022420  47.2615650
  13.7097070  29.8164650  44.3587530  13.2500040  30.5680460  43.9845550
  13.0809530  29.0971120  44.3002330   4.1392790  28.1252890  43.5335660
   4.6557810  27.5140250  43.0083920   4.7890170  28.6281670  44.0246670
   6.8788290  29.0161380  44.3604640   7.1666100  28.7615680  43.4837650
   7.3911510  28.4638740  44.9510210   8.0965300  12.7551580  44.9401150
   7.3137090  13.2297080  45.2197910   7.8028230  11.8506410  44.8314330
  12.6486370  13.4574680  42.9850240  13.0894460  13.4019780  42.1371840
  12.3793960  14.3732690  43.0560420  14.5124940  13.0889920  40.9959060
  14.4513340  12.1451140  40.8490080  15.2916970  13.1970010  41.5412520
   5.9819520  15.1738330  40.4517180   5.1694030  14.7995220  40.1113060
   6.4861160  14.4183410  40.7538370  10.4844500  11.8380780  41.6900250
  11.0873870  12.4100990  42.1648770   9.7437490  12.4020220  41.4674150
  13.6279100  12.2402340  36.9640530  13.8229730  13.1385790  37.2307960
  12.8408970  12.0089420  37.4573480   1.8130860  13.5863110  36.0016840
   2.3423620  12.7992910  35.8724790   2.4459180  14.2654300  36.2352370
   4.0068700  13.3238250  39.0562230   3.3771440  12.6225560  39.2232360
   3.4673840  14.0842380  38.8395390   6.9460650  29.9377480  51.7272840
   7.8727960  29.7021750  51.7708800   6.9311080  30.7649480  51.2458870
  15.1805710  29.4803050  38.7247090  15.3557900  28.7940790  38.0808010
  14.4827280  30.0050100  38.3323760   4.1324260  12.6022230  51.4914720
   3.8508530  13.1055830  50.7275540   4.5143960  11.8043980  51.1256850
   3.0233360  29.8697890  36.2782400   3.7552180  29.5857170  35.7306290
   3.2827030  29.6311170  37.1681780   2.1848150  25.9862620  36.2828730
   1.5557030  26.4547720  36.8314560   2.2995980  25.1411840  36.7174920
  10.7339720  12.0175810  52.0695190  10.6205170  12.3370420  52.9646710
  11.5509460  12.4188320  51.7732470  13.5138210  29.1647340  51.5513880
  14.3063530  28.6696570  51.3439840  13.8071360  29.8437480  52.1589490
   9.6397870  20.0368280  22.4329930   9.5591920  19.1222890  22.1621640
   9.2262290  20.5335350  21.7269640   7.7715910  21.8147300  24.3139200
   6.9958010  21.3347740  24.6037770   8.4228840  21.1352950  24.1395360
  11.7923340  26.2207490  23.0938330  11.3304870  25.4494730  23.4225500
  12.6048890  26.2473560  23.5990780   1.7683000  26.1607200  25.3872980
   2.0711040  25.2704940  25.2083200   2.5126590  26.7177420  25.1595230
   8.0186650  28.5065500  22.7142320   7.3998090  28.9623000  22.1436760
   8.8738430  28.6616960  22.3132020   7.2124900  24.4904490  24.3209360
   7.1433180  23.5494430  24.1598490   7.9744760  24.5805900  24.8931930
   8.2430070  17.2974870  24.5478290   8.6194890  16.4246750  24.4351960
   8.1449580  17.6333570  23.6568730   2.3735080  15.6700500  20.0095730
   2.4801830  16.5704230  20.3164490   1.4627440  15.6218470  19.7190380
  12.0254190  14.7925310  21.4806630  12.8463810  14.3021880  21.5232110
  12.0588270  15.3822970  22.2338470   4.2142810  18.6386870  24.3420910
   4.7221030  19.1367840  24.9825930   4.7456050  17.8622070  24.1660270
  16.3153740  16.8092060  28.0450260  15.6105910  17.1973770  27.5265370
  16.5811660  17.5042350  28.6471190   2.4978910  13.2785430  28.6084330
   2.4997350  13.7957820  27.8030230   1.6683220  12.8015610  28.5854260
   8.8850000  23.3904740  20.1074230   8.2667270  23.8554190  19.5436950
   9.3973250  24.0832220  20.5243740   3.7481760  22.9180610  26.7857830
   3.4151140  23.5449530  27.4278900   3.9248440  23.4442490  26.0059500
  12.2615670  16.7325690  24.2534170  11.5571240  17.0210580  24.8337280
  12.6227830  17.5425800  23.8933730   2.1794240  14.9895390  26.6154780
   2.5211050  15.8337440  26.3208650   1.2410050  15.1379130  26.7320120
   2.9600860  24.8861410  28.6007010   3.5774860  25.5612490  28.3191460
   2.0993980  25.2949390  28.5094510  13.8778450  26.3500820  26.5161650
  13.1941970  27.0199930  26.5078320  14.4172740  26.5481470  25.7506510
  15.3302590  16.1780480  24.6443380  14.3827500  16.2119460  24.7758810
  15.6552580  16.9919430  25.0292740   5.8622130  12.4777660  22.9399370
   6.1697110  11.9224550  22.2234870   4.9322830  12.6122120  22.7572360
  11.4137190  28.1944950  25.2306830  11.4264350  27.7907240  24.3629090
  10.8612410  28.9692240  25.1268260  12.7082610  24.9161170  20.3197000
  12.5978940  23.9735500  20.4446420  12.7050860  25.2776810  21.2059760
  10.8122630  23.0974790  26.5589440  11.2291420  22.8834900  25.7242900
  11.5362450  23.3547580  27.1298060   8.2502890  20.5426490  19.6759490
   7.3232170  20.4763870  19.9047960   8.4027710  21.4806620  19.5614730
   8.2371970  16.8143490  16.6726650   7.2975640  16.9757450  16.7579110
   8.5555230  17.5329170  16.1262640  14.7584730  21.4962010  26.6505680
  13.9303360  21.5655100  26.1755810  15.3535210  22.0816320  26.1821510
  12.2800180  22.1046790  20.1794740  11.6612600  21.7666340  19.5321040
  12.2624630  21.4606550  20.8873930  11.7226740  18.2831330  27.5960550
  11.3097920  19.1085040  27.8500540  10.9902690  17.6976370  27.4036910
   3.8559530  21.0691230  22.4579220   3.4516530  20.3568480  21.9625120
   3.9422650  20.7244470  23.3467260   4.3241230  24.7558790  24.6218430
   4.0269520  24.1504260  23.9426210   5.2741050  24.7936100  24.5107790
   2.5688150  17.8434440  26.2378260   3.1202740  17.9529780  25.4631510
   3.0831660  18.2172040  26.9533490  12.4126840  28.3290660  28.2841530
  11.9357400  29.1362850  28.0914140  11.7288630  27.6768990  28.4367740
   3.4159660  24.4940480  31.2726230   2.5188190  24.7180450  31.5199630
   3.4412530  24.6175420  30.3237630  10.4564880  21.3433600  17.1867490
  10.8958160  20.5056030  17.0405310  11.1693300  21.9763000  17.2731630
   2.2430880  21.3653800  29.8483600   2.1038650  22.2376600  30.2171000
   1.3612240  21.0226610  29.7031540   8.5660260  26.2829670  21.1548730
   9.0056170  27.0254000  20.7404120   8.5047150  26.5256240  22.0787690
   4.0411230  27.3075500  32.0568750   4.0126660  27.7118450  31.1897180
   3.8776200  26.3785860  31.8940350  14.0382020  12.5976410  15.5008530
  13.7254680  12.6903240  16.4007600  14.7994490  13.1757440  15.4505960
  15.9926050  28.0902600  33.3532920  16.4685770  28.5685490  34.0322000
  16.6133210  28.0220090  32.6278420  15.3959300  25.2815450  30.5132930
  15.5222360  25.0427330  29.5950110  15.4380680  24.4499990  30.9855010
   9.2576040  28.9843450  29.0827740   9.7720710  28.8951460  29.8850170
   8.4145120  29.3303150  29.3755650  11.2330440  29.2698790  18.5111740
  11.0731580  28.9801730  19.4093570  11.0677150  28.4938920  17.9756970
   3.7118820  29.0497320  20.2883360   3.5361300  28.1332860  20.0751160
   2.8574560  29.4084610  20.5281160  10.9356570  26.7786350  17.0709740
  10.2421730  26.7763640  16.4112020  11.6779430  26.3545670  16.6403910
  10.5006500  28.4049060  21.1458230  10.9563450  27.6238440  21.4596850
  10.8399020  29.1155880  21.6899410  15.2483310  17.3347910  31.4782670
  14.6327580  17.8427580  30.9498130  14.9279730  16.4346240  31.4208610
   3.0227820  13.3071280  23.3409540   2.5795970  14.0880820  23.0094060
   3.5812810  13.6301170  24.0480480   7.3097630  16.1739800  28.9444860
   6.8477000  16.3822820  29.7564800   6.9075740  15.3599150  28.6415530
  12.3102140  17.3948750  30.0741520  11.4595730  17.0954500  30.3950590
  12.1503930  17.6390760  29.1625340   9.4051850  18.8950500  32.1740310
   9.7305260  18.0614250  31.8342540  10.1932180  19.4179020  32.3218640
   6.1386640  12.9281980  18.2215370   5.5140820  12.9241850  18.9468680
   6.0516760  12.0612940  17.8251340   5.0603720  13.8518610  25.1999140
   5.3576050  14.7581440  25.1191160   5.6089280  13.3637390  24.5858710
   2.8142040  18.4304850  21.0690790   2.5882960  18.2142020  21.9737410
   2.0334570  18.8633310  20.7236760  10.0439800  18.4368220  19.6681440
   9.4448690  19.1604020  19.4845060  10.5919410  18.3745000  18.8857890
   5.2541250  19.3290430  31.7351060   5.1584850  18.3885160  31.5851460
   6.0973230  19.5505500  31.3399130   8.6504670  17.0731760  21.6984720
   9.0434240  17.3903960  20.8853410   9.0121520  16.1943640  21.8129240
   6.9596840  15.8239070  32.9581580   6.2695160  15.6311270  33.5927670
   7.7029140  16.1073710  33.4905880   9.2359810  19.6637510  25.7935500
   8.5040930  20.1724320  26.1425600   8.8384150  18.8467490  25.4924280
   5.6737200  16.3391710  24.1987990   5.6773260  15.8981660  23.3492530
   6.5688320  16.6609040  24.3059810   5.7357350  17.3403790  17.1894750
   5.8570170  17.2990270  18.1380570   5.3505860  18.2027940  17.0341480
   9.6985720  15.1171190  25.2058440   9.7158460  15.5679840  26.0500290
   9.4501300  14.2176830  25.4191880   4.7478850  19.6504930  16.5878050
   4.1795750  19.2023180  15.9613960   5.4567850  20.0097710  16.0543200
  13.1256470  12.5303370  31.0444820  13.4502240  11.7993030  31.5702800
  13.1612980  12.2117010  30.1425810   5.9745170  20.3993490  25.9453400
   6.3415300  19.9252060  26.6914740   5.7850230  21.2735060  26.2861740
   3.7644540  19.4402130  28.2637610   3.4601610  20.3194110  28.4887970
   4.7191000  19.5001920  28.2995050   2.2926330  23.6463120  18.8604460
   1.5188590  23.1060740  18.7003180   3.0220960  23.1269730  18.5222220
  13.0514310  22.6428480  24.6530850  13.7713430  23.1383770  24.2626960
  12.8496130  21.9646370  24.0084720   8.5124250  14.0366440  18.7960240
   7.6988860  13.5379610  18.7205550   8.3186200  14.8764690  18.3796590
   8.4333110  22.7137540  30.5399850   8.3670420  21.7933210  30.2857440
   7.8038250  22.8112980  31.2544490  11.2272640  18.4086090  17.0922400
  12.1152260  18.7203320  16.9173740  11.1977730  17.5358340  16.7002980
   2.3363730  23.3143500  22.4983270   2.8542400  22.5111760  22.4440160
   1.8847750  23.2522640  23.3400100   7.2233230  24.5809780  17.7710570
   7.5648930  25.3252010  17.2753890   6.3945940  24.8940900  18.1335400
   3.0221390  20.7389110  32.2948520   2.7221530  20.8846290  31.3976340
   3.7932630  20.1794400  32.2021910   8.3649840  25.5358110  30.2903650
   8.3794380  24.6039070  30.0722560   7.6574940  25.6217870  30.9293420
  13.4986910  19.7197930  16.5602260  13.4150630  20.1512150  15.7098700
  14.2181100  20.1796280  16.9929080  14.5761050  22.1765450  29.6372230
  13.8509240  22.7694230  29.4401620  15.1036510  22.1688990  28.8385600
  14.5274160  26.5740190  19.2884390  13.8850320  25.9195810  19.5628110
  14.1404820  26.9795280  18.5125060  10.1060640  23.9025620  23.1356080
  10.4584460  23.3053750  22.4757450   9.2222970  23.5769850  23.3064330
   6.1923920  24.6623310  20.5426490   6.8795050  25.2092520  20.9234080
   5.4056340  25.2064040  20.5776100   5.4951130  21.6669340  20.1551850
   5.9513910  22.4774590  20.3812040   5.1439340  21.3492480  20.9870340
   7.7983740  27.1775680  27.3844150   8.4425960  27.3835060  28.0617570
   8.1613180  26.4164080  26.9315000   9.0715820  25.1808030  26.1021600
   9.7138050  24.4801190  26.2153770   9.5965170  25.9606470  25.9218490
  12.9171540  25.4656650  15.8260740  12.6909120  24.7487090  16.4185380
  12.5267740  25.2169090  14.9882490  10.8453440  25.9802930  29.3057660
  11.1809680  26.5669620  29.9835580   9.9253780  25.8495640  29.5355450
  12.4987790  23.3828590  17.4874900  12.2109490  23.8441280  18.2752780
  13.2939960  22.9226360  17.7559120   6.6742020  26.0294260  32.4745720
   6.3538890  25.3103500  33.0191410   6.0000380  26.7049330  32.5481780
   4.7156190  26.8754710  17.4178870   4.7066290  27.6084400  16.8023380
   3.7954550  26.6286290  17.5105830   9.8895620  16.2620420  27.8382520
  10.2576440  15.4415630  28.1662090   9.0293820  16.3222310  28.2538170
  13.2557650  15.2177360  18.6470080  12.6270810  15.3223030  17.9328310
  12.7609570  15.4374140  19.4363960   7.7015790  26.9382950  16.0804060
   7.8027770  26.7346940  15.1506040   6.8017530  26.6841230  16.2851840
   5.2241680  17.4963310  20.0627960   4.5157830  17.9649650  20.5041570
   5.5086160  16.8385320  20.6973150   6.8497610  18.9160010  28.0620490
   7.3482860  19.3905830  28.7272340   6.9920560  17.9923530  28.2690520
   9.2557110  14.2213970  21.5023750   9.1324890  14.2400100  20.5533260
  10.2041670  14.2692910  21.6222150   6.3433900  29.4569270  20.7751730
   6.5975400  29.4190660  19.8531100   5.3946380  29.3302600  20.7679980
   3.4276700  15.8048390  17.4378670   4.2767230  16.2418540  17.3718860
   3.0607970  16.1168650  18.2650730  14.0564470  15.1327970  28.9048880
  13.5538070  15.8733370  29.2442690  14.8721130  15.5211970  28.5885670
  12.3486480  20.3761150  22.3510240  11.4076620  20.3911380  22.5257930
  12.6630550  19.5897110  22.7970540   2.3268120  22.0580750  15.9114200
   3.0931390  21.9462110  16.4739630   2.4042810  21.3618720  15.2590970
  14.3512060  27.5470000  24.0264500  14.4759480  28.3701170  24.4988310
  15.2177620  27.3360730  23.6788650   1.8229590  29.6401210  23.6981630
   2.5592070  29.0916670  23.9690200   2.2070510  30.5057220  23.5587620
   4.9331900  28.8131520  15.5207200   5.7260510  29.1020350  15.0688990
   4.4136250  28.3823690  14.8419680   9.6652500  24.9327150  32.8342620
   9.0590660  24.9558750  32.0938370   9.3606610  24.2010190  33.3709870
  11.0952870  28.6607440  31.4452030  12.0474620  28.5765460  31.3952270
  10.9481090  29.3249150  32.1185820  13.9862070  28.0401650  16.9443940
  13.7003580  27.6266790  16.1298120  13.7881620  28.9689360  16.8244460
   5.4509300  24.0334930  15.3849550   5.3459940  23.4187280  16.1110930
   5.2833520  23.5100820  14.6012560   5.6023620  22.7191730  31.3638780
   4.8369290  23.2876730  31.2793450   5.7839580  22.4267940  30.4707010
   8.6912030  23.0954960  15.9891540   8.1422130  23.5424260  16.6334280
   9.3131290  22.5904210  16.5129210  12.7446970  24.4497060  31.9213800
  13.4856440  24.7872820  31.4181260  11.9819650  24.6189120  31.3683570
   4.3587150  22.0545880  17.8856840   4.7803570  21.8885750  18.7288230
   4.4837990  21.2446110  17.3911980   2.5214570  18.0342430  30.6927820
   1.9911030  17.5433380  30.0651160   3.1902640  18.4626630  30.1585750
   6.8714790  21.0783490  15.1333940   7.3920450  20.3632510  14.7675090
   7.5183190  21.7169360  15.4334450  11.4192630  22.5011890  30.4569010
  11.8333650  22.6556970  31.3059430  10.4843630  22.6267110  30.6194790
  11.8914800  19.8408050  32.4608160  12.4735570  19.0860370  32.3728640
  12.0676570  20.3715490  31.6839640   3.0086870  15.0004800  30.7725110
   2.9143740  14.3825550  30.0475980   2.4284260  15.7271090  30.5455020
   5.7748310  13.5578040  27.8052500   5.3265610  13.5802300  26.9598050
   5.1413510  13.1597060  28.4022800   6.1807860  22.4532370  28.4264940
   6.5995970  23.2965100  28.2541180   5.2616490  22.5904410  28.1971720
   8.5171760  20.1848550  29.8102780   8.6367970  19.5889690  30.5497620
   9.3765760  20.2218240  29.3904080  10.8559660  20.7385740  28.3865290
  10.3294880  21.2628360  27.7830430  11.1991000  21.3713130  29.0175020
   3.2546050  18.1279110  14.8315000   3.0535110  17.2646470  15.1928340
   3.0838100  18.0412470  13.8936600   4.0315280  28.7585380  29.5422670
   3.4936370  29.4831440  29.2231370   4.2849240  28.2815720  28.7520010
   5.2840530  16.7269900  31.0678600   5.8740220  16.4185750  31.7556420
   4.4660770  16.2549650  31.2238500  10.1033960  16.3435710  31.3011620
   9.4149480  15.6817250  31.2361610  10.8239980  15.8973980  31.7460080
  10.7334360  12.9387340  17.3601880  11.0136650  12.0955240  17.7161300
   9.9600090  13.1710450  17.8740630   2.0528850  15.2279730  14.8192880
   2.3554750  15.2347160  13.9112030   2.7923440  14.8777590  15.3160540
   6.8877490  29.9936590  29.8009320   6.8136190  30.8971730  30.1081690
   5.9856330  29.6748490  29.7731390   5.2713780  14.1714350  15.8049080
   4.9235780  13.4938340  15.2251530   5.4726550  13.7103860  16.6192470
   7.4362820  29.1595100  17.4235680   8.3313610  29.4980070  17.4454440
   7.4680450  28.4374510  16.7959960   2.8866700  25.6520190  20.7644910
   2.5862240  25.5285160  21.6648820   2.7804190  24.7928780  20.3560640
  14.4157170  27.6898770  30.1301880  13.8159160  27.7491330  29.3865800
  14.5451070  26.7503750  30.2598730  15.6558620  25.4316590  15.4671590
  14.8251580  25.4993240  15.9378820  15.8330450  26.3220710  15.1638450
  15.1115080  22.1764070  17.9705790  15.8733990  22.7460720  18.0765480
  15.1269450  21.6091270  18.7414100  16.1175050  23.0314170  22.8147720
  16.4883880  22.2481490  22.4083690  16.7576980  23.7203270  22.6365020
  13.1008810  24.4150750  28.2278040  12.2868650  24.8447910  28.4903830
  13.5083010  25.0269160  27.6147090  15.1634250  22.4698440  15.1278310
  15.4383090  23.3777320  14.9997530  14.9744990  22.4060970  16.0640300
  11.5609860  15.4943290  16.4231940  11.9794740  15.3074270  15.5828600
  11.2545920  14.6422340  16.7334870  15.0599590  20.4067430  20.1207740
  14.6843190  19.6395360  19.6889030  14.3302710  20.7890130  20.6082670
  14.4499210  19.5538950  29.7547260  14.2185300  19.3251700  28.8545210
  14.7103760  20.4738500  29.7092150  12.8887280  14.7795380  32.5326960
  13.7657460  14.7878780  32.9160960  12.9008120  14.0426220  31.9219310
  14.3350550  18.6324920  23.4214980  14.8588030  18.1387570  22.7905150
  14.9209970  18.7675280  24.1662550  14.5140270  18.7164790  26.9434530
  13.5642980  18.6828330  27.0579520  14.6953280  19.6264900  26.7084300
  13.8250520  17.8898270  19.3607390  14.3209640  17.6569140  20.1456270
  13.6266590  17.0510110  18.9445030  15.2537680  16.5259220  21.8945070
  15.1436960  16.3715260  22.8327340  16.0145270  15.9980160  21.6520480
  13.6003400  12.4653350  28.3528070  14.2375620  13.0787490  28.7187260
  13.7478290  12.5014010  27.4077300  16.1427950  14.3567140  15.1351210
  17.0677260  14.2248320  14.9269500  16.1203740  14.4359960  16.0887660
  16.2166440  15.1277800  17.7607920  15.4217940  15.0622920  18.2900830
  16.4209720  16.0628440  17.7493270  13.1584860  29.1669350  21.7546310
  13.7543930  28.8453920  21.0780730  13.4163010  28.6941170  22.5459580
   4.7653460  27.1546850  27.5046660   4.5244820  27.4221410  26.6177180
   5.7056100  27.3252580  27.5597520   6.9707880  13.6179540  31.2603170
   6.9096770  14.2101370  32.0098580   7.9108260  13.5105500  31.1153430
   9.6082440  13.2749600  30.8995460  10.2222850  13.5928890  30.2376540
  10.1532000  12.7898190  31.5191320  16.0257620  29.1741230  28.3057300
  15.5315900  29.5710100  27.5884430  15.4170910  28.5490440  28.6994580
  10.3490480  11.8381740  27.2264750   9.4750320  12.1716850  27.0237680
  10.2401230  11.3654920  28.0516620  11.2562460  14.0452610  28.6106470
  10.9275820  13.2304370  28.2308200  12.2044760  14.0022420  28.4872160
  13.7097070  29.8164650  25.5844040  13.2500040  30.5680460  25.2102060
  13.0809530  29.0971120  25.5258840   4.1392790  28.1252890  24.7592170
   4.6557810  27.5140250  24.2340430   4.7890170  28.6281670  25.2503180
   6.8788290  29.0161380  25.5861150   7.1666100  28.7615680  24.7094160
   7.3911510  28.4638740  26.1766720   8.0965300  12.7551580  26.1657660
   7.3137090  13.2297080  26.4454420   7.8028230  11.8506410  26.0570840
  12.6486370  13.4574680  24.2106750  13.0894460  13.4019780  23.3628350
  12.3793960  14.3732690  24.2816930  14.5124940  13.0889920  22.2215570
  14.4513340  12.1451140  22.0746590  15.2916970  13.1970010  22.7669030
   5.9819520  15.1738330  21.6773690   5.1694030  14.7995220  21.3369570
   6.4861160  14.4183410  21.9794880  10.4844500  11.8380780  22.9156760
  11.0873870  12.4100990  23.3905280   9.7437490  12.4020220  22.6930660
  13.6279100  12.2402340  18.1897040  13.8229730  13.1385790  18.4564470
  12.8408970  12.0089420  18.6829990   1.8130860  13.5863110  17.2273350
   2.3423620  12.7992910  17.0981300   2.4459180  14.2654300  17.4608880
   4.0068700  13.3238250  20.2818740   3.3771440  12.6225560  20.4488870
   3.4673840  14.0842380  20.0651900   6.9460650  29.9377480  32.9529350
   7.8727960  29.7021750  32.9965310   6.9311080  30.7649480  32.4715380
  15.1805710  29.4803050  19.9503600  15.3557900  28.7940790  19.3064520
  14.4827280  30.0050100  19.5580270   4.1324260  12.6022230  32.7171230
   3.8508530  13.1055830  31.9532050   4.5143960  11.8043980  32.3513360
   3.0233360  29.8697890  17.5038910   3.7552180  29.5857170  16.9562800
   3.2827030  29.6311170  18.3938290   2.1848150  25.9862620  17.5085240
   1.5557030  26.4547720  18.0571070   2.2995980  25.1411840  17.9431430
  10.7339720  12.0175810  33.2951700  10.6205170  12.3370420  34.1903220
  11.5509460  12.4188320  32.9988980  13.5138210  29.1647340  32.7770390
  14.3063530  28.6696570  32.5696350  13.8071360  29.8437480  33.3846000
   9.6397870  20.0368280   3.6586440   9.5591920  19.1222890   3.3878150
   9.2262290  20.5335350   2.9526150   7.7715910  21.8147300   5.5395710
   6.9958010  21.3347740   5.8294280   8.4228840  21.1352950   5.3651870
  11.7923340  26.2207490   4.3194840  11.3304870  25.4494730   4.6482010
  12.6048890  26.2473560   4.8247290   1.7683000  26.1607200   6.6129490
   2.0711040  25.2704940   6.4339710   2.5126590  26.7177420   6.3851740
   8.0186650  28.5065500   3.9398830   7.3998090  28.9623000   3.3693270
   8.8738430  28.6616960   3.5388530   7.2124900  24.4904490   5.5465870
   7.1433180  23.5494430   5.3855000   7.9744760  24.5805900   6.1188440
   8.2430070  17.2974870   5.7734800   8.6194890  16.4246750   5.6608470
   8.1449580  17.6333570   4.8825240  12.0254190  14.7925310   2.7063140
  12.8463810  14.3021880   2.7488620  12.0588270  15.3822970   3.4594980
   4.2142810  18.6386870   5.5677420   4.7221030  19.1367840   6.2082440
   4.7456050  17.8622070   5.3916780  16.3153740  16.8092060   9.2706770
  15.6105910  17.1973770   8.7521880  16.5811660  17.5042350   9.8727700
   2.4978910  13.2785430   9.8340840   2.4997350  13.7957820   9.0286740
   1.6683220  12.8015610   9.8110770   3.7481760  22.9180610   8.0114340
   3.4151140  23.5449530   8.6535410   3.9248440  23.4442490   7.2316010
  12.2615670  16.7325690   5.4790680  11.5571240  17.0210580   6.0593790
  12.6227830  17.5425800   5.1190240   2.1794240  14.9895390   7.8411290
   2.5211050  15.8337440   7.5465160   1.2410050  15.1379130   7.9576630
   2.9600860  24.8861410   9.8263520   3.5774860  25.5612490   9.5447970
   2.0993980  25.2949390   9.7351020  13.8778450  26.3500820   7.7418160
  13.1941970  27.0199930   7.7334830  14.4172740  26.5481470   6.9763020
  15.3302590  16.1780480   5.8699890  14.3827500  16.2119460   6.0015320
  15.6552580  16.9919430   6.2549250   5.8622130  12.4777660   4.1655880
   6.1697110  11.9224550   3.4491380   4.9322830  12.6122120   3.9828870
  11.4137190  28.1944950   6.4563340  11.4264350  27.7907240   5.5885600
  10.8612410  28.9692240   6.3524770  10.8122630  23.0974790   7.7845950
  11.2291420  22.8834900   6.9499410  11.5362450  23.3547580   8.3554570
  14.7584730  21.4962010   7.8762190  13.9303360  21.5655100   7.4012320
  15.3535210  22.0816320   7.4078020  11.7226740  18.2831330   8.8217060
  11.3097920  19.1085040   9.0757050  10.9902690  17.6976370   8.6293420
   3.8559530  21.0691230   3.6835730   3.4516530  20.3568480   3.1881630
   3.9422650  20.7244470   4.5723770   4.3241230  24.7558790   5.8474940
   4.0269520  24.1504260   5.1682720   5.2741050  24.7936100   5.7364300
   2.5688150  17.8434440   7.4634770   3.1202740  17.9529780   6.6888020
   3.0831660  18.2172040   8.1790000  12.4126840  28.3290660   9.5098040
  11.9357400  29.1362850   9.3170650  11.7288630  27.6768990   9.6624250
   3.4159660  24.4940480  12.4982740   2.5188190  24.7180450  12.7456140
   3.4412530  24.6175420  11.5494140   2.2430880  21.3653800  11.0740110
   2.1038650  22.2376600  11.4427510   1.3612240  21.0226610  10.9288050
   8.5660260  26.2829670   2.3805240   9.0056170  27.0254000   1.9660630
   8.5047150  26.5256240   3.3044200   4.0411230  27.3075500  13.2825260
   4.0126660  27.7118450  12.4153690   3.8776200  26.3785860  13.1196860
  15.9926050  28.0902600  14.5789430  16.4685770  28.5685490  15.2578510
  16.6133210  28.0220090  13.8534930  15.3959300  25.2815450  11.7389440
  15.5222360  25.0427330  10.8206620  15.4380680  24.4499990  12.2111520
   9.2576040  28.9843450  10.3084250   9.7720710  28.8951460  11.1106680
   8.4145120  29.3303150  10.6012160  10.5006500  28.4049060   2.3714740
  10.9563450  27.6238440   2.6853360  10.8399020  29.1155880   2.9155920
  15.2483310  17.3347910  12.7039180  14.6327580  17.8427580  12.1754640
  14.9279730  16.4346240  12.6465120   3.0227820  13.3071280   4.5666050
   2.5795970  14.0880820   4.2350570   3.5812810  13.6301170   5.2736990
   7.3097630  16.1739800  10.1701370   6.8477000  16.3822820  10.9821310
   6.9075740  15.3599150   9.8672040  12.3102140  17.3948750  11.2998030
  11.4595730  17.0954500  11.6207100  12.1503930  17.6390760  10.3881850
   9.4051850  18.8950500  13.3996820   9.7305260  18.0614250  13.0599050
  10.1932180  19.4179020  13.5475150   5.0603720  13.8518610   6.4255650
   5.3576050  14.7581440   6.3447670   5.6089280  13.3637390   5.8115220
   2.8142040  18.4304850   2.2947300   2.5882960  18.2142020   3.1993920
   2.0334570  18.8633310   1.9493270   5.2541250  19.3290430  12.9607570
   5.1584850  18.3885160  12.8107970   6.0973230  19.5505500  12.5655640
   8.6504670  17.0731760   2.9241230   9.0434240  17.3903960   2.1109920
   9.0121520  16.1943640   3.0385750   6.9596840  15.8239070  14.1838090
   6.2695160  15.6311270  14.8184180   7.7029140  16.1073710  14.7162390
   9.2359810  19.6637510   7.0192010   8.5040930  20.1724320   7.3682110
   8.8384150  18.8467490   6.7180790   5.6737200  16.3391710   5.4244500
   5.6773260  15.8981660   4.5749040   6.5688320  16.6609040   5.5316320
   9.6985720  15.1171190   6.4314950   9.7158460  15.5679840   7.2756800
   9.4501300  14.2176830   6.6448390  13.1256470  12.5303370  12.2701330
  13.4502240  11.7993030  12.7959310  13.1612980  12.2117010  11.3682320
   5.9745170  20.3993490   7.1709910   6.3415300  19.9252060   7.9171250
   5.7850230  21.2735060   7.5118250   3.7644540  19.4402130   9.4894120
   3.4601610  20.3194110   9.7144480   4.7191000  19.5001920   9.5251560
  13.0514310  22.6428480   5.8787360  13.7713430  23.1383770   5.4883470
  12.8496130  21.9646370   5.2341230   8.4333110  22.7137540  11.7656360
   8.3670420  21.7933210  11.5113950   7.8038250  22.8112980  12.4801000
   2.3363730  23.3143500   3.7239780   2.8542400  22.5111760   3.6696670
   1.8847750  23.2522640   4.5656610   3.0221390  20.7389110  13.5205030
   2.7221530  20.8846290  12.6232850   3.7932630  20.1794400  13.4278420
   8.3649840  25.5358110  11.5160160   8.3794380  24.6039070  11.2979070
   7.6574940  25.6217870  12.1549930  14.5761050  22.1765450  10.8628740
  13.8509240  22.7694230  10.6658130  15.1036510  22.1688990  10.0642110
  10.1060640  23.9025620   4.3612590  10.4584460  23.3053750   3.7013960
   9.2222970  23.5769850   4.5320840   6.1923920  24.6623310   1.7683000
   6.8795050  25.2092520   2.1490590   5.4056340  25.2064040   1.8032610
   7.7983740  27.1775680   8.6100660   8.4425960  27.3835060   9.2874080
   8.1613180  26.4164080   8.1571510   9.0715820  25.1808030   7.3278110
   9.7138050  24.4801190   7.4410280   9.5965170  25.9606470   7.1475000
  10.8453440  25.9802930  10.5314170  11.1809680  26.5669620  11.2092090
   9.9253780  25.8495640  10.7611960   6.6742020  26.0294260  13.7002230
   6.3538890  25.3103500  14.2447920   6.0000380  26.7049330  13.7738290
   9.8895620  16.2620420   9.0639030  10.2576440  15.4415630   9.3918600
   9.0293820  16.3222310   9.4794680   6.8497610  18.9160010   9.2877000
   7.3482860  19.3905830   9.9528850   6.9920560  17.9923530   9.4947030
   9.2557110  14.2213970   2.7280260   9.1324890  14.2400100   1.7789770
  10.2041670  14.2692910   2.8478660  14.0564470  15.1327970  10.1305390
  13.5538070  15.8733370  10.4699200  14.8721130  15.5211970   9.8142180
  12.3486480  20.3761150   3.5766750  11.4076620  20.3911380   3.7514440
  12.6630550  19.5897110   4.0227050  14.3512060  27.5470000   5.2521010
  14.4759480  28.3701170   5.7244820  15.2177620  27.3360730   4.9045160
   1.8229590  29.6401210   4.9238140   2.5592070  29.0916670   5.1946710
   2.2070510  30.5057220   4.7844130   9.6652500  24.9327150  14.0599130
   9.0590660  24.9558750  13.3194880   9.3606610  24.2010190  14.5966380
  11.0952870  28.6607440  12.6708540  12.0474620  28.5765460  12.6208780
  10.9481090  29.3249150  13.3442330   5.6023620  22.7191730  12.5895290
   4.8369290  23.2876730  12.5049960   5.7839580  22.4267940  11.6963520
  12.7446970  24.4497060  13.1470310  13.4856440  24.7872820  12.6437770
  11.9819650  24.6189120  12.5940080   2.5214570  18.0342430  11.9184330
   1.9911030  17.5433380  11.2907670   3.1902640  18.4626630  11.3842260
  11.4192630  22.5011890  11.6825520  11.8333650  22.6556970  12.5315940
  10.4843630  22.6267110  11.8451300  11.8914800  19.8408050  13.6864670
  12.4735570  19.0860370  13.5985150  12.0676570  20.3715490  12.9096150
   3.0086870  15.0004800  11.9981620   2.9143740  14.3825550  11.2732490
   2.4284260  15.7271090  11.7711530   5.7748310  13.5578040   9.0309010
   5.3265610  13.5802300   8.1854560   5.1413510  13.1597060   9.6279310
   6.1807860  22.4532370   9.6521450   6.5995970  23.2965100   9.4797690
   5.2616490  22.5904410   9.4228230   8.5171760  20.1848550  11.0359290
   8.6367970  19.5889690  11.7754130   9.3765760  20.2218240  10.6160590
  10.8559660  20.7385740   9.6121800  10.3294880  21.2628360   9.0086940
  11.1991000  21.3713130  10.2431530   4.0315280  28.7585380  10.7679180
   3.4936370  29.4831440  10.4487880   4.2849240  28.2815720   9.9776520
   5.2840530  16.7269900  12.2935110   5.8740220  16.4185750  12.9812930
   4.4660770  16.2549650  12.4495010  10.1033960  16.3435710  12.5268130
   9.4149480  15.6817250  12.4618120  10.8239980  15.8973980  12.9716590
   6.8877490  29.9936590  11.0265830   6.8136190  30.8971730  11.3338200
   5.9856330  29.6748490  10.9987900  14.4157170  27.6898770  11.3558390
  13.8159160  27.7491330  10.6122310  14.5451070  26.7503750  11.4855240
  16.1175050  23.0314170   4.0404230  16.4883880  22.2481490   3.6340200
  16.7576980  23.7203270   3.8621530  13.1008810  24.4150750   9.4534550
  12.2868650  24.8447910   9.7160340  13.5083010  25.0269160   8.8403600
  14.4499210  19.5538950  10.9803770  14.2185300  19.3251700  10.0801720
  14.7103760  20.4738500  10.9348660  12.8887280  14.7795380  13.7583470
  13.7657460  14.7878780  14.1417470  12.9008120  14.0426220  13.1475820
  14.3350550  18.6324920   4.6471490  14.8588030  18.1387570   4.0161660
  14.9209970  18.7675280   5.3919060  14.5140270  18.7164790   8.1691040
  13.5642980  18.6828330   8.2836030  14.6953280  19.6264900   7.9340810
  15.2537680  16.5259220   3.1201580  15.1436960  16.3715260   4.0583850
  16.0145270  15.9980160   2.8776990  13.6003400  12.4653350   9.5784580
  14.2375620  13.0787490   9.9443770  13.7478290  12.5014010   8.6333810
  13.1584860  29.1669350   2.9802820  13.7543930  28.8453920   2.3037240
  13.4163010  28.6941170   3.7716090   4.7653460  27.1546850   8.7303170
   4.5244820  27.4221410   7.8433690   5.7056100  27.3252580   8.7854030
   6.9707880  13.6179540  12.4859680   6.9096770  14.2101370  13.2355090
   7.9108260  13.5105500  12.3409940   9.6082440  13.2749600  12.1251970
  10.2222850  13.5928890  11.4633050  10.1532000  12.7898190  12.7447830
  16.0257620  29.1741230   9.5313810  15.5315900  29.5710100   8.8140940
  15.4170910  28.5490440   9.9251090  10.3490480  11.8381740   8.4521260
   9.4750320  12.1716850   8.2494190  10.2401230  11.3654920   9.2773130
  11.2562460  14.0452610   9.8362980  10.9275820  13.2304370   9.4564710
  12.2044760  14.0022420   9.7128670  13.7097070  29.8164650   6.8100550
  13.2500040  30.5680460   6.4358570  13.0809530  29.0971120   6.7515350
   4.1392790  28.1252890   5.9848680   4.6557810  27.5140250   5.4596940
   4.7890170  28.6281670   6.4759690   6.8788290  29.0161380   6.8117660
   7.1666100  28.7615680   5.9350670   7.3911510  28.4638740   7.4023230
   8.0965300  12.7551580   7.3914170   7.3137090  13.2297080   7.6710930
   7.8028230  11.8506410   7.2827350  12.6486370  13.4574680   5.4363260
  13.0894460  13.4019780   4.5884860  12.3793960  14.3732690   5.5073440
  14.5124940  13.0889920   3.4472080  14.4513340  12.1451140   3.3003100
  15.2916970  13.1970010   3.9925540   5.9819520  15.1738330   2.9030200
   5.1694030  14.7995220   2.5626080   6.4861160  14.4183410   3.2051390
  10.4844500  11.8380780   4.1413270  11.0873870  12.4100990   4.6161790
   9.7437490  12.4020220   3.9187170   6.9460650  29.9377480  14.1785860
   7.8727960  29.7021750  14.2221820   6.9311080  30.7649480  13.6971890
   4.1324260  12.6022230  13.9427740   3.8508530  13.1055830  13.1788560
   4.5143960  11.8043980  13.5769870  10.7339720  12.0175810  14.5208210
  10.6205170  12.3370420  15.4159730  11.5509460  12.4188320  14.2245490
  13.5138210  29.1647340  14.0026900  14.3063530  28.6696570  13.7952860
  13.8071360  29.8437480  14.6102510   7.7715910   3.0403810  99.4113160
   6.9958010   2.5604250  99.7011730   8.4228840   2.3609460  99.2369320
  11.7923340   7.4464000  98.1912290  11.3304870   6.6751240  98.5199460
  12.6048890   7.4730070  98.6964740   1.7683000   7.3863710 100.4846940
   2.0711040   6.4961450 100.3057160   2.5126590   7.9433930 100.2569190
   8.0186650   9.7322010  97.8116280   7.3998090  10.1879510  97.2410720
   8.8738430   9.8873470  97.4105980   7.2124900   5.7161000  99.4183320
   7.1433180   4.7750940  99.2572450   7.9744760   5.8062410  99.9905890
   8.8850000   4.6161250  95.2048190   8.2667270   5.0810700  94.6410910
   9.3973250   5.3088730  95.6217700   3.7481760   4.1437120 101.8831790
   3.4151140   4.7706040 102.5252860   3.9248440   4.6699000 101.1033460
  13.8778450   7.5757330 101.6135610  13.1941970   8.2456440 101.6052280
  14.4172740   7.7737980 100.8480470  11.4137190   9.4201460 100.3280790
  11.4264350   9.0163750  99.4603050  10.8612410  10.1948750 100.2242220
  12.7082610   6.1417680  95.4170960  12.5978940   5.1992010  95.5420380
  12.7050860   6.5033320  96.3033720  10.8122630   4.3231300 101.6563400
  11.2291420   4.1091410 100.8216860  11.5362450   4.5804090 102.2272020
   8.2502890   1.7683000  94.7733450   7.3232170   1.7020380  95.0021920
   8.4027710   2.7063130  94.6588690  14.7584730   2.7218520 101.7479640
  13.9303360   2.7911610 101.2729770  15.3535210   3.3072830 101.2795470
  12.2800180   3.3303300  95.2768700  11.6612600   2.9922850  94.6295000
  12.2624630   2.6863060  95.9847890   3.8559530   2.2947740  97.5553180
   3.4516530   1.5824990  97.0599080   3.9422650   1.9500980  98.4441220
   4.3241230   5.9815300  99.7192390   4.0269520   5.3760770  99.0400170
   5.2741050   6.0192610  99.6081750  10.4564880   2.5690110  92.2841450
  10.8958160   1.7312540  92.1379270  11.1693300   3.2019510  92.3705590
   8.5660260   7.5086180  96.2522690   9.0056170   8.2510510  95.8378080
   8.5047150   7.7512750  97.1761650  11.2330440  10.4955300  93.6085700
  11.0731580  10.2058240  94.5067530  11.0677150   9.7195430  93.0730930
   3.7118820  10.2753830  95.3857320   3.5361300   9.3589370  95.1725120
   2.8574560  10.6341120  95.6255120  10.9356570   8.0042860  92.1683700
  10.2421730   8.0020150  91.5085980  11.6779430   7.5802180  91.7377870
  10.5006500   9.6305570  96.2432190  10.9563450   8.8494950  96.5570810
  10.8399020  10.3412390  96.7873370   2.2926330   4.8719630  93.9578420
   1.5188590   4.3317250  93.7977140   3.0220960   4.3526240  93.6196180
  13.0514310   3.8684990  99.7504810  13.7713430   4.3640280  99.3600920
  12.8496130   3.1902880  99.1058680   2.3363730   4.5400010  97.5957230
   2.8542400   3.7368270  97.5414120   1.8847750   4.4779150  98.4374060
   7.2233230   5.8066290  92.8684530   7.5648930   6.5508520  92.3727850
   6.3945940   6.1197410  93.2309360  14.5274160   7.7996700  94.3858350
  13.8850320   7.1452320  94.6602070  14.1404820   8.2051790  93.6099020
  10.1060640   5.1282130  98.2330040  10.4584460   4.5310260  97.5731410
   9.2222970   4.8026360  98.4038290   6.1923920   5.8879820  95.6400450
   6.8795050   6.4349030  96.0208040   5.4056340   6.4320550  95.6750060
   5.4951130   2.8925850  95.2525810   5.9513910   3.7031100  95.4786000
   5.1439340   2.5748990  96.0844300   9.0715820   6.4064540 101.1995560
   9.7138050   5.7057700 101.3127730   9.5965170   7.1862980 101.0192450
  12.9171540   6.6913160  90.9234700  12.6909120   5.9743600  91.5159340
  12.5267740   6.4425600  90.0856450  12.4987790   4.6085100  92.5848860
  12.2109490   5.0697790  93.3726740  13.2939960   4.1482870  92.8533080
   4.7156190   8.1011220  92.5152830   4.7066290   8.8340910  91.8997340
   3.7954550   7.8542800  92.6079790   7.7015790   8.1639460  91.1778020
   7.8027770   7.9603450  90.2480000   6.8017530   7.9097740  91.3825800
   6.3433900  10.6825780  95.8725690   6.5975400  10.6447170  94.9505060
   5.3946380  10.5559110  95.8653940   2.3268120   3.2837260  91.0088160
   3.0931390   3.1718620  91.5713590   2.4042810   2.5875230  90.3564930
  14.3512060   8.7726510  99.1238460  14.4759480   9.5957680  99.5962270
  15.2177620   8.5617240  98.7762610   1.8229590  10.8657720  98.7955590
   2.5592070  10.3173180  99.0664160   2.2070510  11.7313730  98.6561580
   4.9331900  10.0388030  90.6181160   5.7260510  10.3276860  90.1662950
   4.4136250   9.6080200  89.9393640  13.9862070   9.2658160  92.0417900
  13.7003580   8.8523300  91.2272080  13.7881620  10.1945870  91.9218420
   5.4509300   5.2591440  90.4823510   5.3459940   4.6443790  91.2084890
   5.2833520   4.7357330  89.6986520   8.6912030   4.3211470  91.0865500
   8.1422130   4.7680770  91.7308240   9.3131290   3.8160720  91.6103170
   4.3587150   3.2802390  92.9830800   4.7803570   3.1142260  93.8262190
   4.4837990   2.4702620  92.4885940   6.8714790   2.3040000  90.2307900
   7.3920450   1.5889020  89.8649050   7.5183190   2.9425870  90.5308410
   7.4362820  10.3851610  92.5209640   8.3313610  10.7236580  92.5428400
   7.4680450   9.6631020  91.8933920   2.8866700   6.8776700  95.8618870
   2.5862240   6.7541670  96.7622780   2.7804190   6.0185290  95.4534600
  15.6558620   6.6573100  90.5645550  14.8251580   6.7249750  91.0352780
  15.8330450   7.5477220  90.2612410  15.1115080   3.4020580  93.0679750
  15.8733990   3.9717230  93.1739440  15.1269450   2.8347780  93.8388060
  16.1175050   4.2570680  97.9121680  16.4883880   3.4738000  97.5057650
  16.7576980   4.9459780  97.7338980  15.1634250   3.6954950  90.2252270
  15.4383090   4.6033830  90.0971490  14.9744990   3.6317480  91.1614260
  13.1584860  10.3925860  96.8520270  13.7543930  10.0710430  96.1754690
  13.4163010   9.9197680  97.6433540   4.7653460   8.3803360 102.6020620
   4.5244820   8.6477920 101.7151140   5.7056100   8.5509090 102.6571480
  13.7097070  11.0421160 100.6818000  13.2500040  11.7936970 100.3076020
  13.0809530  10.3227630 100.6232800   4.1392790   9.3509400  99.8566130
   4.6557810   8.7396760  99.3314390   4.7890170   9.8538180 100.3477140
   6.8788290  10.2417890 100.6835110   7.1666100   9.9872190  99.8068120
   7.3911510   9.6895250 101.2740680  15.1805710  10.7059560  95.0477560
  15.3557900  10.0197300  94.4038480  14.4827280  11.2306610  94.6554230
   3.0233360  11.0954400  92.6012870   3.7552180  10.8113680  92.0536760
   3.2827030  10.8567680  93.4912250   2.1848150   7.2119130  92.6059200
   1.5557030   7.6804230  93.1545030   2.2995980   6.3668350  93.0405390
   7.7715910   3.0403810  80.6369670   6.9958010   2.5604250  80.9268240
   8.4228840   2.3609460  80.4625830  11.7923340   7.4464000  79.4168800
  11.3304870   6.6751240  79.7455970  12.6048890   7.4730070  79.9221250
   1.7683000   7.3863710  81.7103450   2.0711040   6.4961450  81.5313670
   2.5126590   7.9433930  81.4825700   8.0186650   9.7322010  79.0372790
   7.3998090  10.1879510  78.4667230   8.8738430   9.8873470  78.6362490
   7.2124900   5.7161000  80.6439830   7.1433180   4.7750940  80.4828960
   7.9744760   5.8062410  81.2162400   8.8850000   4.6161250  76.4304700
   8.2667270   5.0810700  75.8667420   9.3973250   5.3088730  76.8474210
   3.7481760   4.1437120  83.1088300   3.4151140   4.7706040  83.7509370
   3.9248440   4.6699000  82.3289970   2.9600860   6.1117920  84.9237480
   3.5774860   6.7869000  84.6421930   2.0993980   6.5205900  84.8324980
  13.8778450   7.5757330  82.8392120  13.1941970   8.2456440  82.8308790
  14.4172740   7.7737980  82.0736980  11.4137190   9.4201460  81.5537300
  11.4264350   9.0163750  80.6859560  10.8612410  10.1948750  81.4498730
  12.7082610   6.1417680  76.6427470  12.5978940   5.1992010  76.7676890
  12.7050860   6.5033320  77.5290230  10.8122630   4.3231300  82.8819910
  11.2291420   4.1091410  82.0473370  11.5362450   4.5804090  83.4528530
   8.2502890   1.7683000  75.9989960   7.3232170   1.7020380  76.2278430
   8.4027710   2.7063130  75.8845200  14.7584730   2.7218520  82.9736150
  13.9303360   2.7911610  82.4986280  15.3535210   3.3072830  82.5051980
  12.2800180   3.3303300  76.5025210  11.6612600   2.9922850  75.8551510
  12.2624630   2.6863060  77.2104400   3.8559530   2.2947740  78.7809690
   3.4516530   1.5824990  78.2855590   3.9422650   1.9500980  79.6697730
   4.3241230   5.9815300  80.9448900   4.0269520   5.3760770  80.2656680
   5.2741050   6.0192610  80.8338260  12.4126840   9.5547170  84.6072000
  11.9357400  10.3619360  84.4144610  11.7288630   8.9025500  84.7598210
   3.4159660   5.7196990  87.5956700   2.5188190   5.9436960  87.8430100
   3.4412530   5.8431930  86.6468100  10.4564880   2.5690110  73.5097960
  10.8958160   1.7312540  73.3635780  11.1693300   3.2019510  73.5962100
   2.2430880   2.5910310  86.1714070   2.1038650   3.4633110  86.5401470
   1.3612240   2.2483120  86.0262010   8.5660260   7.5086180  77.4779200
   9.0056170   8.2510510  77.0634590   8.5047150   7.7512750  78.4018160
   4.0411230   8.5332010  88.3799220   4.0126660   8.9374960  87.5127650
   3.8776200   7.6042370  88.2170820  15.9926050   9.3159110  89.6763390
  16.4685770   9.7942000  90.3552470  16.6133210   9.2476600  88.9508890
  15.3959300   6.5071960  86.8363400  15.5222360   6.2683840  85.9180580
  15.4380680   5.6756500  87.3085480   9.2576040  10.2099960  85.4058210
   9.7720710  10.1207970  86.2080640   8.4145120  10.5559660  85.6986120
  11.2330440  10.4955300  74.8342210  11.0731580  10.2058240  75.7324040
  11.0677150   9.7195430  74.2987440   3.7118820  10.2753830  76.6113830
   3.5361300   9.3589370  76.3981630   2.8574560  10.6341120  76.8511630
  10.9356570   8.0042860  73.3940210  10.2421730   8.0020150  72.7342490
  11.6779430   7.5802180  72.9634380  10.5006500   9.6305570  77.4688700
  10.9563450   8.8494950  77.7827320  10.8399020  10.3412390  78.0129880
   2.2926330   4.8719630  75.1834930   1.5188590   4.3317250  75.0233650
   3.0220960   4.3526240  74.8452690  13.0514310   3.8684990  80.9761320
  13.7713430   4.3640280  80.5857430  12.8496130   3.1902880  80.3315190
   8.4333110   3.9394050  86.8630320   8.3670420   3.0189720  86.6087910
   7.8038250   4.0369490  87.5774960   2.3363730   4.5400010  78.8213740
   2.8542400   3.7368270  78.7670630   1.8847750   4.4779150  79.6630570
   7.2233230   5.8066290  74.0941040   7.5648930   6.5508520  73.5984360
   6.3945940   6.1197410  74.4565870   8.3649840   6.7614620  86.6134120
   8.3794380   5.8295580  86.3953030   7.6574940   6.8474380  87.2523890
  14.5761050   3.4021960  85.9602700  13.8509240   3.9950740  85.7632090
  15.1036510   3.3945500  85.1616070  14.5274160   7.7996700  75.6114860
  13.8850320   7.1452320  75.8858580  14.1404820   8.2051790  74.8355530
  10.1060640   5.1282130  79.4586550  10.4584460   4.5310260  78.7987920
   9.2222970   4.8026360  79.6294800   6.1923920   5.8879820  76.8656960
   6.8795050   6.4349030  77.2464550   5.4056340   6.4320550  76.9006570
   5.4951130   2.8925850  76.4782320   5.9513910   3.7031100  76.7042510
   5.1439340   2.5748990  77.3100810   7.7983740   8.4032190  83.7074620
   8.4425960   8.6091570  84.3848040   8.1613180   7.6420590  83.2545470
   9.0715820   6.4064540  82.4252070   9.7138050   5.7057700  82.5384240
   9.5965170   7.1862980  82.2448960  12.9171540   6.6913160  72.1491210
  12.6909120   5.9743600  72.7415850  12.5267740   6.4425600  71.3112960
  10.8453440   7.2059440  85.6288130  11.1809680   7.7926130  86.3066050
   9.9253780   7.0752150  85.8585920  12.4987790   4.6085100  73.8105370
  12.2109490   5.0697790  74.5983250  13.2939960   4.1482870  74.0789590
   6.6742020   7.2550770  88.7976190   6.3538890   6.5360010  89.3421880
   6.0000380   7.9305840  88.8712250   4.7156190   8.1011220  73.7409340
   4.7066290   8.8340910  73.1253850   3.7954550   7.8542800  73.8336300
   7.7015790   8.1639460  72.4034530   7.8027770   7.9603450  71.4736510
   6.8017530   7.9097740  72.6082310   6.3433900  10.6825780  77.0982200
   6.5975400  10.6447170  76.1761570   5.3946380  10.5559110  77.0910450
   2.3268120   3.2837260  72.2344670   3.0931390   3.1718620  72.7970100
   2.4042810   2.5875230  71.5821440  14.3512060   8.7726510  80.3494970
  14.4759480   9.5957680  80.8218780  15.2177620   8.5617240  80.0019120
   1.8229590  10.8657720  80.0212100   2.5592070  10.3173180  80.2920670
   2.2070510  11.7313730  79.8818090   4.9331900  10.0388030  71.8437670
   5.7260510  10.3276860  71.3919460   4.4136250   9.6080200  71.1650150
   9.6652500   6.1583660  89.1573090   9.0590660   6.1815260  88.4168840
   9.3606610   5.4266700  89.6940340  11.0952870   9.8863950  87.7682500
  12.0474620   9.8021970  87.7182740  10.9481090  10.5505660  88.4416290
  13.9862070   9.2658160  73.2674410  13.7003580   8.8523300  72.4528590
  13.7881620  10.1945870  73.1474930   5.4509300   5.2591440  71.7080020
   5.3459940   4.6443790  72.4341400   5.2833520   4.7357330  70.9243030
   5.6023620   3.9448240  87.6869250   4.8369290   4.5133240  87.6023920
   5.7839580   3.6524450  86.7937480   8.6912030   4.3211470  72.3122010
   8.1422130   4.7680770  72.9564750   9.3131290   3.8160720  72.8359680
  12.7446970   5.6753570  88.2444270  13.4856440   6.0129330  87.7411730
  11.9819650   5.8445630  87.6914040   4.3587150   3.2802390  74.2087310
   4.7803570   3.1142260  75.0518700   4.4837990   2.4702620  73.7142450
   6.8714790   2.3040000  71.4564410   7.3920450   1.5889020  71.0905560
   7.5183190   2.9425870  71.7564920  11.4192630   3.7268400  86.7799480
  11.8333650   3.8813480  87.6289900  10.4843630   3.8523620  86.9425260
   6.1807860   3.6788880  84.7495410   6.5995970   4.5221610  84.5771650
   5.2616490   3.8160920  84.5202190  10.8559660   1.9642250  84.7095760
  10.3294880   2.4884870  84.1060900  11.1991000   2.5969640  85.3405490
   4.0315280   9.9841890  85.8653140   3.4936370  10.7087950  85.5461840
   4.2849240   9.5072230  85.0750480   6.8877490  11.2193100  86.1239790
   6.8136190  12.1228240  86.4312160   5.9856330  10.9005000  86.0961860
   7.4362820  10.3851610  73.7466150   8.3313610  10.7236580  73.7684910
   7.4680450   9.6631020  73.1190430   2.8866700   6.8776700  77.0875380
   2.5862240   6.7541670  77.9879290   2.7804190   6.0185290  76.6791110
  14.4157170   8.9155280  86.4532350  13.8159160   8.9747840  85.7096270
  14.5451070   7.9760260  86.5829200  15.6558620   6.6573100  71.7902060
  14.8251580   6.7249750  72.2609290  15.8330450   7.5477220  71.4868920
  15.1115080   3.4020580  74.2936260  15.8733990   3.9717230  74.3995950
  15.1269450   2.8347780  75.0644570  16.1175050   4.2570680  79.1378190
  16.4883880   3.4738000  78.7314160  16.7576980   4.9459780  78.9595490
  13.1008810   5.6407260  84.5508510  12.2868650   6.0704420  84.8134300
  13.5083010   6.2525670  83.9377560  15.1634250   3.6954950  71.4508780
  15.4383090   4.6033830  71.3228000  14.9744990   3.6317480  72.3870770
  13.1584860  10.3925860  78.0776780  13.7543930  10.0710430  77.4011200
  13.4163010   9.9197680  78.8690050   4.7653460   8.3803360  83.8277130
   4.5244820   8.6477920  82.9407650   5.7056100   8.5509090  83.8827990
  16.0257620  10.3997740  84.6287770  15.5315900  10.7966610  83.9114900
  15.4170910   9.7746950  85.0225050  13.7097070  11.0421160  81.9074510
  13.2500040  11.7936970  81.5332530  13.0809530  10.3227630  81.8489310
   4.1392790   9.3509400  81.0822640   4.6557810   8.7396760  80.5570900
   4.7890170   9.8538180  81.5733650   6.8788290  10.2417890  81.9091620
   7.1666100   9.9872190  81.0324630   7.3911510   9.6895250  82.4997190
   6.9460650  11.1633990  89.2759820   7.8727960  10.9278260  89.3195780
   6.9311080  11.9905990  88.7945850  15.1805710  10.7059560  76.2734070
  15.3557900  10.0197300  75.6294990  14.4827280  11.2306610  75.8810740
   3.0233360  11.0954400  73.8269380   3.7552180  10.8113680  73.2793270
   3.2827030  10.8567680  74.7168760   2.1848150   7.2119130  73.8315710
   1.5557030   7.6804230  74.3801540   2.2995980   6.3668350  74.2661900
  13.5138210  10.3903850  89.1000860  14.3063530   9.8953080  88.8926820
  13.8071360  11.0693990  89.7076470   7.7715910   3.0403810  61.8626180
   6.9958010   2.5604250  62.1524750   8.4228840   2.3609460  61.6882340
  11.7923340   7.4464000  60.6425310  11.3304870   6.6751240  60.9712480
  12.6048890   7.4730070  61.1477760   1.7683000   7.3863710  62.9359960
   2.0711040   6.4961450  62.7570180   2.5126590   7.9433930  62.7082210
   8.0186650   9.7322010  60.2629300   7.3998090  10.1879510  59.6923740
   8.8738430   9.8873470  59.8619000   7.2124900   5.7161000  61.8696340
   7.1433180   4.7750940  61.7085470   7.9744760   5.8062410  62.4418910
   8.8850000   4.6161250  57.6561210   8.2667270   5.0810700  57.0923930
   9.3973250   5.3088730  58.0730720   3.7481760   4.1437120  64.3344810
   3.4151140   4.7706040  64.9765880   3.9248440   4.6699000  63.5546480
   2.9600860   6.1117920  66.1493990   3.5774860   6.7869000  65.8678440
   2.0993980   6.5205900  66.0581490  13.8778450   7.5757330  64.0648630
  13.1941970   8.2456440  64.0565300  14.4172740   7.7737980  63.2993490
  11.4137190   9.4201460  62.7793810  11.4264350   9.0163750  61.9116070
  10.8612410  10.1948750  62.6755240  12.7082610   6.1417680  57.8683980
  12.5978940   5.1992010  57.9933400  12.7050860   6.5033320  58.7546740
  10.8122630   4.3231300  64.1076420  11.2291420   4.1091410  63.2729880
  11.5362450   4.5804090  64.6785040   8.2502890   1.7683000  57.2246470
   7.3232170   1.7020380  57.4534940   8.4027710   2.7063130  57.1101710
  14.7584730   2.7218520  64.1992660  13.9303360   2.7911610  63.7242790
  15.3535210   3.3072830  63.7308490  12.2800180   3.3303300  57.7281720
  11.6612600   2.9922850  57.0808020  12.2624630   2.6863060  58.4360910
   3.8559530   2.2947740  60.0066200   3.4516530   1.5824990  59.5112100
   3.9422650   1.9500980  60.8954240   4.3241230   5.9815300  62.1705410
   4.0269520   5.3760770  61.4913190   5.2741050   6.0192610  62.0594770
  12.4126840   9.5547170  65.8328510  11.9357400  10.3619360  65.6401120
  11.7288630   8.9025500  65.9854720   3.4159660   5.7196990  68.8213210
   2.5188190   5.9436960  69.0686610   3.4412530   5.8431930  67.8724610
  10.4564880   2.5690110  54.7354470  10.8958160   1.7312540  54.5892290
  11.1693300   3.2019510  54.8218610   2.2430880   2.5910310  67.3970580
   2.1038650   3.4633110  67.7657980   1.3612240   2.2483120  67.2518520
   8.5660260   7.5086180  58.7035710   9.0056170   8.2510510  58.2891100
   8.5047150   7.7512750  59.6274670   4.0411230   8.5332010  69.6055730
   4.0126660   8.9374960  68.7384160   3.8776200   7.6042370  69.4427330
  15.9926050   9.3159110  70.9019900  16.4685770   9.7942000  71.5808980
  16.6133210   9.2476600  70.1765400  15.3959300   6.5071960  68.0619910
  15.5222360   6.2683840  67.1437090  15.4380680   5.6756500  68.5341990
   9.2576040  10.2099960  66.6314720   9.7720710  10.1207970  67.4337150
   8.4145120  10.5559660  66.9242630  11.2330440  10.4955300  56.0598720
  11.0731580  10.2058240  56.9580550  11.0677150   9.7195430  55.5243950
   3.7118820  10.2753830  57.8370340   3.5361300   9.3589370  57.6238140
   2.8574560  10.6341120  58.0768140  10.9356570   8.0042860  54.6196720
  10.2421730   8.0020150  53.9599000  11.6779430   7.5802180  54.1890890
  10.5006500   9.6305570  58.6945210  10.9563450   8.8494950  59.0083830
  10.8399020  10.3412390  59.2386390   2.2926330   4.8719630  56.4091440
   1.5188590   4.3317250  56.2490160   3.0220960   4.3526240  56.0709200
  13.0514310   3.8684990  62.2017830  13.7713430   4.3640280  61.8113940
  12.8496130   3.1902880  61.5571700   8.4333110   3.9394050  68.0886830
   8.3670420   3.0189720  67.8344420   7.8038250   4.0369490  68.8031470
   2.3363730   4.5400010  60.0470250   2.8542400   3.7368270  59.9927140
   1.8847750   4.4779150  60.8887080   7.2233230   5.8066290  55.3197550
   7.5648930   6.5508520  54.8240870   6.3945940   6.1197410  55.6822380
   8.3649840   6.7614620  67.8390630   8.3794380   5.8295580  67.6209540
   7.6574940   6.8474380  68.4780400  14.5761050   3.4021960  67.1859210
  13.8509240   3.9950740  66.9888600  15.1036510   3.3945500  66.3872580
  14.5274160   7.7996700  56.8371370  13.8850320   7.1452320  57.1115090
  14.1404820   8.2051790  56.0612040  10.1060640   5.1282130  60.6843060
  10.4584460   4.5310260  60.0244430   9.2222970   4.8026360  60.8551310
   6.1923920   5.8879820  58.0913470   6.8795050   6.4349030  58.4721060
   5.4056340   6.4320550  58.1263080   5.4951130   2.8925850  57.7038830
   5.9513910   3.7031100  57.9299020   5.1439340   2.5748990  58.5357320
   7.7983740   8.4032190  64.9331130   8.4425960   8.6091570  65.6104550
   8.1613180   7.6420590  64.4801980   9.0715820   6.4064540  63.6508580
   9.7138050   5.7057700  63.7640750   9.5965170   7.1862980  63.4705470
  12.9171540   6.6913160  53.3747720  12.6909120   5.9743600  53.9672360
  12.5267740   6.4425600  52.5369470  10.8453440   7.2059440  66.8544640
  11.1809680   7.7926130  67.5322560   9.9253780   7.0752150  67.0842430
  12.4987790   4.6085100  55.0361880  12.2109490   5.0697790  55.8239760
  13.2939960   4.1482870  55.3046100   6.6742020   7.2550770  70.0232700
   6.3538890   6.5360010  70.5678390   6.0000380   7.9305840  70.0968760
   4.7156190   8.1011220  54.9665850   4.7066290   8.8340910  54.3510360
   3.7954550   7.8542800  55.0592810   7.7015790   8.1639460  53.6291040
   7.8027770   7.9603450  52.6993020   6.8017530   7.9097740  53.8338820
   6.3433900  10.6825780  58.3238710   6.5975400  10.6447170  57.4018080
   5.3946380  10.5559110  58.3166960   2.3268120   3.2837260  53.4601180
   3.0931390   3.1718620  54.0226610   2.4042810   2.5875230  52.8077950
  14.3512060   8.7726510  61.5751480  14.4759480   9.5957680  62.0475290
  15.2177620   8.5617240  61.2275630   1.8229590  10.8657720  61.2468610
   2.5592070  10.3173180  61.5177180   2.2070510  11.7313730  61.1074600
   4.9331900  10.0388030  53.0694180   5.7260510  10.3276860  52.6175970
   4.4136250   9.6080200  52.3906660   9.6652500   6.1583660  70.3829600
   9.0590660   6.1815260  69.6425350   9.3606610   5.4266700  70.9196850
  11.0952870   9.8863950  68.9939010  12.0474620   9.8021970  68.9439250
  10.9481090  10.5505660  69.6672800  13.9862070   9.2658160  54.4930920
  13.7003580   8.8523300  53.6785100  13.7881620  10.1945870  54.3731440
   5.4509300   5.2591440  52.9336530   5.3459940   4.6443790  53.6597910
   5.2833520   4.7357330  52.1499540   5.6023620   3.9448240  68.9125760
   4.8369290   4.5133240  68.8280430   5.7839580   3.6524450  68.0193990
   8.6912030   4.3211470  53.5378520   8.1422130   4.7680770  54.1821260
   9.3131290   3.8160720  54.0616190  12.7446970   5.6753570  69.4700780
  13.4856440   6.0129330  68.9668240  11.9819650   5.8445630  68.9170550
   4.3587150   3.2802390  55.4343820   4.7803570   3.1142260  56.2775210
   4.4837990   2.4702620  54.9398960   6.8714790   2.3040000  52.6820920
   7.3920450   1.5889020  52.3162070   7.5183190   2.9425870  52.9821430
  11.4192630   3.7268400  68.0055990  11.8333650   3.8813480  68.8546410
  10.4843630   3.8523620  68.1681770   6.1807860   3.6788880  65.9751920
   6.5995970   4.5221610  65.8028160   5.2616490   3.8160920  65.7458700
  10.8559660   1.9642250  65.9352270  10.3294880   2.4884870  65.3317410
  11.1991000   2.5969640  66.5662000   4.0315280   9.9841890  67.0909650
   3.4936370  10.7087950  66.7718350   4.2849240   9.5072230  66.3006990
   6.8877490  11.2193100  67.3496300   6.8136190  12.1228240  67.6568670
   5.9856330  10.9005000  67.3218370   7.4362820  10.3851610  54.9722660
   8.3313610  10.7236580  54.9941420   7.4680450   9.6631020  54.3446940
   2.8866700   6.8776700  58.3131890   2.5862240   6.7541670  59.2135800
   2.7804190   6.0185290  57.9047620  14.4157170   8.9155280  67.6788860
  13.8159160   8.9747840  66.9352780  14.5451070   7.9760260  67.8085710
  15.6558620   6.6573100  53.0158570  14.8251580   6.7249750  53.4865800
  15.8330450   7.5477220  52.7125430  15.1115080   3.4020580  55.5192770
  15.8733990   3.9717230  55.6252460  15.1269450   2.8347780  56.2901080
  16.1175050   4.2570680  60.3634700  16.4883880   3.4738000  59.9570670
  16.7576980   4.9459780  60.1852000  13.1008810   5.6407260  65.7765020
  12.2868650   6.0704420  66.0390810  13.5083010   6.2525670  65.1634070
  15.1634250   3.6954950  52.6765290  15.4383090   4.6033830  52.5484510
  14.9744990   3.6317480  53.6127280  13.1584860  10.3925860  59.3033290
  13.7543930  10.0710430  58.6267710  13.4163010   9.9197680  60.0946560
   4.7653460   8.3803360  65.0533640   4.5244820   8.6477920  64.1664160
   5.7056100   8.5509090  65.1084500  16.0257620  10.3997740  65.8544280
  15.5315900  10.7966610  65.1371410  15.4170910   9.7746950  66.2481560
  13.7097070  11.0421160  63.1331020  13.2500040  11.7936970  62.7589040
  13.0809530  10.3227630  63.0745820   4.1392790   9.3509400  62.3079150
   4.6557810   8.7396760  61.7827410   4.7890170   9.8538180  62.7990160
   6.8788290  10.2417890  63.1348130   7.1666100   9.9872190  62.2581140
   7.3911510   9.6895250  63.7253700   6.9460650  11.1633990  70.5016330
   7.8727960  10.9278260  70.5452290   6.9311080  11.9905990  70.0202360
  15.1805710  10.7059560  57.4990580  15.3557900  10.0197300  56.8551500
  14.4827280  11.2306610  57.1067250   3.0233360  11.0954400  55.0525890
   3.7552180  10.8113680  54.5049780   3.2827030  10.8567680  55.9425270
   2.1848150   7.2119130  55.0572220   1.5557030   7.6804230  55.6058050
   2.2995980   6.3668350  55.4918410  13.5138210  10.3903850  70.3257370
  14.3063530   9.8953080  70.1183330  13.8071360  11.0693990  70.9332980
   7.7715910   3.0403810  43.0882690   6.9958010   2.5604250  43.3781260
   8.4228840   2.3609460  42.9138850  11.7923340   7.4464000  41.8681820
  11.3304870   6.6751240  42.1968990  12.6048890   7.4730070  42.3734270
   1.7683000   7.3863710  44.1616470   2.0711040   6.4961450  43.9826690
   2.5126590   7.9433930  43.9338720   8.0186650   9.7322010  41.4885810
   7.3998090  10.1879510  40.9180250   8.8738430   9.8873470  41.0875510
   7.2124900   5.7161000  43.0952850   7.1433180   4.7750940  42.9341980
   7.9744760   5.8062410  43.6675420   8.8850000   4.6161250  38.8817720
   8.2667270   5.0810700  38.3180440   9.3973250   5.3088730  39.2987230
   3.7481760   4.1437120  45.5601320   3.4151140   4.7706040  46.2022390
   3.9248440   4.6699000  44.7802990   2.9600860   6.1117920  47.3750500
   3.5774860   6.7869000  47.0934950   2.0993980   6.5205900  47.2838000
  13.8778450   7.5757330  45.2905140  13.1941970   8.2456440  45.2821810
  14.4172740   7.7737980  44.5250000  11.4137190   9.4201460  44.0050320
  11.4264350   9.0163750  43.1372580  10.8612410  10.1948750  43.9011750
  12.7082610   6.1417680  39.0940490  12.5978940   5.1992010  39.2189910
  12.7050860   6.5033320  39.9803250  10.8122630   4.3231300  45.3332930
  11.2291420   4.1091410  44.4986390  11.5362450   4.5804090  45.9041550
   8.2502890   1.7683000  38.4502980   7.3232170   1.7020380  38.6791450
   8.4027710   2.7063130  38.3358220  14.7584730   2.7218520  45.4249170
  13.9303360   2.7911610  44.9499300  15.3535210   3.3072830  44.9565000
  12.2800180   3.3303300  38.9538230  11.6612600   2.9922850  38.3064530
  12.2624630   2.6863060  39.6617420   3.8559530   2.2947740  41.2322710
   3.4516530   1.5824990  40.7368610   3.9422650   1.9500980  42.1210750
   4.3241230   5.9815300  43.3961920   4.0269520   5.3760770  42.7169700
   5.2741050   6.0192610  43.2851280  12.4126840   9.5547170  47.0585020
  11.9357400  10.3619360  46.8657630  11.7288630   8.9025500  47.2111230
   3.4159660   5.7196990  50.0469720   2.5188190   5.9436960  50.2943120
   3.4412530   5.8431930  49.0981120  10.4564880   2.5690110  35.9610980
  10.8958160   1.7312540  35.8148800  11.1693300   3.2019510  36.0475120
   2.2430880   2.5910310  48.6227090   2.1038650   3.4633110  48.9914490
   1.3612240   2.2483120  48.4775030   8.5660260   7.5086180  39.9292220
   9.0056170   8.2510510  39.5147610   8.5047150   7.7512750  40.8531180
   4.0411230   8.5332010  50.8312240   4.0126660   8.9374960  49.9640670
   3.8776200   7.6042370  50.6683840  15.9926050   9.3159110  52.1276410
  16.4685770   9.7942000  52.8065490  16.6133210   9.2476600  51.4021910
  15.3959300   6.5071960  49.2876420  15.5222360   6.2683840  48.3693600
  15.4380680   5.6756500  49.7598500   9.2576040  10.2099960  47.8571230
   9.7720710  10.1207970  48.6593660   8.4145120  10.5559660  48.1499140
  11.2330440  10.4955300  37.2855230  11.0731580  10.2058240  38.1837060
  11.0677150   9.7195430  36.7500460   3.7118820  10.2753830  39.0626850
   3.5361300   9.3589370  38.8494650   2.8574560  10.6341120  39.3024650
  10.9356570   8.0042860  35.8453230  10.2421730   8.0020150  35.1855510
  11.6779430   7.5802180  35.4147400  10.5006500   9.6305570  39.9201720
  10.9563450   8.8494950  40.2340340  10.8399020  10.3412390  40.4642900
   2.2926330   4.8719630  37.6347950   1.5188590   4.3317250  37.4746670
   3.0220960   4.3526240  37.2965710  13.0514310   3.8684990  43.4274340
  13.7713430   4.3640280  43.0370450  12.8496130   3.1902880  42.7828210
   8.4333110   3.9394050  49.3143340   8.3670420   3.0189720  49.0600930
   7.8038250   4.0369490  50.0287980   2.3363730   4.5400010  41.2726760
   2.8542400   3.7368270  41.2183650   1.8847750   4.4779150  42.1143590
   7.2233230   5.8066290  36.5454060   7.5648930   6.5508520  36.0497380
   6.3945940   6.1197410  36.9078890   8.3649840   6.7614620  49.0647140
   8.3794380   5.8295580  48.8466050   7.6574940   6.8474380  49.7036910
  14.5761050   3.4021960  48.4115720  13.8509240   3.9950740  48.2145110
  15.1036510   3.3945500  47.6129090  14.5274160   7.7996700  38.0627880
  13.8850320   7.1452320  38.3371600  14.1404820   8.2051790  37.2868550
  10.1060640   5.1282130  41.9099570  10.4584460   4.5310260  41.2500940
   9.2222970   4.8026360  42.0807820   6.1923920   5.8879820  39.3169980
   6.8795050   6.4349030  39.6977570   5.4056340   6.4320550  39.3519590
   5.4951130   2.8925850  38.9295340   5.9513910   3.7031100  39.1555530
   5.1439340   2.5748990  39.7613830   7.7983740   8.4032190  46.1587640
   8.4425960   8.6091570  46.8361060   8.1613180   7.6420590  45.7058490
   9.0715820   6.4064540  44.8765090   9.7138050   5.7057700  44.9897260
   9.5965170   7.1862980  44.6961980  12.9171540   6.6913160  34.6004230
  12.6909120   5.9743600  35.1928870  12.5267740   6.4425600  33.7625980
  10.8453440   7.2059440  48.0801150  11.1809680   7.7926130  48.7579070
   9.9253780   7.0752150  48.3098940  12.4987790   4.6085100  36.2618390
  12.2109490   5.0697790  37.0496270  13.2939960   4.1482870  36.5302610
   6.6742020   7.2550770  51.2489210   6.3538890   6.5360010  51.7934900
   6.0000380   7.9305840  51.3225270   4.7156190   8.1011220  36.1922360
   4.7066290   8.8340910  35.5766870   3.7954550   7.8542800  36.2849320
   7.7015790   8.1639460  34.8547550   7.8027770   7.9603450  33.9249530
   6.8017530   7.9097740  35.0595330   6.3433900  10.6825780  39.5495220
   6.5975400  10.6447170  38.6274590   5.3946380  10.5559110  39.5423470
   2.3268120   3.2837260  34.6857690   3.0931390   3.1718620  35.2483120
   2.4042810   2.5875230  34.0334460  14.3512060   8.7726510  42.8007990
  14.4759480   9.5957680  43.2731800  15.2177620   8.5617240  42.4532140
   1.8229590  10.8657720  42.4725120   2.5592070  10.3173180  42.7433690
   2.2070510  11.7313730  42.3331110   4.9331900  10.0388030  34.2950690
   5.7260510  10.3276860  33.8432480   4.4136250   9.6080200  33.6163170
   9.6652500   6.1583660  51.6086110   9.0590660   6.1815260  50.8681860
   9.3606610   5.4266700  52.1453360  11.0952870   9.8863950  50.2195520
  12.0474620   9.8021970  50.1695760  10.9481090  10.5505660  50.8929310
  13.9862070   9.2658160  35.7187430  13.7003580   8.8523300  34.9041610
  13.7881620  10.1945870  35.5987950   5.4509300   5.2591440  34.1593040
   5.3459940   4.6443790  34.8854420   5.2833520   4.7357330  33.3756050
   5.6023620   3.9448240  50.1382270   4.8369290   4.5133240  50.0536940
   5.7839580   3.6524450  49.2450500   8.6912030   4.3211470  34.7635030
   8.1422130   4.7680770  35.4077770   9.3131290   3.8160720  35.2872700
  12.7446970   5.6753570  50.6957290  13.4856440   6.0129330  50.1924750
  11.9819650   5.8445630  50.1427060   4.3587150   3.2802390  36.6600330
   4.7803570   3.1142260  37.5031720   4.4837990   2.4702620  36.1655470
   6.8714790   2.3040000  33.9077430   7.3920450   1.5889020  33.5418580
   7.5183190   2.9425870  34.2077940  11.4192630   3.7268400  49.2312500
  11.8333650   3.8813480  50.0802920  10.4843630   3.8523620  49.3938280
   6.1807860   3.6788880  47.2008430   6.5995970   4.5221610  47.0284670
   5.2616490   3.8160920  46.9715210  10.8559660   1.9642250  47.1608780
  10.3294880   2.4884870  46.5573920  11.1991000   2.5969640  47.7918510
   4.0315280   9.9841890  48.3166160   3.4936370  10.7087950  47.9974860
   4.2849240   9.5072230  47.5263500   6.8877490  11.2193100  48.5752810
   6.8136190  12.1228240  48.8825180   5.9856330  10.9005000  48.5474880
   7.4362820  10.3851610  36.1979170   8.3313610  10.7236580  36.2197930
   7.4680450   9.6631020  35.5703450   2.8866700   6.8776700  39.5388400
   2.5862240   6.7541670  40.4392310   2.7804190   6.0185290  39.1304130
  14.4157170   8.9155280  48.9045370  13.8159160   8.9747840  48.1609290
  14.5451070   7.9760260  49.0342220  15.6558620   6.6573100  34.2415080
  14.8251580   6.7249750  34.7122310  15.8330450   7.5477220  33.9381940
  15.1115080   3.4020580  36.7449280  15.8733990   3.9717230  36.8508970
  15.1269450   2.8347780  37.5157590  16.1175050   4.2570680  41.5891210
  16.4883880   3.4738000  41.1827180  16.7576980   4.9459780  41.4108510
  13.1008810   5.6407260  47.0021530  12.2868650   6.0704420  47.2647320
  13.5083010   6.2525670  46.3890580  15.1634250   3.6954950  33.9021800
  15.4383090   4.6033830  33.7741020  14.9744990   3.6317480  34.8383790
  13.1584860  10.3925860  40.5289800  13.7543930  10.0710430  39.8524220
  13.4163010   9.9197680  41.3203070   4.7653460   8.3803360  46.2790150
   4.5244820   8.6477920  45.3920670   5.7056100   8.5509090  46.3341010
  16.0257620  10.3997740  47.0800790  15.5315900  10.7966610  46.3627920
  15.4170910   9.7746950  47.4738070  13.7097070  11.0421160  44.3587530
  13.2500040  11.7936970  43.9845550  13.0809530  10.3227630  44.3002330
   4.1392790   9.3509400  43.5335660   4.6557810   8.7396760  43.0083920
   4.7890170   9.8538180  44.0246670   6.8788290  10.2417890  44.3604640
   7.1666100   9.9872190  43.4837650   7.3911510   9.6895250  44.9510210
   6.9460650  11.1633990  51.7272840   7.8727960  10.9278260  51.7708800
   6.9311080  11.9905990  51.2458870  15.1805710  10.7059560  38.7247090
  15.3557900  10.0197300  38.0808010  14.4827280  11.2306610  38.3323760
   3.0233360  11.0954400  36.2782400   3.7552180  10.8113680  35.7306290
   3.2827030  10.8567680  37.1681780   2.1848150   7.2119130  36.2828730
   1.5557030   7.6804230  36.8314560   2.2995980   6.3668350  36.7174920
  13.5138210  10.3903850  51.5513880  14.3063530   9.8953080  51.3439840
  13.8071360  11.0693990  52.1589490   7.7715910   3.0403810  24.3139200
   6.9958010   2.5604250  24.6037770   8.4228840   2.3609460  24.1395360
  11.7923340   7.4464000  23.0938330  11.3304870   6.6751240  23.4225500
  12.6048890   7.4730070  23.5990780   1.7683000   7.3863710  25.3872980
   2.0711040   6.4961450  25.2083200   2.5126590   7.9433930  25.1595230
   8.0186650   9.7322010  22.7142320   7.3998090  10.1879510  22.1436760
   8.8738430   9.8873470  22.3132020   7.2124900   5.7161000  24.3209360
   7.1433180   4.7750940  24.1598490   7.9744760   5.8062410  24.8931930
   8.8850000   4.6161250  20.1074230   8.2667270   5.0810700  19.5436950
   9.3973250   5.3088730  20.5243740   3.7481760   4.1437120  26.7857830
   3.4151140   4.7706040  27.4278900   3.9248440   4.6699000  26.0059500
   2.9600860   6.1117920  28.6007010   3.5774860   6.7869000  28.3191460
   2.0993980   6.5205900  28.5094510  13.8778450   7.5757330  26.5161650
  13.1941970   8.2456440  26.5078320  14.4172740   7.7737980  25.7506510
  11.4137190   9.4201460  25.2306830  11.4264350   9.0163750  24.3629090
  10.8612410  10.1948750  25.1268260  12.7082610   6.1417680  20.3197000
  12.5978940   5.1992010  20.4446420  12.7050860   6.5033320  21.2059760
  10.8122630   4.3231300  26.5589440  11.2291420   4.1091410  25.7242900
  11.5362450   4.5804090  27.1298060   8.2502890   1.7683000  19.6759490
   7.3232170   1.7020380  19.9047960   8.4027710   2.7063130  19.5614730
  14.7584730   2.7218520  26.6505680  13.9303360   2.7911610  26.1755810
  15.3535210   3.3072830  26.1821510  12.2800180   3.3303300  20.1794740
  11.6612600   2.9922850  19.5321040  12.2624630   2.6863060  20.8873930
   3.8559530   2.2947740  22.4579220   3.4516530   1.5824990  21.9625120
   3.9422650   1.9500980  23.3467260   4.3241230   5.9815300  24.6218430
   4.0269520   5.3760770  23.9426210   5.2741050   6.0192610  24.5107790
  12.4126840   9.5547170  28.2841530  11.9357400  10.3619360  28.0914140
  11.7288630   8.9025500  28.4367740   3.4159660   5.7196990  31.2726230
   2.5188190   5.9436960  31.5199630   3.4412530   5.8431930  30.3237630
  10.4564880   2.5690110  17.1867490  10.8958160   1.7312540  17.0405310
  11.1693300   3.2019510  17.2731630   2.2430880   2.5910310  29.8483600
   2.1038650   3.4633110  30.2171000   1.3612240   2.2483120  29.7031540
   8.5660260   7.5086180  21.1548730   9.0056170   8.2510510  20.7404120
   8.5047150   7.7512750  22.0787690   4.0411230   8.5332010  32.0568750
   4.0126660   8.9374960  31.1897180   3.8776200   7.6042370  31.8940350
  15.9926050   9.3159110  33.3532920  16.4685770   9.7942000  34.0322000
  16.6133210   9.2476600  32.6278420  15.3959300   6.5071960  30.5132930
  15.5222360   6.2683840  29.5950110  15.4380680   5.6756500  30.9855010
   9.2576040  10.2099960  29.0827740   9.7720710  10.1207970  29.8850170
   8.4145120  10.5559660  29.3755650  11.2330440  10.4955300  18.5111740
  11.0731580  10.2058240  19.4093570  11.0677150   9.7195430  17.9756970
   3.7118820  10.2753830  20.2883360   3.5361300   9.3589370  20.0751160
   2.8574560  10.6341120  20.5281160  10.9356570   8.0042860  17.0709740
  10.2421730   8.0020150  16.4112020  11.6779430   7.5802180  16.6403910
  10.5006500   9.6305570  21.1458230  10.9563450   8.8494950  21.4596850
  10.8399020  10.3412390  21.6899410   2.2926330   4.8719630  18.8604460
   1.5188590   4.3317250  18.7003180   3.0220960   4.3526240  18.5222220
  13.0514310   3.8684990  24.6530850  13.7713430   4.3640280  24.2626960
  12.8496130   3.1902880  24.0084720   8.4333110   3.9394050  30.5399850
   8.3670420   3.0189720  30.2857440   7.8038250   4.0369490  31.2544490
   2.3363730   4.5400010  22.4983270   2.8542400   3.7368270  22.4440160
   1.8847750   4.4779150  23.3400100   7.2233230   5.8066290  17.7710570
   7.5648930   6.5508520  17.2753890   6.3945940   6.1197410  18.1335400
   8.3649840   6.7614620  30.2903650   8.3794380   5.8295580  30.0722560
   7.6574940   6.8474380  30.9293420  14.5761050   3.4021960  29.6372230
  13.8509240   3.9950740  29.4401620  15.1036510   3.3945500  28.8385600
  14.5274160   7.7996700  19.2884390  13.8850320   7.1452320  19.5628110
  14.1404820   8.2051790  18.5125060  10.1060640   5.1282130  23.1356080
  10.4584460   4.5310260  22.4757450   9.2222970   4.8026360  23.3064330
   6.1923920   5.8879820  20.5426490   6.8795050   6.4349030  20.9234080
   5.4056340   6.4320550  20.5776100   5.4951130   2.8925850  20.1551850
   5.9513910   3.7031100  20.3812040   5.1439340   2.5748990  20.9870340
   7.7983740   8.4032190  27.3844150   8.4425960   8.6091570  28.0617570
   8.1613180   7.6420590  26.9315000   9.0715820   6.4064540  26.1021600
   9.7138050   5.7057700  26.2153770   9.5965170   7.1862980  25.9218490
  12.9171540   6.6913160  15.8260740  12.6909120   5.9743600  16.4185380
  12.5267740   6.4425600  14.9882490  10.8453440   7.2059440  29.3057660
  11.1809680   7.7926130  29.9835580   9.9253780   7.0752150  29.5355450
  12.4987790   4.6085100  17.4874900  12.2109490   5.0697790  18.2752780
  13.2939960   4.1482870  17.7559120   6.6742020   7.2550770  32.4745720
   6.3538890   6.5360010  33.0191410   6.0000380   7.9305840  32.5481780
   4.7156190   8.1011220  17.4178870   4.7066290   8.8340910  16.8023380
   3.7954550   7.8542800  17.5105830   7.7015790   8.1639460  16.0804060
   7.8027770   7.9603450  15.1506040   6.8017530   7.9097740  16.2851840
   6.3433900  10.6825780  20.7751730   6.5975400  10.6447170  19.8531100
   5.3946380  10.5559110  20.7679980   2.3268120   3.2837260  15.9114200
   3.0931390   3.1718620  16.4739630   2.4042810   2.5875230  15.2590970
  14.3512060   8.7726510  24.0264500  14.4759480   9.5957680  24.4988310
  15.2177620   8.5617240  23.6788650   1.8229590  10.8657720  23.6981630
   2.5592070  10.3173180  23.9690200   2.2070510  11.7313730  23.5587620
   4.9331900  10.0388030  15.5207200   5.7260510  10.3276860  15.0688990
   4.4136250   9.6080200  14.8419680   9.6652500   6.1583660  32.8342620
   9.0590660   6.1815260  32.0938370   9.3606610   5.4266700  33.3709870
  11.0952870   9.8863950  31.4452030  12.0474620   9.8021970  31.3952270
  10.9481090  10.5505660  32.1185820  13.9862070   9.2658160  16.9443940
  13.7003580   8.8523300  16.1298120  13.7881620  10.1945870  16.8244460
   5.4509300   5.2591440  15.3849550   5.3459940   4.6443790  16.1110930
   5.2833520   4.7357330  14.6012560   5.6023620   3.9448240  31.3638780
   4.8369290   4.5133240  31.2793450   5.7839580   3.6524450  30.4707010
   8.6912030   4.3211470  15.9891540   8.1422130   4.7680770  16.6334280
   9.3131290   3.8160720  16.5129210  12.7446970   5.6753570  31.9213800
  13.4856440   6.0129330  31.4181260  11.9819650   5.8445630  31.3683570
   4.3587150   3.2802390  17.8856840   4.7803570   3.1142260  18.7288230
   4.4837990   2.4702620  17.3911980   6.8714790   2.3040000  15.1333940
   7.3920450   1.5889020  14.7675090   7.5183190   2.9425870  15.4334450
  11.4192630   3.7268400  30.4569010  11.8333650   3.8813480  31.3059430
  10.4843630   3.8523620  30.6194790   6.1807860   3.6788880  28.4264940
   6.5995970   4.5221610  28.2541180   5.2616490   3.8160920  28.1971720
  10.8559660   1.9642250  28.3865290  10.3294880   2.4884870  27.7830430
  11.1991000   2.5969640  29.0175020   4.0315280   9.9841890  29.5422670
   3.4936370  10.7087950  29.2231370   4.2849240   9.5072230  28.7520010
   6.8877490  11.2193100  29.8009320   6.8136190  12.1228240  30.1081690
   5.9856330  10.9005000  29.7731390   7.4362820  10.3851610  17.4235680
   8.3313610  10.7236580  17.4454440   7.4680450   9.6631020  16.7959960
   2.8866700   6.8776700  20.7644910   2.5862240   6.7541670  21.6648820
   2.7804190   6.0185290  20.3560640  14.4157170   8.9155280  30.1301880
  13.8159160   8.9747840  29.3865800  14.5451070   7.9760260  30.2598730
  15.6558620   6.6573100  15.4671590  14.8251580   6.7249750  15.9378820
  15.8330450   7.5477220  15.1638450  15.1115080   3.4020580  17.9705790
  15.8733990   3.9717230  18.0765480  15.1269450   2.8347780  18.7414100
  16.1175050   4.2570680  22.8147720  16.4883880   3.4738000  22.4083690
  16.7576980   4.9459780  22.6365020  13.1008810   5.6407260  28.2278040
  12.2868650   6.0704420  28.4903830  13.5083010   6.2525670  27.6147090
  15.1634250   3.6954950  15.1278310  15.4383090   4.6033830  14.9997530
  14.9744990   3.6317480  16.0640300  13.1584860  10.3925860  21.7546310
  13.7543930  10.0710430  21.0780730  13.4163010   9.9197680  22.5459580
   4.7653460   8.3803360  27.5046660   4.5244820   8.6477920  26.6177180
   5.7056100   8.5509090  27.5597520  16.0257620  10.3997740  28.3057300
  15.5315900  10.7966610  27.5884430  15.4170910   9.7746950  28.6994580
  13.7097070  11.0421160  25.5844040  13.2500040  11.7936970  25.2102060
  13.0809530  10.3227630  25.5258840   4.1392790   9.3509400  24.7592170
   4.6557810   8.7396760  24.2340430   4.7890170   9.8538180  25.2503180
   6.8788290  10.2417890  25.5861150   7.1666100   9.9872190  24.7094160
   7.3911510   9.6895250  26.1766720   6.9460650  11.1633990  32.9529350
   7.8727960  10.9278260  32.9965310   6.9311080  11.9905990  32.4715380
  15.1805710  10.7059560  19.9503600  15.3557900  10.0197300  19.3064520
  14.4827280  11.2306610  19.5580270   3.0233360  11.0954400  17.5038910
   3.7552180  10.8113680  16.9562800   3.2827030  10.8567680  18.3938290
   2.1848150   7.2119130  17.5085240   1.5557030   7.6804230  18.0571070
   2.2995980   6.3668350  17.9431430  13.5138210  10.3903850  32.7770390
  14.3063530   9.8953080  32.5696350  13.8071360  11.0693990  33.3846000
   7.7715910   3.0403810   5.5395710   6.9958010   2.5604250   5.8294280
   8.4228840   2.3609460   5.3651870  11.7923340   7.4464000   4.3194840
  11.3304870   6.6751240   4.6482010  12.6048890   7.4730070   4.8247290
   1.7683000   7.3863710   6.6129490   2.0711040   6.4961450   6.4339710
   2.5126590   7.9433930   6.3851740   8.0186650   9.7322010   3.9398830
   7.3998090  10.1879510   3.3693270   8.8738430   9.8873470   3.5388530
   7.2124900   5.7161000   5.5465870   7.1433180   4.7750940   5.3855000
   7.9744760   5.8062410   6.1188440   3.7481760   4.1437120   8.0114340
   3.4151140   4.7706040   8.6535410   3.9248440   4.6699000   7.2316010
   2.9600860   6.1117920   9.8263520   3.5774860   6.7869000   9.5447970
   2.0993980   6.5205900   9.7351020  13.8778450   7.5757330   7.7418160
  13.1941970   8.2456440   7.7334830  14.4172740   7.7737980   6.9763020
  11.4137190   9.4201460   6.4563340  11.4264350   9.0163750   5.5885600
  10.8612410  10.1948750   6.3524770  10.8122630   4.3231300   7.7845950
  11.2291420   4.1091410   6.9499410  11.5362450   4.5804090   8.3554570
  14.7584730   2.7218520   7.8762190  13.9303360   2.7911610   7.4012320
  15.3535210   3.3072830   7.4078020   3.8559530   2.2947740   3.6835730
   3.4516530   1.5824990   3.1881630   3.9422650   1.9500980   4.5723770
   4.3241230   5.9815300   5.8474940   4.0269520   5.3760770   5.1682720
   5.2741050   6.0192610   5.7364300  12.4126840   9.5547170   9.5098040
  11.9357400  10.3619360   9.3170650  11.7288630   8.9025500   9.6624250
   3.4159660   5.7196990  12.4982740   2.5188190   5.9436960  12.7456140
   3.4412530   5.8431930  11.5494140   2.2430880   2.5910310  11.0740110
   2.1038650   3.4633110  11.4427510   1.3612240   2.2483120  10.9288050
   8.5660260   7.5086180   2.3805240   9.0056170   8.2510510   1.9660630
   8.5047150   7.7512750   3.3044200   4.0411230   8.5332010  13.2825260
   4.0126660   8.9374960  12.4153690   3.8776200   7.6042370  13.1196860
  15.9926050   9.3159110  14.5789430  16.4685770   9.7942000  15.2578510
  16.6133210   9.2476600  13.8534930  15.3959300   6.5071960  11.7389440
  15.5222360   6.2683840  10.8206620  15.4380680   5.6756500  12.2111520
   9.2576040  10.2099960  10.3084250   9.7720710  10.1207970  11.1106680
   8.4145120  10.5559660  10.6012160  10.5006500   9.6305570   2.3714740
  10.9563450   8.8494950   2.6853360  10.8399020  10.3412390   2.9155920
  13.0514310   3.8684990   5.8787360  13.7713430   4.3640280   5.4883470
  12.8496130   3.1902880   5.2341230   8.4333110   3.9394050  11.7656360
   8.3670420   3.0189720  11.5113950   7.8038250   4.0369490  12.4801000
   2.3363730   4.5400010   3.7239780   2.8542400   3.7368270   3.6696670
   1.8847750   4.4779150   4.5656610   8.3649840   6.7614620  11.5160160
   8.3794380   5.8295580  11.2979070   7.6574940   6.8474380  12.1549930
  14.5761050   3.4021960  10.8628740  13.8509240   3.9950740  10.6658130
  15.1036510   3.3945500  10.0642110  10.1060640   5.1282130   4.3612590
  10.4584460   4.5310260   3.7013960   9.2222970   4.8026360   4.5320840
   6.1923920   5.8879820   1.7683000   6.8795050   6.4349030   2.1490590
   5.4056340   6.4320550   1.8032610   7.7983740   8.4032190   8.6100660
   8.4425960   8.6091570   9.2874080   8.1613180   7.6420590   8.1571510
   9.0715820   6.4064540   7.3278110   9.7138050   5.7057700   7.4410280
   9.5965170   7.1862980   7.1475000  10.8453440   7.2059440  10.5314170
  11.1809680   7.7926130  11.2092090   9.9253780   7.0752150  10.7611960
   6.6742020   7.2550770  13.7002230   6.3538890   6.5360010  14.2447920
   6.0000380   7.9305840  13.7738290  14.3512060   8.7726510   5.2521010
  14.4759480   9.5957680   5.7244820  15.2177620   8.5617240   4.9045160
   1.8229590  10.8657720   4.9238140   2.5592070  10.3173180   5.1946710
   2.2070510  11.7313730   4.7844130   9.6652500   6.1583660  14.0599130
   9.0590660   6.1815260  13.3194880   9.3606610   5.4266700  14.5966380
  11.0952870   9.8863950  12.6708540  12.0474620   9.8021970  12.6208780
  10.9481090  10.5505660  13.3442330   5.6023620   3.9448240  12.5895290
   4.8369290   4.5133240  12.5049960   5.7839580   3.6524450  11.6963520
  12.7446970   5.6753570  13.1470310  13.4856440   6.0129330  12.6437770
  11.9819650   5.8445630  12.5940080  11.4192630   3.7268400  11.6825520
  11.8333650   3.8813480  12.5315940  10.4843630   3.8523620  11.8451300
   6.1807860   3.6788880   9.6521450   6.5995970   4.5221610   9.4797690
   5.2616490   3.8160920   9.4228230  10.8559660   1.9642250   9.6121800
  10.3294880   2.4884870   9.0086940  11.1991000   2.5969640  10.2431530
   4.0315280   9.9841890  10.7679180   3.4936370  10.7087950  10.4487880
   4.2849240   9.5072230   9.9776520   6.8877490  11.2193100  11.0265830
   6.8136190  12.1228240  11.3338200   5.9856330  10.9005000  10.9987900
  14.4157170   8.9155280  11.3558390  13.8159160   8.9747840  10.6122310
  14.5451070   7.9760260  11.4855240  16.1175050   4.2570680   4.0404230
  16.4883880   3.4738000   3.6340200  16.7576980   4.9459780   3.8621530
  13.1008810   5.6407260   9.4534550  12.2868650   6.0704420   9.7160340
  13.5083010   6.2525670   8.8403600  13.1584860  10.3925860   2.9802820
  13.7543930  10.0710430   2.3037240  13.4163010   9.9197680   3.7716090
   4.7653460   8.3803360   8.7303170   4.5244820   8.6477920   7.8433690
   5.7056100   8.5509090   8.7854030  16.0257620  10.3997740   9.5313810
  15.5315900  10.7966610   8.8140940  15.4170910   9.7746950   9.9251090
  13.7097070  11.0421160   6.8100550  13.2500040  11.7936970   6.4358570
  13.0809530  10.3227630   6.7515350   4.1392790   9.3509400   5.9848680
   4.6557810   8.7396760   5.4596940   4.7890170   9.8538180   6.4759690
   6.8788290  10.2417890   6.8117660   7.1666100   9.9872190   5.9350670
   7.3911510   9.6895250   7.4023230   6.9460650  11.1633990  14.1785860
   7.8727960  10.9278260  14.2221820   6.9311080  11.9905990  13.6971890
  13.5138210  10.3903850  14.0026900  14.3063530   9.8953080  13.7952860
  13.8071360  11.0693990  14.6102510
 126.8270780 116.7255020 104.3703620  90.0000000  90.0000000  90.0000000
